2
Lattice="2.9182001670532856 -3.037932093955498e-17 2.9182001670532856 2.9182001670532856 2.9182001670532856 9.31799917507871e-17 5.153972908831371e-17 2.9182001670532856 2.9182001670532856" Properties=species:S:1:pos:R:3:forces:R:3 n_minim_iter=1 energy=-325.9788382917793 stress="0.06897860790738704 -1.5462036275876577e-16 2.33923514046434e-20 -1.5462036275876577e-16 0.06897860790738708 8.017704133792676e-17 2.33923514046434e-20 8.017704133792676e-17 0.06897860790738723" free_energy=-325.9788382917793 pbc="T T T"
Si       0.00000000      -0.00000000      -0.00000000       0.00000000       0.00000000      -0.00000000
Si       1.45910008       1.45910008       1.45910008      -0.00000000      -0.00000000       0.00000000
