2
Lattice="2.522446110827098 -2.6259404964302938e-17 2.522446110827098 2.522446110827098 2.522446110827098 8.054331243357173e-17 4.455012739005349e-17 2.522446110827098 2.522446110827098" Properties=species:S:1:pos:R:3:forces:R:3 n_minim_iter=1 energy=-325.5950164141497 stress="-0.21435637409663844 3.27733586653789e-17 1.2181675965216694e-15 3.27733586653789e-17 -0.21435637409663832 1.1802892745155587e-16 1.2181675965216694e-15 1.1802892745155587e-16 -0.21435637409663827" free_energy=-325.5950164141497 pbc="T T T"
Si       0.00000000      -0.00000000      -0.00000000       0.00000000       0.00000000       0.00000000
Si       1.26122306       1.26122306       1.26122306      -0.00000000      -0.00000000      -0.00000000
