2
Lattice="2.9581804799223534 -3.079552774045435e-17 2.9581804799223534 2.9581804799223534 2.9581804799223534 9.445658862902502e-17 5.2245840518709007e-17 2.9581804799223534 2.9581804799223534" Properties=species:S:1:pos:R:3:forces:R:3 n_minim_iter=1 energy=-325.9052976412734 stress="0.07305720346425386 -1.7462696980466696e-17 -1.2779821106023623e-17 -1.7462696980466696e-17 0.07305720346425393 8.268082714111124e-17 -1.2779821106023623e-17 8.268082714111124e-17 0.07305720346425378" free_energy=-325.9052976412734 pbc="T T T"
Si       0.00000000      -0.00000000      -0.00000000      -0.00000000       0.00000000      -0.00000000
Si       1.47909024       1.47909024       1.47909024       0.00000000      -0.00000000       0.00000000
