2
Lattice="2.85609185111262 -2.973275512673687e-17 2.85609185111262 2.85609185111262 2.85609185111262 9.11968336273845e-17 5.0442804410612257e-17 2.85609185111262 2.85609185111262" Properties=species:S:1:pos:R:3:forces:R:3 n_minim_iter=1 energy=-326.225011438251 stress="0.04790039031072176 1.2761980867800974e-16 1.5793793762811331e-16 1.2761980867800974e-16 0.04790039031072163 4.931122288808161e-19 1.5793793762811331e-16 4.931122288808161e-19 0.047900390310721554" free_energy=-326.225011438251 pbc="T T T"
Si      -0.00000000      -0.00000000      -0.00000000       0.00000000       0.00000000       0.00000000
Si       1.42804593       1.42804593       1.42804593      -0.00000000      -0.00000000      -0.00000000
