2
Lattice="3.140721545310571 -4.0443530923526473e-69 6.994232478594845e-51 4.044353092352648e-69 3.140721545310571 -8.159937891693986e-51 -6.994232478594845e-51 8.60403548147679e-48 3.140721545310571" Properties=species:S:1:pos:R:3:forces:R:3 n_minim_iter=1 energy=-325.1835795031944 stress="0.03049734007812436 2.4077443770107286e-18 1.0190918060836112e-17 2.4077443770107286e-18 0.030497340078124362 -1.0526882392512028e-17 1.0190918060836112e-17 -1.0526882392512028e-17 0.030497340078124286" free_energy=-325.1835795031944 pbc="T T T"
Si       0.00000000       0.00000000       0.00000000      -0.00000000       0.00000000      -0.00000000
Si       1.57036077       1.57036077       1.57036077       0.00000000      -0.00000000       0.00000000
