2
Lattice="3.2607108578537787 -4.198865085928764e-69 7.261442778765212e-51 4.198865085928732e-69 3.2607108578537787 -8.47168324189275e-51 -7.261442778765212e-51 -4.966895588413289e-32 3.2607108578537787" Properties=species:S:1:pos:R:3:forces:R:3 n_minim_iter=1 energy=-324.9705836372264 stress="0.07788075257318491 1.976471015072144e-18 2.0315119800488363e-17 1.976471015072144e-18 0.07788075257318497 2.191631150890124e-17 2.0315119800488363e-17 2.191631150890124e-17 0.07788075257318491" free_energy=-324.9705836372264 pbc="T T T"
Si       0.00000000       0.00000000       0.00000000      -0.00000000       0.00000000       0.00000000
Si       1.63035543       1.63035543       1.63035543       0.00000000      -0.00000000       0.00000000
