2
Lattice="3.0640878025048255 -3.9456707003533443e-69 6.823572900801798e-51 3.9456707003533443e-69 3.0640878025048255 -7.960835050935428e-51 -6.823572900801799e-51 7.960835050935432e-51 3.0640878025048255" Properties=species:S:1:pos:R:3:forces:R:3 n_minim_iter=1 energy=-325.206694359811 stress="-0.010560645503555816 -8.743687093616783e-19 9.503483351406933e-17 -8.743687093616783e-19 -0.010560645503555857 8.068312642247764e-17 9.503483351406933e-17 8.068312642247764e-17 -0.010560645503555828" free_energy=-325.206694359811 pbc="T T T"
Si       0.00000000       0.00000000       0.00000000       0.00000000       0.00000000       0.00000000
Si       1.53204390       1.53204390       1.53204390      -0.00000000      -0.00000000      -0.00000000
