2
Lattice="2.8383562339780983 -3.6549928564114666e-69 6.320879795011777e-51 3.6549928564114666e-69 2.8383562339780983 -7.374359760847075e-51 -6.320879795011776e-51 7.374359760847073e-51 2.8383562339780983" Properties=species:S:1:pos:R:3:forces:R:3 n_minim_iter=1 energy=-324.4236186231172 stress="-0.2970995689365208 -3.302881601044555e-17 -5.297127942415986e-17 -3.302881601044555e-17 -0.2970995689365207 -1.1531162867844325e-17 -5.297127942415986e-17 -1.1531162867844325e-17 -0.2970995689365212" free_energy=-324.4236186231172 pbc="T T T"
Si       0.00000000       0.00000000       0.00000000      -0.00000000      -0.00000000       0.00000000
Si       1.41917812       1.41917812       1.41917812      -0.00000000       0.00000000      -0.00000000
