2
Lattice="3.0107884755759717 -3.8770363771332944e-69 6.704877920009995e-51 3.877036377133242e-69 3.0107884755759717 -7.822357573344992e-51 -6.704877920009995e-51 3.9111787866724974e-50 3.0107884755759717" Properties=species:S:1:pos:R:3:forces:R:3 n_minim_iter=1 energy=-325.1649726128284 stress="-0.04913727547774898 -5.898444050180395e-17 2.6504861734108024e-17 -5.898444050180395e-17 -0.04913727547774902 4.3602722181290425e-17 2.6504861734108024e-17 4.3602722181290425e-17 -0.04913727547774934" free_energy=-325.1649726128284 pbc="T T T"
Si       0.00000000       0.00000000       0.00000000       0.00000000      -0.00000000       0.00000000
Si       1.50539424       1.50539424       1.50539424      -0.00000000       0.00000000      -0.00000000
