2
Lattice="3.2836743669563284 -4.228435532627177e-69 7.312581384614359e-51 4.2284355326271453e-69 3.2836743669563284 -8.531344948716754e-51 -7.312581384614359e-51 -5.001874878828207e-32 3.2836743669563284" Properties=species:S:1:pos:R:3:forces:R:3 n_minim_iter=1 energy=-324.9705836372264 stress="0.07788075257318491 1.976471015072144e-18 2.0315119800488363e-17 1.976471015072144e-18 0.07788075257318497 2.191631150890124e-17 2.0315119800488363e-17 2.191631150890124e-17 0.07788075257318491" free_energy=-324.9705836372264 pbc="T T T"
Si       0.00000000       0.00000000       0.00000000      -0.00000000       0.00000000       0.00000000
Si       1.64183718       1.64183718       1.64183718       0.00000000      -0.00000000       0.00000000
