2
Lattice="3.090055886419007 -3.979110182002907e-69 6.881402547046826e-51 3.979110182002907e-69 3.090055886419007 -8.028302971554628e-51 -6.881402547046825e-51 8.028302971554628e-51 3.090055886419007" Properties=species:S:1:pos:R:3:forces:R:3 n_minim_iter=1 energy=-325.2090669409342 stress="0.0038623643337741126 -4.115563063029964e-19 -2.810341634469033e-17 -4.115563063029964e-19 0.0038623643337741377 -4.444808108072361e-17 -2.810341634469033e-17 -4.444808108072361e-17 0.003862364333773797" free_energy=-325.2090669409342 pbc="T T T"
Si       0.00000000       0.00000000       0.00000000       0.00000000       0.00000000       0.00000000
Si       1.54502794       1.54502794       1.54502794      -0.00000000      -0.00000000      -0.00000000
