1
Lattice="2.7062320450869564 1.9207344975528273e-16 -2.254548765566784e-50 1.353116022543478 2.3436656995808183 -3.9387865289732037e-50 1.1554082038147474e-50 9.110927187182533e-50 2.526063703006937" Properties=species:S:1:pos:R:3:forces:R:3 cutoff=-1.0 nneightol=1.2 n_minim_iter=1 energy=-162.820786704383 stress="0.0320407344311576 1.30605827330344e-16 -1.559149358389184e-17 1.30605827330344e-16 0.032040734431157424 -5.95508435495869e-18 -1.559149358389184e-17 -5.95508435495869e-18 0.039813870592927" free_energy=-162.820786704383 pbc="T T T"
Si       0.00000000       0.00000000       0.00000000      -0.00000000       0.00000000      -0.00000000
