1
Lattice="2.465184090325231 1.6945776656167786e-16 -2.0928861757881058e-50 1.2325920451626153 2.1349120472268823 -1.80918945401302e-50 2.424374490425349e-49 3.408727910839917e-49 2.3194036623966663" Properties=species:S:1:pos:R:3:forces:R:3 cutoff=-1.0 nneightol=1.2 n_minim_iter=1 energy=-162.640265140355 stress="-0.17717343554272208 1.2809489009992467e-16 1.7225450613516883e-18 1.2809489009992467e-16 -0.17717343554272097 -2.370222004419921e-17 1.7225450613516883e-18 -2.370222004419921e-17 -0.19061677256441678" free_energy=-162.640265140355 pbc="T T T"
Si       0.00000000       0.00000000       0.00000000      -0.00000000       0.00000000       0.00000000
