2
Lattice="2.377579498184204 3.327260367476094e-17 -1.9535854566730153e-49 -1.188789749092102 2.059044244944578 1.2621869641160171e-49 3.768606537007865e-49 -6.357157175357409e-50 4.586521469284561" Properties=species:S:1:pos:R:3:forces:R:3 n_minim_iter=1 energy=-325.0026817670829 stress="0.04771073344148072 1.5905586155384493e-17 -1.1313536236207005e-17 1.5905586155384493e-17 0.047710733441480656 -9.275844263659262e-18 -1.1313536236207005e-17 -9.275844263659262e-18 0.016951377663471233" free_energy=-325.0026817670829 pbc="T T T"
Si       0.00000000       0.00000000       0.00000000       0.00000000       0.00000000       0.00000000
Si       0.00000000       1.37269616       2.29326073      -0.00000000      -0.00000000      -0.00000000
2
Lattice="2.369772875684825 3.4134773399942816e-17 -2.086005362637996e-49 -1.1848864378424124 2.0522835115423606 9.959221375680947e-50 3.495677994092125e-49 -1.0495692563383067e-49 4.616789532320595" Properties=species:S:1:pos:R:3:forces:R:3 n_minim_iter=2 energy=-325.0041668099793 stress="0.037080094563099394 2.963827802724654e-17 8.709926019150753e-17 2.963827802724654e-17 0.037080094563100116 -2.9618963411393015e-17 8.709926019150753e-17 -2.9618963411393015e-17 0.04820996461426527" free_energy=-325.0041668099793 pbc="T T T"
Si       0.00000000      -0.00000000      -0.00000000      -0.00000000       0.00000000       0.00000000
Si      -0.00000000       1.36818901       2.30839477       0.00000000      -0.00000000      -0.00000000
