2
Lattice="2.708299583580402 8.833322909835844e-18 1.8000225999663565e-50 -1.354149791790201 2.3454562404394452 -4.476217095114443e-51 -3.107159424977432e-50 -9.017113798969242e-51 4.675007178766302" Properties=species:S:1:pos:R:3:forces:R:3 n_minim_iter=1 energy=-325.2326786711673 stress="0.009043282433346135 3.820336798190536e-17 -3.0492596462621715e-17 3.820336798190536e-17 0.009043282433345835 1.3079104114906131e-16 -3.0492596462621715e-17 1.3079104114906131e-16 0.010575072327949325" free_energy=-325.2326786711673 pbc="T T T"
Si      -0.00000000       0.00000000       0.00000000      -0.00000000       0.00000000      -0.00000000
Si       0.00000000       1.56363749       2.33750359       0.00000000      -0.00000000       0.00000000
