2
Lattice="2.751639716008328 8.974680013389651e-18 1.8288278393603925e-50 -1.375819858004164 2.38298989612541 -4.5478486985214564e-51 -3.1568823957187897e-50 -9.161412054795263e-51 4.749819962203419" Properties=species:S:1:pos:R:3:forces:R:3 n_minim_iter=1 energy=-325.1993389715068 stress="0.03470664313781286 2.288490013520303e-17 1.071454732676322e-16 2.288490013520303e-17 0.03470664313781272 -6.101711736687536e-17 1.071454732676322e-16 -6.101711736687536e-17 0.04162604010818578" free_energy=-325.1993389715068 pbc="T T T"
Si      -0.00000000       0.00000000       0.00000000       0.00000000      -0.00000000      -0.00000000
Si       0.00000000       1.58865993       2.37490998      -0.00000000      -0.00000000       0.00000000
