2
Lattice="2.854406553768303 9.309861788648235e-18 1.8971299694557946e-50 -1.4272032768841516 2.4719885882921426 -4.7176994339352696e-51 -3.2747840305515574e-50 -9.503567803169618e-51 4.927213817440014" Properties=species:S:1:pos:R:3:forces:R:3 n_minim_iter=1 energy=-324.989484186887 stress="0.08540511460136094 2.8344098168102223e-17 4.5912199942775346e-18 2.8344098168102223e-17 0.08540511460136088 7.877345359514386e-18 4.5912199942775346e-18 7.877345359514386e-18 0.07547086566540585" free_energy=-324.989484186887 pbc="T T T"
Si      -0.00000000       0.00000000       0.00000000       0.00000000       0.00000000      -0.00000000
Si       0.00000000       1.64799239       2.46360691      -0.00000000      -0.00000000       0.00000000
