2
Lattice="2.640563502672634 8.612396584353756e-18 1.755003032261834e-50 -1.320281751336317 2.2867950736205196 -4.3642644126440074e-51 -3.0294476373009145e-50 -8.791590760992009e-51 4.558082645592363" Properties=species:S:1:pos:R:3:forces:R:3 n_minim_iter=1 energy=-325.2273633888807 stress="-0.016689758321520004 8.70494879121926e-17 3.653161490071645e-17 8.70494879121926e-17 -0.016689758321520223 -2.1248058425127784e-17 3.653161490071645e-17 -2.1248058425127784e-17 -0.01948638727703012" free_energy=-325.2273633888807 pbc="T T T"
Si      -0.00000000      -0.00000000       0.00000000       0.00000000       0.00000000      -0.00000000
Si       0.00000000       1.52453005       2.27904132      -0.00000000      -0.00000000       0.00000000
