2
Lattice="2.520729603089332 3.32146472899344e-17 -1.1438762626997715e-49 -1.260364801544666 2.183015872346826 -8.766954906460742e-50 5.953213058072131e-51 1.374449202465567e-48 4.606884798210585" Properties=species:S:1:pos:R:3:forces:R:3 n_minim_iter=2 energy=-325.0910458525919 stress="-0.06925380543655603 2.887700623953369e-17 4.3315509359300536e-17 2.887700623953369e-17 -0.06925380543655665 -4.4889374628279857e-17 4.3315509359300536e-17 -4.4889374628279857e-17 -0.06855722188818722" free_energy=-325.0910458525919 pbc="T T T"
Si       0.00000000      -0.00000000      -0.00000000      -0.00000000      -0.00000000       0.00000000
Si       0.00000000       1.45534391       2.30344240       0.00000000       0.00000000      -0.00000000
