2
Lattice="2.4028747956300798 3.362659411226034e-17 -1.974369840644285e-49 -1.2014373978150399 2.08095061512899 1.2756154928840368e-49 3.348782165064327e-49 -2.039595021429449e-49 4.635317913271419" Properties=species:S:1:pos:R:3:forces:R:3 n_minim_iter=2 energy=-324.9910853767951 stress="-0.00305184261116547 3.917154990532871e-17 -1.8988191300836582e-17 3.917154990532871e-17 -0.003051842611166241 1.802059694952093e-16 -1.8988191300836582e-17 1.802059694952093e-16 -0.004823593052879206" free_energy=-324.9910853767951 pbc="T T T"
Si       0.00000000       0.00000000      -0.00000000       0.00000000       0.00000000       0.00000000
Si      -0.00000000       1.38730041       2.31765896      -0.00000000      -0.00000000      -0.00000000
