2
Lattice="2.5746660736460925 3.2273515457553543e-17 -1.0991989509662457e-49 -1.2873330368230462 2.2297262260394515 -7.680568862801319e-50 -1.6357833423189986e-49 1.683599093829213e-50 4.542056281544216" Properties=species:S:1:pos:R:3:forces:R:3 n_minim_iter=2 energy=-325.1803967150266 stress="-0.04853269485214504 -4.6540915973989114e-17 -7.295078206214984e-17 -4.6540915973989114e-17 -0.04853269485214532 -1.1651411509482674e-18 -7.295078206214984e-17 -1.1651411509482674e-18 -0.04829141212442472" free_energy=-325.1803967150266 pbc="T T T"
Si      -0.00000000       0.00000000       0.00000000       0.00000000       0.00000000      -0.00000000
Si      -0.00000000       1.48648415       2.27102814       0.00000000      -0.00000000       0.00000000
