24
Lattice="9.630889748134752 -0.006569618981860655 -0.012995744315080177 -0.004584917287132017 6.522229808938915 0.007178161021692714 -0.008798118104132327 0.007277583175786826 6.548903210367956" Properties=species:S:1:pos:R:3 Minim_Constant_Volume=F n_minim_iter=37 stress="0.0171600777471317 -3.632499995657049e-08 2.993129012888994e-06 -3.632499995657049e-08 0.01715863458246924 -5.7284058004355926e-06 2.993129012888994e-06 -5.7284058004355926e-06 0.01716084680982683" pbc="T T T"
Ti       0.14450794       0.04732612       0.01298988
Ti       1.54100828       1.72628937       1.63866492
V        0.05877169      -0.01652074       3.29058811
Ti       1.57456537       1.72251827       4.92030270
Ti      -0.06636799       3.24201010       0.02016698
Ti       1.62061428       4.79293879       1.63814902
Ti      -0.08946324       3.26955146       3.24892555
Al       1.61027401       4.85716904       4.88430705
Ti       3.03313419       0.09183206       0.05053402
Ti       4.95291966       1.50448588       1.63692111
Ti       3.09183587       0.10131923       3.20247621
Ti       4.76968262       1.52900908       4.90117319
Ti       3.30573810       3.18956127       0.02895100
Ti       4.71702131       4.98852727       1.63454593
Ti       3.29066060       3.19174213       3.23479399
Ti       4.72277532       4.98397399       4.90696246
Ti       6.47580910      -0.05850973      -0.03646345
Ti       7.94673325       1.55667854       1.62614129
Ti       6.45233571      -0.06037228       3.30074185
Ti       8.07970525       1.60028760       4.91897626
Al       6.39420073       3.29050387      -0.01891749
Ti       8.10266476       4.94528287       1.60116044
Al       6.37964341       3.29908119       3.28606738
Ti       8.07967993       4.90518493       4.94661645
