2
Lattice="2.744652653734472 0.0 0.0 0.0 2.744652653734472 0.0 0.0 0.0 3.955995193884911" Properties=species:S:1:pos:R:3:tags:I:1 spacegroup="P 1" unit_cell=conventional n_minim_iter=1 energy=-1704.28615505148 free_energy=-1704.28615505148 pbc="T T T"
Ti       1.37232633       1.37232633       1.97799760        0
Al       0.00000000       0.00000000       0.00000000        1
