2
Lattice="2.5959948999649245 0.0 0.0 0.0 2.5959948999649245 0.0 0.0 0.0 3.7417278771642026" Properties=species:S:1:pos:R:3:tags:I:1 spacegroup="P 1" unit_cell=conventional n_minim_iter=1 energy=-1703.7903766264535 free_energy=-1703.7903766264535 pbc="T T T"
Ti       1.29799745       1.29799745       1.87086394        0
Al       0.00000000       0.00000000       0.00000000        1
