2
Lattice="2.672391131725413 0.0 0.0 0.0 2.672391131725413 0.0 0.0 0.0 3.851841310011232" Properties=species:S:1:pos:R:3:tags:I:1 spacegroup="P 1" unit_cell=conventional n_minim_iter=1 energy=-1704.1474879916514 free_energy=-1704.1474879916514 pbc="T T T"
Ti       1.33619557       1.33619557       1.92592066        0
Al       0.00000000       0.00000000       0.00000000        1
