2
Lattice="2.6219565712312956 0.0 0.0 0.0 2.6219565712312956 0.0 0.0 0.0 3.7791476383187668" Properties=species:S:1:pos:R:3:tags:I:1 spacegroup="P 1" unit_cell=conventional n_minim_iter=1 energy=-1703.938695350611 free_energy=-1703.938695350611 pbc="T T T"
Ti       1.31097829       1.31097829       1.88957382        0
Al       0.00000000       0.00000000       0.00000000        1
