2
Lattice="2.720990677555419 0.0 0.0 0.0 2.720990677555419 0.0 0.0 0.0 3.921890089942235" Properties=species:S:1:pos:R:3:tags:I:1 spacegroup="P 1" unit_cell=conventional n_minim_iter=1 energy=-1704.2598787249456 free_energy=-1704.2598787249456 pbc="T T T"
Ti       1.36049534       1.36049534       1.96094505        0
Al       0.00000000       0.00000000       0.00000000        1
