2
Lattice="2.8572620993952205 0.0 0.0 0.0 2.8572620993952205 0.0 0.0 0.0 4.1183044118523755" Properties=species:S:1:pos:R:3:tags:I:1 spacegroup="P 1" unit_cell=conventional n_minim_iter=1 energy=-1704.1901345582248 free_energy=-1704.1901345582248 pbc="T T T"
Ti       1.42863105       1.42863105       2.05915221        0
Al       0.00000000       0.00000000       0.00000001        1
