2
Lattice="2.9816444651406195 0.0 0.0 0.0 2.9816444651406195 0.0 0.0 0.0 4.297582485681979" Properties=species:S:1:pos:R:3:tags:I:1 spacegroup="P 1" unit_cell=conventional n_minim_iter=1 stress="0.1171847602021871 -1.015692441670218e-17 -1.5060831170125701e-18 -1.015692441670218e-17 0.11718476020218725 -6.992219331602461e-18 -1.5060831170125701e-18 -6.992219331602461e-18 0.11385206447358065" pbc="T T T"
Ti       1.49082223       1.49082223       2.14879125        0
Al       0.00000000       0.00000000       0.00000001        1
