2
Lattice="2.8999140905530627 0.0 0.0 0.0 2.8999140905530627 0.0 0.0 0.0 4.1797807053281515" Properties=species:S:1:pos:R:3:tags:I:1 spacegroup="P 1" unit_cell=conventional n_minim_iter=1 stress="0.07501092608307013 -3.2466633034097564e-17 9.098851505975925e-18 -3.2466633034097564e-17 0.07501092608307021 -7.819581503595831e-19 9.098851505975925e-18 -7.819581503595831e-19 0.06959601191131604" pbc="T T T"
Ti       1.44995705       1.44995705       2.08989036        0
Al       0.00000000       0.00000000       0.00000001        1
