2
Lattice="2.720990677555419 0.0 0.0 0.0 2.720990677555419 0.0 0.0 0.0 3.921890089942235" Properties=species:S:1:pos:R:3:tags:I:1 spacegroup="P 1" unit_cell=conventional n_minim_iter=1 stress="-0.045862007940396646 -1.985492475638462e-18 1.3493320985121755e-17 -1.985492475638462e-18 -0.04586200794039671 -6.145038536496472e-18 1.3493320985121755e-17 -6.145038536496472e-18 -0.04805615568588948" pbc="T T T"
Ti       1.36049534       1.36049534       1.96094505        0
Al       0.00000000       0.00000000       0.00000000        1
