2
Lattice="2.790789886889952 0.0 0.0 0.0 2.790789886889952 0.0 0.0 0.0 4.022494928331777" Properties=species:S:1:pos:R:3:tags:I:1 spacegroup="P 1" unit_cell=conventional n_minim_iter=1 stress="0.01953948391515635 -2.460410281638918e-17 1.1778418281655526e-17 -2.460410281638918e-17 0.01953948391515652 -5.647817325177794e-18 1.1778418281655526e-17 -5.647817325177794e-18 0.017861761903993027" pbc="T T T"
Ti       1.39539494       1.39539494       2.01124747        0
Al       0.00000000       0.00000000       0.00000000        1
