2
Lattice="2.672391131725413 0.0 0.0 0.0 2.672391131725413 0.0 0.0 0.0 3.851841310011232" Properties=species:S:1:pos:R:3:tags:I:1 spacegroup="P 1" unit_cell=conventional n_minim_iter=1 stress="-0.10191886810117895 4.357524854019937e-17 -7.567336938963711e-19 4.357524854019937e-17 -0.10191886810117895 2.1440787993730515e-18 -7.567336938963711e-19 2.1440787993730515e-18 -0.10419928098151406" pbc="T T T"
Ti       1.33619557       1.33619557       1.92592066        0
Al       0.00000000       0.00000000       0.00000000        1
