4
Lattice="4.250634276730445 0.0 0.0 0.0 4.250634276730445 0.0 0.0 0.0 4.250634276730445" Properties=species:S:1:pos:R:3 n_minim_iter=1 stress="0.0600669708207166 -4.506182148442155e-18 -1.7986516965583156e-18 -4.506182148442155e-18 0.06006697082071658 -4.746124186819771e-18 -1.7986516965583156e-18 -4.746124186819771e-18 0.06006697082071702" pbc="T T T"
Al       0.00000000       0.00000000       0.00000000
Al       2.12531714       2.12531714       0.00000000
Al       2.12531714       0.00000000       2.12531714
Al       0.00000000       2.12531714       2.12531714
