4
Lattice="4.308869380063768 0.0 0.0 0.0 4.308869380063768 0.0 0.0 0.0 4.308869380063768" Properties=species:S:1:pos:R:3 n_minim_iter=1 stress="0.07129822369909558 4.572643375211938e-18 2.3287346395945465e-22 4.572643375211938e-18 0.07129822369909558 3.2674606679029877e-19 2.3287346395945465e-22 3.2674606679029877e-19 0.07129822369909551" pbc="T T T"
Al       0.00000000       0.00000000       0.00000000
Al       2.15443469       2.15443469       0.00000000
Al       2.15443469       0.00000000       2.15443469
Al       0.00000000       2.15443469       2.15443469
