4
Lattice="3.9321902899662327 0.0 0.0 0.0 3.9321902899662327 0.0 0.0 0.0 3.9321902899662327" Properties=species:S:1:pos:R:3 n_minim_iter=1 stress="-0.02295220099626907 -8.864782922068569e-19 -3.535741852752167e-18 -8.864782922068569e-19 -0.022952200996269056 -1.0647714992632726e-17 -3.535741852752167e-18 -1.0647714992632726e-17 -0.022952200996269056" pbc="T T T"
Al       0.00000000       0.00000000       0.00000000
Al       1.96609514       1.96609514       0.00000000
Al       1.96609514       0.00000000       1.96609514
Al       0.00000000       1.96609514       1.96609514
