4
Lattice="4.065585427259415 0.0 0.0 0.0 4.065585427259415 0.0 0.0 0.0 4.065585427259415" Properties=species:S:1:pos:R:3 n_minim_iter=1 stress="0.028119416941913247 -1.452734781981788e-17 -5.031778702818897e-18 -1.452734781981788e-17 0.02811941694191321 -9.968881540883647e-18 -5.031778702818897e-18 -9.968881540883647e-18 0.028119416941913233" pbc="T T T"
Al       0.00000000       0.00000000       0.00000000
Al       2.03279271       2.03279271       0.00000000
Al       2.03279271       0.00000000       2.03279271
Al       0.00000000       2.03279271       2.03279271
