4
Lattice="3.7132710668902233 0.0 0.0 0.0 3.7132710668902233 0.0 0.0 0.0 3.7132710668902233" Properties=species:S:1:pos:R:3 n_minim_iter=1 stress="-0.17983614932036426 3.0968766149684455e-17 -1.6813643242593036e-17 3.0968766149684455e-17 -0.17983614932036415 1.7448878713438584e-17 -1.6813643242593036e-17 1.7448878713438584e-17 -0.17983614932036418" pbc="T T T"
Al       0.00000000       0.00000000       0.00000000
Al       1.85663553       1.85663553       0.00000000
Al       1.85663553       0.00000000       1.85663553
Al       0.00000000       1.85663553       1.85663553
