4
Lattice="3.789072948743637 0.0 0.0 0.0 3.789072948743637 0.0 0.0 0.0 3.789072948743637" Properties=species:S:1:pos:R:3 n_minim_iter=1 stress="-0.1108463252100719 2.2831812716435634e-17 9.501775425224758e-20 2.2831812716435634e-17 -0.11084632521007198 4.942686374566275e-18 9.501775425224758e-20 4.942686374566275e-18 -0.110846325210072" pbc="T T T"
Al       0.00000000       0.00000000       0.00000000
Al       1.89453647       1.89453647       0.00000000
Al       1.89453647       0.00000000       1.89453647
Al       0.00000000       1.89453647       1.89453647
