4
Lattice="4.220908588980298 0.0 0.0 0.0 4.220908588980298 0.0 0.0 0.0 4.220908588980298" Properties=species:S:1:pos:R:3 n_minim_iter=1 stress="0.05519621505077165 9.945327864594783e-18 1.2654368481016946e-20 9.945327864594783e-18 0.05519621505077164 -1.5851418010125528e-18 1.2654368481016946e-20 -1.5851418010125528e-18 0.05519621505077164" pbc="T T T"
Al       0.00000000       0.00000000       0.00000000
Al       2.11045429       2.11045429       0.00000000
Al       2.11045429       0.00000000       2.11045429
Al       0.00000000       2.11045429       2.11045429
