4
Lattice="3.6342411856642793 0.0 0.0 0.0 3.6342411856642793 0.0 0.0 0.0 3.6342411856642793" Properties=species:S:1:pos:R:3 n_minim_iter=1 stress="-0.2260030043006816 3.7216306039702807e-17 -1.5498260834460293e-19 3.7216306039702807e-17 -0.22600300430068157 3.1319453079379647e-17 -1.5498260834460293e-19 3.1319453079379647e-17 -0.22600300430068168" pbc="T T T"
Al       0.00000000       0.00000000       0.00000000
Al       1.81712059       1.81712059       0.00000000
Al       1.81712059       0.00000000       1.81712059
Al       0.00000000       1.81712059       1.81712059
