4
Lattice="4.339197091187187 0.24154586211320395 8.890583726095229e-13 2.080548697835532 3.815533110275192 2.2763288263799432e-12 -3.2098728945117343 -2.0285394861952537 2.113934567032985" Properties=species:S:1:pos:R:3:tags:I:1 spacegroup="P 1" unit_cell=conventional n_minim_iter=4 stress="50.60430122435322 -4.038253028405259e-05 5.421615994701109e-13 -4.038253028405259e-05 50.60433960341904 -1.0087373504403514e-12 5.421615994701109e-13 -1.0087373504403514e-12 50.60436512391714" pbc="T T T"
Ti       0.00000000       0.00000000       0.00000000        0
Al       3.20987289       2.02853949       0.00000000        1
Al       2.16959855       0.12077293       1.05696728        2
Al       1.04027435       1.90776656       1.05696728        3
