4
Lattice="4.294916480134352 0.2390809364260579 8.799857153474812e-13 2.059317127632729 3.7765963821052604 2.253099360358682e-12 -3.177116803883911 -2.0078386592667044 2.0923623009231913" Properties=species:S:1:pos:R:3:tags:I:1 spacegroup="P 1" unit_cell=conventional n_minim_iter=4 stress="50.60430122435322 -4.038253028405259e-05 5.421615994701109e-13 -4.038253028405259e-05 50.60433960341904 -1.0087373504403514e-12 5.421615994701109e-13 -1.0087373504403514e-12 50.60436512391714" pbc="T T T"
Ti       0.00000000       0.00000000       0.00000000        0
Al       3.17711680       2.00783866       0.00000000        1
Al       2.14745824       0.11954047       1.04618115        2
Al       1.02965856       1.88829819       1.04618115        3
