4
Lattice="4.503293274207318 -0.21200349400503316 6.86916079851671e-13 1.7413285943519456 4.15840961444198 2.3964557614430995e-12 -3.122310934280088 -1.9732030602197723 2.585002883519776" Properties=species:S:1:pos:R:3:tags:I:1 spacegroup="P 1" unit_cell=conventional n_minim_iter=2 stress="2.5599084607646945 0.007642066845701458 5.147689357962777e-15 0.007642066845701458 2.5526455333951725 5.80941609701043e-15 5.147689357962777e-15 5.80941609701043e-15 2.5478159856647444" pbc="T T T"
Ti       0.00000000       0.00000000       0.00000000        0
Al       3.12231093       1.97320306       0.00000000        1
Al       2.25164664      -0.10600175       1.29250144        2
Al       0.87066430       2.07920481       1.29250144        3
