4
Lattice="4.46015931812436 -0.18352634528946266 6.94659470192558e-13 1.748536347180953 4.107228226560334 2.375185424426735e-12 -3.1043478326531058 -1.9618509406367115 2.5378866174617976" Properties=species:S:1:pos:R:3:tags:I:1 spacegroup="P 1" unit_cell=conventional n_minim_iter=3 stress="4.25881897653809 -0.00018720430502085371 -9.166491782224666e-15 -0.00018720430502085371 4.258996893232368 1.1377786252477519e-14 -9.166491782224666e-15 1.1377786252477519e-14 4.259115200510321" pbc="T T T"
Ti       0.00000000       0.00000000       0.00000000        0
Al       3.10434783       1.96185094       0.00000000        1
Al       2.23007966      -0.09176317       1.26894331        2
Al       0.87426817       2.05361411       1.26894331        3
