4
Lattice="4.352080951382807 -0.058634371397418825 7.348900137737902e-13 1.8149527744222236 3.9560072072122585 2.3029690137543613e-12 -3.083516862902932 -1.948686417908611 2.3745718767285227" Properties=species:S:1:pos:R:3:tags:I:1 spacegroup="P 1" unit_cell=conventional n_minim_iter=1 stress="0.0013411249740967585 -0.0004652012958349141 6.98104819726881e-15 -0.0004652012958349141 0.0017832466266731793 3.9247857710325975e-14 6.98104819726881e-15 3.9247857710325975e-14 0.002077239326286856" pbc="T T T"
Ti       0.00000000       0.00000000       0.00000000        0
Al       3.08351686       1.94868642       0.00000000        1
Al       2.17604048      -0.02931719       1.18728594        2
Al       0.90747639       1.97800360       1.18728594        3
