4
Lattice="4.252902239665683 -0.04214254291935602 7.253618143888931e-13 1.7872808776742115 3.8593497533104206 2.2485853288663395e-12 -3.0200915586703516 -1.908603605196689 2.3076465737966414" Properties=species:S:1:pos:R:3:tags:I:1 spacegroup="P 1" unit_cell=conventional n_minim_iter=3 stress="-8.385054644287052 -0.0006426492001121307 -2.7761970733099753e-14 -0.0006426492001121307 -8.384443878304966 1.1212162924948109e-15 -2.7761970733099753e-14 1.1212162924948109e-15 -8.384037744068106" pbc="T T T"
Ti       0.00000000       0.00000000       0.00000000        0
Al       3.02009156       1.90860361       0.00000000        1
Al       2.12645112      -0.02107127       1.15382329        2
Al       0.89364044       1.92967488       1.15382329        3
