4
Lattice="4.550860646589531 -0.23277020210591176 6.86737207872818e-13 1.7429878066168307 4.2102859876320435 2.4230546493329824e-12 -3.1469242266036432 -1.9887578927643867 2.6279696626194347" Properties=species:S:1:pos:R:3:tags:I:1 spacegroup="P 1" unit_cell=conventional n_minim_iter=3 stress="1.9765831038141888 -0.00560021675563957 -1.1485397371157354e-14 -0.00560021675563957 1.9819054816958106 1.4879803469150956e-14 -1.1485397371157354e-14 1.4879803469150956e-14 1.9854446438973927" pbc="T T T"
Ti       0.00000000       0.00000000       0.00000000        0
Al       3.14692423       1.98875789       0.00000000        1
Al       2.27543032      -0.11638510       1.31398483        2
Al       0.87149390       2.10514299       1.31398483        3
