4
Lattice="4.195505167703709 -0.016682065850652045 7.256841299284298e-13 1.7856422184077672 3.7965805366657817 2.2155218060890127e-12 -2.9905736930561364 -1.8899492354086946 2.2554606574995515" Properties=species:S:1:pos:R:3:tags:I:1 spacegroup="P 1" unit_cell=conventional n_minim_iter=4 stress="-41.32552471017024 9.074344962937327e-09 2.480145054199531e-13 9.074344962937327e-09 -41.325524718795755 5.436463650331554e-14 2.480145054199531e-13 5.436463650331554e-14 -41.325524724529735" pbc="T T T"
Ti       0.00000000       0.00000000       0.00000000        0
Al       2.99057369       1.88994924       0.00000000        1
Al       2.09775258      -0.00834103       1.12773033        2
Al       0.89282111       1.89829027       1.12773033        3
