2
Lattice="2.9840883986982414 4.895554128235003e-17 2.12978789868834e-17 4.8955541282350015e-17 2.9840883986982414 2.5734937109150775e-17 2.12978789868834e-17 2.5734937109150775e-17 2.9840883986982414" Properties=species:S:1:pos:R:3:forces:R:3 n_minim_iter=1 energy=-325.119675056186 stress="-0.07864247169258239 6.861448687538743e-17 -2.115447486787524e-17 6.861448687538743e-17 -0.0786424716925822 -1.0641499946026756e-16 -2.115447486787524e-17 -1.0641499946026756e-16 -0.07864247169258214" free_energy=-325.119675056186 pbc="T T T"
Si      -0.00000000      -0.00000000      -0.00000000      -0.00000001      -0.00000001      -0.00000001
Si       1.49204420       1.49204420       1.49204420       0.00000001       0.00000001       0.00000001
