4
Lattice="1.9582873864239678 -3.391853249107578 -1.7642940496059828e-17 1.9582873864239687 3.391853249107578 1.7642940496059828e-17 2.918804628626089e-33 -3.355857004685366e-17 6.447580486986008" Properties=species:S:1:pos:R:3 cutoff=-1.0 nneightol=1.2 n_minim_iter=3 stress="0.022851651390249746 1.4992426309621723e-16 -7.921972709441353e-17 1.4992426309621723e-16 0.022851651390249476 -1.238841661358749e-16 -7.921972709441353e-17 -1.238841661358749e-16 0.022297864616582414" pbc="T T T"
Si       1.95828739       1.13061775       0.40318983
Si       1.95828739      -1.13061775       3.62698007
Si       1.95828739       1.13061775       2.82060041
Si       1.95828739      -1.13061775      -0.40318983
