4
Lattice="1.911701315268995 -3.3111638069421465 -1.7228621159368433e-17 1.9117013152689946 3.3111638069421465 1.7228621159368433e-17 0.0 -3.268847944886781e-17 6.2823895803296566" Properties=species:S:1:pos:R:3 cutoff=-1.0 nneightol=1.2 n_minim_iter=1 energy=-652.6399402366394 free_energy=-652.6399402366394 pbc="T T T"
Si       1.91170132       1.10372127       0.39194395
Si       1.91170132      -1.10372127       3.53313874
Si       1.91170132       1.10372127       2.74925084
Si       1.91170132      -1.10372127      -0.39194395
