4
Lattice="1.9117013152689948 -3.3111638069421474 -1.722862115936844e-17 1.9117013152689954 3.3111638069421474 1.722862115936844e-17 -2.9454422462408173e-33 -3.2688479448867836e-17 6.282389580329657" Properties=species:S:1:pos:R:3 cutoff=-1.0 nneightol=1.2 n_minim_iter=1 stress="0.0004134573054478498 -6.931443372867607e-17 -3.411846014025373e-17 -6.931443372867607e-17 0.00041345730544807704 -1.0407443205959696e-16 -3.411846014025373e-17 -1.0407443205959696e-16 -0.0003807115888211235" pbc="T T T"
Si       1.91170132       1.10372127       0.39194395
Si       1.91170132      -1.10372127       3.53313874
Si       1.91170132       1.10372127       2.74925084
Si       1.91170132      -1.10372127      -0.39194395
