4
Lattice="1.7405064645446806 -3.0146456274934654 3.738351478502695e-18 1.7405064645446802 3.0146456274934654 -3.7383514785027506e-18 9.961108369454407e-32 7.752186119921754e-18 6.251443751163224" Properties=species:S:1:pos:R:3 cutoff=-1.0 nneightol=1.2 n_minim_iter=1 energy=-651.4003512839487 free_energy=-651.4003512839487 pbc="T T T"
Si       1.74050646       1.00488188       0.46551159
Si       1.74050646      -1.00488188       3.59123347
Si       1.74050646       1.00488188       2.66021028
Si       1.74050646      -1.00488188      -0.46551159
4
Lattice="1.7242478767564313 -2.9864849273848986 -1.4787914853944044e-17 1.7242478767564309 2.9864849273848986 1.4787914853943937e-17 9.238990125239032e-32 4.6244409794691783e-17 6.369894059632588" Properties=species:S:1:pos:R:3 cutoff=-1.0 nneightol=1.2 n_minim_iter=2 stress="-0.19720174747617772 -4.1769128675304324e-16 -2.649572119053891e-17 -4.1769128675304324e-16 -0.1972017474761785 -5.30065476086148e-16 -2.649572119053891e-17 -5.30065476086148e-16 -0.14868755395375713" pbc="T T T"
Si       1.72424788       0.99549498       0.48523064
Si       1.72424788      -0.99549498       3.67017767
Si       1.72424788       0.99549498       2.69971639
Si       1.72424788      -0.99549498      -0.48523064
4
Lattice="1.721758890212752 -2.982173876231891 -5.932912011381755e-17 1.7217588902127516 2.982173876231891 5.932912011381745e-17 8.318277654306366e-32 1.3857568715589359e-16 6.388324097002963" Properties=species:S:1:pos:R:3 cutoff=-1.0 nneightol=1.2 n_minim_iter=3 stress="-0.1533973740011407 -2.0280552216668157e-16 -3.4417994712181083e-16 -2.0280552216668157e-16 -0.15339737400114173 -4.581685671223729e-16 -3.4417994712181083e-16 -4.581685671223729e-16 -0.14163884966343626" pbc="T T T"
Si       1.72175889       0.99405796       0.50300329
Si       1.72175889      -0.99405796       3.69716534
Si       1.72175889       0.99405796       2.69115875
Si       1.72175889      -0.99405796      -0.50300329
4
Lattice="1.7236397880764998 -2.9854316868957493 -1.0492083618300679e-16 1.7236397880764993 2.9854316868957493 1.0492083618300663e-16 8.914409285899173e-32 2.3370273516700065e-16 6.374389365162665" Properties=species:S:1:pos:R:3 cutoff=-1.0 nneightol=1.2 n_minim_iter=4 stress="-0.1513962283545008 -4.929343772267504e-16 -3.6036296245974483e-16 -4.929343772267504e-16 -0.15139622835450295 -3.3617874240698324e-16 -3.6036296245974483e-16 -3.3617874240698324e-16 -0.15319678282087282" pbc="T T T"
Si       1.72363979       0.99514390       0.50156247
Si       1.72363979      -0.99514390       3.68875716
Si       1.72363979       0.99514390       2.68563221
Si       1.72363979      -0.99514390      -0.50156247
4
Lattice="1.7233724352180748 -2.9849686181614086 -1.370780014451777e-16 1.7233724352180744 2.9849686181614086 1.3707800144517752e-16 8.724671569202437e-32 3.0027269263114014e-16 6.376367281685893" Properties=species:S:1:pos:R:3 cutoff=-1.0 nneightol=1.2 n_minim_iter=5 stress="-0.1515740402420032 -4.771134204553761e-16 -2.2513430161302224e-16 -4.771134204553761e-16 -0.15157404024200616 -2.501697638326489e-16 -2.2513430161302224e-16 -2.501697638326489e-16 -0.15158086893312586" pbc="T T T"
Si       1.72337244       0.99498954       0.50180119
Si       1.72337244      -0.99498954       3.68998483
Si       1.72337244       0.99498954       2.68638245
Si       1.72337244      -0.99498954      -0.50180119
