4
Lattice="2.0846792621407513 -3.6107703995129787 -1.8573061301063792e-17 2.0846792621407517 3.6107703995129787 1.8573061301063792e-17 0.0 -3.502327558824856e-17 6.808840219613677" Properties=species:S:1:pos:R:3 cutoff=-1.0 nneightol=1.2 n_minim_iter=1 energy=-651.9091653951696 free_energy=-651.9091653951696 pbc="T T T"
Si       2.08467926       1.20359013       0.42976372
Si       2.08467926      -1.20359013       3.83418383
Si       2.08467926       1.20359013       2.97465639
Si       2.08467926      -1.20359013      -0.42976372
4
Lattice="2.092155508206951 -3.623719637549525 -1.0465044527470052e-17 2.0921555082069516 3.623719637549525 1.0465044527470073e-17 4.923527105518692e-34 -5.018832794335506e-17 6.760264851436528" Properties=species:S:1:pos:R:3 cutoff=-1.0 nneightol=1.2 n_minim_iter=2 stress="0.07420212000605458 2.711131040143288e-17 1.7448040589186828e-17 2.711131040143288e-17 0.0742021200060547 -8.946171033017574e-18 1.7448040589186828e-17 -8.946171033017574e-18 0.0724049688281923" pbc="T T T"
Si       2.09215551       1.20790655       0.42653539
Si       2.09215551      -1.20790655       3.80666781
Si       2.09215551       1.20790655       2.95359704
Si       2.09215551      -1.20790655      -0.42653539
4
Lattice="2.0908278983271242 -3.621420149785035 -1.1750507695104297e-17 2.0908278983271247 3.621420149785035 1.1750507695104323e-17 7.244850725462846e-34 -4.7758866423611213e-17 6.768852687703322" Properties=species:S:1:pos:R:3 cutoff=-1.0 nneightol=1.2 n_minim_iter=3 stress="0.07376545645723889 1.5362767476688475e-17 6.078890571906795e-17 1.5362767476688475e-17 0.07376545645723899 1.1538762724565356e-17 6.078890571906795e-17 1.1538762724565356e-17 0.07380394532865606" pbc="T T T"
Si       2.09082790       1.20714005       0.42648035
Si       2.09082790      -1.20714005       3.81090669
Si       2.09082790       1.20714005       2.95794600
Si       2.09082790      -1.20714005      -0.42648035
4
Lattice="2.090616865351782 -3.621054629949669 -1.4723823617950635e-17 2.0906168653517825 3.621054629949669 1.472382361795068e-17 -1.7776125785810318e-34 -4.215204883938497e-17 6.770219292213252" Properties=species:S:1:pos:R:3 cutoff=-1.0 nneightol=1.2 n_minim_iter=4 stress="0.07360422778944536 6.650028736700893e-17 -1.150792201808635e-18 6.650028736700893e-17 0.07360422778944523 -4.978271503466159e-17 -1.150792201808635e-18 -4.978271503466159e-17 0.0742691946925162" pbc="T T T"
Si       2.09061687       1.20701821       0.42503157
Si       2.09061687      -1.20701821       3.81014122
Si       2.09061687       1.20701821       2.96007807
Si       2.09061687      -1.20701821      -0.42503157
