4
Lattice="2.0024163269482917 -3.4682868161798934 -1.8295074046442708e-17 2.002416326948291 3.4682868161798934 1.8295074046442708e-17 0.0 -3.503519635141503e-17 6.641793812882295" Properties=species:S:1:pos:R:3 cutoff=-1.0 nneightol=1.2 n_minim_iter=1 energy=-652.4416590847111 free_energy=-652.4416590847111 pbc="T T T"
Si       2.00241633       1.15609561       0.42400541
Si       2.00241633      -1.15609561       3.74490231
Si       2.00241633       1.15609561       2.89689150
Si       2.00241633      -1.15609561      -0.42400541
