4
Lattice="1.8389003437289988 -3.185068825394499 7.907831525882234e-17 1.8389003437289984 3.185068825394499 -7.907831525882226e-17 -1.6636845636532869e-31 1.52079919563345e-16 6.125383541421276" Properties=species:S:1:pos:R:3 cutoff=-1.0 nneightol=1.2 n_minim_iter=1 energy=-652.2306210487798 free_energy=-652.2306210487798 pbc="T T T"
Si       1.83890034       1.06168961       0.40099407
Si       1.83890034      -1.06168961       3.46368585
Si       1.83890034       1.06168961       2.66169770
Si       1.83890034      -1.06168961      -0.40099407
4
Lattice="1.8301387152689488 -3.16989323974465 6.60624962397792e-17 1.8301387152689483 3.16989323974465 -6.606249623977917e-17 -1.7131142118163805e-31 1.7784639101791767e-16 6.184173403126733" Properties=species:S:1:pos:R:3 cutoff=-1.0 nneightol=1.2 n_minim_iter=2 stress="-0.10701263471334103 -4.6431550146409005e-17 -1.656077013106964e-17 -4.6431550146409005e-17 -0.10701263471334184 -1.543910344038215e-16 -1.656077013106964e-17 -1.543910344038215e-16 -0.09899690960722185" pbc="T T T"
Si       1.83013872       1.05663108       0.40726297
Si       1.83013872      -1.05663108       3.49934967
Si       1.83013872       1.05663108       2.68482373
Si       1.83013872      -1.05663108      -0.40726297
4
Lattice="1.827961833858017 -3.1661227705388644 9.290409516748205e-17 1.8279618338580166 3.1661227705388644 -9.290409516748218e-17 -1.1376074920696997e-31 1.2639234551013962e-16 6.198911378293158" Properties=species:S:1:pos:R:3 cutoff=-1.0 nneightol=1.2 n_minim_iter=3 stress="-0.09750805502026312 -2.522197552984036e-16 -2.0442578385332216e-17 -2.522197552984036e-16 -0.09750805502026376 -3.080539737262108e-16 -2.0442578385332216e-17 -3.080539737262108e-16 -0.10001438191613873" pbc="T T T"
Si       1.82796183       1.05537426       0.41897498
Si       1.82796183      -1.05537426       3.51843067
Si       1.82796183       1.05537426       2.68048071
Si       1.82796183      -1.05537426      -0.41897498
4
Lattice="1.8269700320424527 -3.164404919403267 1.200412777639474e-16 1.8269700320424522 3.164404919403267 -1.2004127776394745e-16 -1.08257389952175e-31 7.43755401942094e-17 6.205643574497579" Properties=species:S:1:pos:R:3 cutoff=-1.0 nneightol=1.2 n_minim_iter=4 stress="-0.097596092908253 -7.856448563772092e-17 -4.536929504258191e-17 -7.856448563772092e-17 -0.09759609290825348 -5.221346052076924e-18 -4.536929504258191e-17 -5.221346052076924e-18 -0.0973906724670948" pbc="T T T"
Si       1.82697003       1.05480164       0.41973100
Si       1.82697003      -1.05480164       3.52255279
Si       1.82697003       1.05480164       2.68309078
Si       1.82697003      -1.05480164      -0.41973100
