4
Lattice="1.8094019243663066 -3.133976064315342 1.1888696321233893e-16 1.8094019243663066 3.133976064315342 -1.1888696321233903e-16 1.2560216305375893e-31 2.331465593503463e-16 6.145970228682117" Properties=species:S:1:pos:R:3 cutoff=-1.0 nneightol=1.2 n_minim_iter=1 energy=-651.9903931822398 free_energy=-651.9903931822398 pbc="T T T"
Si       1.80940192       1.04465869       0.41569488
Si       1.80940192      -1.04465869       3.48867999
Si       1.80940192       1.04465869       2.65729024
Si       1.80940192      -1.04465869      -0.41569488
4
Lattice="1.7962056378021136 -3.111119425514921 9.961693520025094e-17 1.7962056378021136 3.111119425514921 -9.96169352002511e-17 1.3173028644427128e-31 2.726745269164187e-16 6.236607857555916" Properties=species:S:1:pos:R:3 cutoff=-1.0 nneightol=1.2 n_minim_iter=2 stress="-0.1411230513258435 -5.3948212571388653e-17 -1.926811651260313e-16 -5.3948212571388653e-17 -0.1411230513258437 2.5371115272578023e-17 -1.926811651260313e-16 2.5371115272578023e-17 -0.12245750711790902" pbc="T T T"
Si       1.79620564       1.03703981       0.42551628
Si       1.79620564      -1.03703981       3.54382021
Si       1.79620564       1.03703981       2.69278765
Si       1.79620564      -1.03703981      -0.42551628
4
Lattice="1.7965150950782196 -3.1116554212399063 1.2329284157416884e-16 1.7965150950782196 3.1116554212399063 -1.2329284157416896e-16 1.3751917595223092e-31 2.2622391874528127e-16 6.234459478772078" Properties=species:S:1:pos:R:3 cutoff=-1.0 nneightol=1.2 n_minim_iter=3 stress="-0.13108822224546718 -3.985355104710472e-17 -1.3844846493644978e-16 -3.985355104710472e-17 -0.13108822224546765 -6.03020064979302e-17 -1.3844846493644978e-16 -6.03020064979302e-17 -0.12756593713660358" pbc="T T T"
Si       1.79651510       1.03721847       0.43332106
Si       1.79651510      -1.03721847       3.55055080
Si       1.79651510       1.03721847       2.68390868
Si       1.79651510      -1.03721847      -0.43332106
4
Lattice="1.7939529745867266 -3.107217698373528 7.191181719821509e-17 1.7939529745867266 3.107217698373528 -7.191181719821512e-17 1.2884974151478725e-31 3.2735459463463897e-16 6.252280283695395" Properties=species:S:1:pos:R:3 cutoff=-1.0 nneightol=1.2 n_minim_iter=4 stress="-0.12168383444763504 1.1042528112943155e-16 -1.5718865801521064e-16 1.1042528112943155e-16 -0.12168383444763498 2.3050601807699875e-17 -1.5718865801521064e-16 2.3050601807699875e-17 -0.12246121272468294" pbc="T T T"
Si       1.79395297       1.03573923       0.44220856
Si       1.79395297      -1.03573923       3.56834870
Si       1.79395297       1.03573923       2.68393158
Si       1.79395297      -1.03573923      -0.44220856
4
Lattice="1.794130897774761 -3.107525870375048 3.7339042605854897e-17 1.794130897774761 3.107525870375048 -3.733904260585491e-17 1.1164375424685357e-31 3.9517622940089035e-16 6.251040273300887" Properties=species:S:1:pos:R:3 cutoff=-1.0 nneightol=1.2 n_minim_iter=5 stress="-0.12269530588485195 -7.051240419114079e-17 1.1395928832356703e-16 -7.051240419114079e-17 -0.12269530588485202 -3.506170253321872e-17 1.1395928832356703e-16 -3.506170253321872e-17 -0.12265855670944552" pbc="T T T"
Si       1.79413090       1.03584196       0.44133339
Si       1.79413090      -1.03584196       3.56685353
Si       1.79413090       1.03584196       2.68418674
Si       1.79413090      -1.03584196      -0.44133339
