4
Lattice="1.8778113952042965 -3.2524647435256417 -1.3596587814691765e-17 1.877811395204296 3.2524647435256417 1.3596587814691808e-17 -6.780773632582499e-32 -2.595952544270233e-17 6.209825760093483" Properties=species:S:1:pos:R:3 cutoff=-1.0 nneightol=1.2 n_minim_iter=1 stress="-0.023105847850428726 -1.1674218419594095e-16 2.618675753341633e-17 -1.1674218419594095e-16 -0.02310584785042849 7.781942351088891e-17 2.618675753341633e-17 7.781942351088891e-17 -0.01719008069691887" pbc="T T T"
Si       1.87781140       1.08415491       0.39822962
Si       1.87781140      -1.08415491       3.50314250
Si       1.87781140       1.08415491       2.70668326
Si       1.87781140      -1.08415491      -0.39822962
