4
Lattice="1.927060325371911 -3.3377663927943617 -1.5893613753857265e-17 1.927060325371911 3.3377663927943617 1.589361375385724e-17 4.077332710121222e-32 -3.0354125047374283e-17 6.374571575404938" Properties=species:S:1:pos:R:3 cutoff=-1.0 nneightol=1.2 n_minim_iter=1 stress="0.00028151379322490975 3.610503587341264e-17 -6.31243369521502e-17 3.610503587341264e-17 0.0002815137932244711 -5.433688606878772e-17 -6.31243369521502e-17 -5.433688606878772e-17 1.411667941636131e-05" pbc="T T T"
Si       1.92706033       1.11258880       0.40747591
Si       1.92706033      -1.11258880       3.59476170
Si       1.92706033       1.11258880       2.77980988
Si       1.92706033      -1.11258880      -0.40747591
