4
Lattice="1.6906417212036424 -2.928277358520405 -2.463174930690137e-16 1.6906417212036426 2.928277358520405 2.463174930690133e-16 2.694781517618708e-31 -5.706746397752777e-17 6.418597762222507" Properties=species:S:1:pos:R:3 cutoff=-1.0 nneightol=1.2 n_minim_iter=4 stress="-0.20414160798129063 -4.2243773917878523e-16 -2.3245129009967615e-16 -4.2243773917878523e-16 -0.20414160798129077 -1.753366939839515e-16 -2.3245129009967615e-16 -1.753366939839515e-16 -0.20243079440745737" pbc="T T T"
Si       1.69064172       0.97609245       0.53186786
Si       1.69064172      -0.97609245       3.74116674
Si       1.69064172       0.97609245       2.67743102
Si       1.69064172      -0.97609245      -0.53186786
