4
Lattice="1.657775980859515 -2.8713522264160094 -1.2260173471752199e-15 1.657775980859515 2.8713522264160094 1.226017347175219e-15 7.0245641005298335e-31 1.6109834218990345e-15 6.460277890716736" Properties=species:S:1:pos:R:3 cutoff=-1.0 nneightol=1.2 n_minim_iter=6 stress="-0.30392564548875733 -9.533424895128051e-17 -1.963116108967674e-17 -9.533424895128051e-17 -0.30392564548875733 1.3045987345614895e-15 -1.963116108967674e-17 1.3045987345614895e-15 -0.30424973600749666" pbc="T T T"
Si       1.65777598       0.95711741       0.56180541
Si       1.65777598      -0.95711741       3.79194436
Si       1.65777598       0.95711741       2.66833353
Si       1.65777598      -0.95711741      -0.56180541
