4
Lattice="1.941911013627993 -3.363488539381262 1.15947782627874e-17 1.941911013627993 3.363488539381262 -1.1594778262787398e-17 9.773116084996575e-34 2.2134009337389125e-17 6.405116894043127" Properties=species:S:1:pos:R:3 cutoff=-1.0 nneightol=1.2 n_minim_iter=2 stress="0.012236731982943054 8.483267023835418e-17 -2.3966894109690084e-17 8.483267023835418e-17 0.012236731982943299 3.038303892414826e-16 -2.3966894109690084e-17 3.038303892414826e-16 0.012318365855513783" pbc="T T T"
Si       1.94191101       1.12116285       0.40110469
Si       1.94191101      -1.12116285       3.60366313
Si       1.94191101       1.12116285       2.80145376
Si       1.94191101      -1.12116285      -0.40110469
