4
Lattice="2.041901808865019 -3.5366776770210064 1.0842282322646886e-17 2.0419018088650187 3.5366776770210064 -1.0842282322646877e-17 2.9446693693665097e-32 2.5787162248321825e-17 6.782243573580601" Properties=species:S:1:pos:R:3 cutoff=-1.0 nneightol=1.2 n_minim_iter=2 stress="0.06588513732267112 -3.246030232383913e-16 -1.3538608571604333e-16 -3.246030232383913e-16 0.0658851373226709 1.1922116309123084e-17 -1.3538608571604333e-16 1.1922116309123084e-17 0.06626144102136096" pbc="T T T"
Si       2.04190181       1.17889256       0.42964662
Si       2.04190181      -1.17889256       3.82076841
Si       2.04190181       1.17889256       2.96147516
Si       2.04190181      -1.17889256      -0.42964662
