4
Lattice="1.8593300660086656 -3.220454142367404 3.2335840830575608e-18 1.8593300660086656 3.220454142367404 -3.2335840830576105e-18 2.960536613866746e-33 3.6687134032981056e-17 6.134672315315521" Properties=species:S:1:pos:R:3 cutoff=-1.0 nneightol=1.2 n_minim_iter=4 stress="-0.06367517765245015 -1.976360713147396e-16 -5.844003699973084e-18 -1.976360713147396e-16 -0.06367517765245004 -4.441213580822771e-17 -5.844003699973084e-18 -4.441213580822771e-17 -0.06367379181270547" pbc="T T T"
Si       1.85933007       1.07348471       0.38811530
Si       1.85933007      -1.07348471       3.45545146
Si       1.85933007       1.07348471       2.67922085
Si       1.85933007      -1.07348471      -0.38811530
