2
Lattice="2.9177295944684936 1.0108410156377572e-16 2.9177295944684936 2.9177295944684936 2.9177295944684936 -2.7507746893611617e-18 3.595988261453061e-17 2.9177295944684936 2.9177295944684936" Properties=species:S:1:pos:R:3 n_minim_iter=1 energy=-325.98050079893125 free_energy=-325.98050079893125 pbc="T T T"
Si       0.00000000       0.00000000       0.00000000
Si       1.45886480       1.45886480       1.45886480
