2
Lattice="2.812682945291496 9.744478345339531e-17 2.812682945291496 2.812682945291496 2.812682945291496 -2.651738896494644e-18 3.466522351362693e-17 2.812682945291496 2.812682945291496" Properties=species:S:1:pos:R:3 n_minim_iter=1 stress="0.031000301257028837 4.509574118325268e-17 -3.2096794017841193e-16 4.509574118325268e-17 0.0310003012570286 8.859517294408933e-18 -3.2096794017841193e-16 8.859517294408933e-18 0.03100030125703085" pbc="T T T"
Si      -0.00000000       0.00000000       0.00000000
Si       1.40634147       1.40634147       1.40634147
