2
Lattice="2.937852503421567 1.017812553288907e-16 2.937852503421567 2.937852503421567 2.937852503421567 -2.7697461487895385e-18 3.6207889642045174e-17 2.937852503421567 2.937852503421567" Properties=species:S:1:pos:R:3 n_minim_iter=1 stress="0.07081919645703176 -3.66010946139674e-18 3.047810775798594e-17 -3.66010946139674e-18 0.07081919645703176 7.758063792941876e-17 3.047810775798594e-17 7.758063792941876e-17 0.07081919645703232" pbc="T T T"
Si       0.00000000       0.00000000       0.00000000
Si       1.46892625       1.46892625       1.46892625
