2
Lattice="2.5488715751106388 8.830509642153441e-17 2.5488715751106388 2.5488715751106388 2.5488715751106388 -2.403023031516972e-18 3.141385096626439e-17 2.5488715751106388 2.5488715751106388" Properties=species:S:1:pos:R:3 n_minim_iter=1 stress="-0.1764920946527545 3.172635458200394e-16 1.1617640668327123e-16 3.172635458200394e-16 -0.17649209465275426 -1.8437373828905084e-17 1.1617640668327123e-16 -1.8437373828905084e-17 -0.176492094652748" pbc="T T T"
Si       0.00000000       0.00000000       0.00000000
Si       1.27443579       1.27443579       1.27443579
