2
Lattice="2.675255112465763 9.268362634089854e-17 2.675255112465763 2.675255112465763 2.675255112465763 -2.5221747981397225e-18 3.297147891654307e-17 2.675255112465763 2.675255112465763" Properties=species:S:1:pos:R:3 n_minim_iter=1 stress="-0.02044682811716419 1.0228041187556707e-16 1.1743901392215252e-17 1.0228041187556707e-16 -0.02044682811716406 -3.19345900768595e-17 1.1743901392215252e-17 -3.19345900768595e-17 -0.020446828117167852" pbc="T T T"
Si       0.00000000       0.00000000       0.00000000
Si       1.33762756       1.33762756       1.33762756
