2
Lattice="2.52203935532082 8.737550005470261e-17 2.52203935532082 2.52203935532082 2.52203935532082 -2.3777261735774496e-18 3.108315429178215e-17 2.52203935532082 2.52203935532082" Properties=species:S:1:pos:R:3 n_minim_iter=1 stress="-0.216488782461556 2.7711092521687444e-16 2.872318584805008e-16 2.7711092521687444e-16 -0.21648878246155612 -2.2131522680703696e-16 2.872318584805008e-16 -2.2131522680703696e-16 -0.2164887824615492" pbc="T T T"
Si       0.00000000       0.00000000       0.00000000
Si       1.26101968       1.26101968       1.26101968
