2
Lattice="3.340565096800739 0.0 0.0 0.0 3.340565096800739 0.0 0.0 3.5471584031930167e-34 3.340565096800739" Properties=species:S:1:pos:R:3 Minim_Constant_Volume=F n_minim_iter=1 stress="0.07689357504351874 -1.031152615742959e-16 -9.432791175983228e-17 -1.031152615742959e-16 0.07689357504351897 -1.1968546255661443e-16 -9.432791175983228e-17 -1.1968546255661443e-16 0.07689357504351911" pbc="T T T"
Ti       0.00000000       0.00000000       0.00000000
Ti       1.67028255       1.67028255       1.67028255
