2
Lattice="2.876257327600344 0.0 0.0 0.0 2.8762573276003445 0.0 0.0 0.0 2.876257327600344" Properties=species:S:1:pos:R:3 Minim_Constant_Volume=F n_minim_iter=1 stress="-0.36081171943204127 1.210923406610581e-16 8.099553911766138e-17 1.210923406610581e-16 -0.36081171943203766 9.171801618947938e-17 8.099553911766138e-17 9.171801618947938e-17 -0.36081171943204027" pbc="T T T"
Ti       0.00000000       0.00000000       0.00000000
Ti       1.43812866       1.43812866       1.43812866
