2
Lattice="3.2429740366644406 0.0 0.0 0.0 3.242974036664442 0.0 0.0 0.0 3.2429740366644406" Properties=species:S:1:pos:R:3 Minim_Constant_Volume=F n_minim_iter=1 stress="0.036310972561142095 1.1162565475008631e-17 -2.0805643441437492e-17 1.1162565475008631e-17 0.036310972561143746 -2.936960528633211e-17 -2.0805643441437492e-17 -2.936960528633211e-17 0.03631097256114172" pbc="T T T"
Ti       0.00000000       0.00000000       0.00000000
Ti       1.62148702       1.62148702       1.62148702
