2
Lattice="3.3640909782272583 0.0 0.0 0.0 3.3640909782272583 0.0 0.0 0.0 3.3640909782272583" Properties=species:S:1:pos:R:3 Minim_Constant_Volume=F n_minim_iter=1 stress="0.07926371142915985 1.750776370280309e-17 -3.7178481342978884e-17 1.750776370280309e-17 0.07926371142915993 -2.5242759153456526e-17 -3.7178481342978884e-17 -2.5242759153456526e-17 0.07926371142916003" pbc="T T T"
Ti       0.00000000       0.00000000       0.00000000
Ti       1.68204549       1.68204549       1.68204549
