2
Lattice="3.139126777195372 0.0 0.0 0.0 3.139126777195372 0.0 0.0 0.0 3.139126777195372" Properties=species:S:1:pos:R:3 Minim_Constant_Volume=F n_minim_iter=1 stress="-0.0004598017486301444 4.0420309828576364e-17 3.884833294988638e-17 4.0420309828576364e-17 -0.00045980174863020034 1.1154201156617623e-16 3.884833294988638e-17 1.1154201156617623e-16 -0.0004598017486301444" pbc="T T T"
Ti       0.00000000       0.00000000       0.00000000
Ti       1.56956339       1.56956339       1.56956339
