2
Lattice="3.3872923388307434 0.0 0.0 0.0 3.3872923388307434 0.0 0.0 0.0 3.3872923388307434" Properties=species:S:1:pos:R:3 Minim_Constant_Volume=F n_minim_iter=1 stress="0.07913574931008674 -6.551472388182321e-17 -1.6538260376152273e-17 -6.551472388182321e-17 0.07913574931008664 -3.5975534742832316e-17 -1.6538260376152273e-17 -3.5975534742832316e-17 0.0791357493100866" pbc="T T T"
Ti       0.00000000       0.00000000       0.00000000
Ti       1.69364617       1.69364617       1.69364617
