2
Lattice="4.485262646772672 -7.269539335871728e-18 -8.987097680161466e-17 -7.269539335870678e-18 4.485262646772672 2.7459542159550653e-16 2.242631323386336 2.242631323386336 1.2203231883679815" Properties=species:S:1:pos:R:3 cutoff=-1.0 nneightol=1.2 n_minim_iter=1 energy=-325.0962554160757 free_energy=-325.0962554160757 pbc="T T T"
Si      -0.00000000      -1.12131566      -0.30508080
Si      -0.00000000       1.12131566       0.30508080
