2
Lattice="5.023862984625363 -1.6102363801113063e-16 2.4656522893956443e-15 -1.6102363801110543e-16 5.023862984625363 -5.082845225563052e-15 2.5119314923126805 2.5119314923126823 1.5198302202836693" Properties=species:S:1:pos:R:3 cutoff=-1.0 nneightol=1.2 n_minim_iter=1 energy=-325.4502827245606 free_energy=-325.4502827245606 pbc="T T T"
Si      -0.00000000      -1.25596574      -0.37995756
Si      -0.00000000       1.25596575       0.37995756
