2
Lattice="4.990144767436789 -1.5994290989104267e-16 2.4491037888374537e-15 -1.5994290989102265e-16 4.990144767436789 -5.048731142480782e-15 2.4950723837183935 2.495072383718396 1.5096297101156746" Properties=species:S:1:pos:R:3 cutoff=-1.0 nneightol=1.2 n_minim_iter=1 stress="0.056747221078521044 2.6961794258677436e-16 -1.4419233771896743e-16 2.6961794258677436e-16 0.05674722107852147 3.2643894541715997e-17 -1.4419233771896743e-16 3.2643894541715997e-17 0.04487065655402661" pbc="T T T"
Si      -0.00000000      -1.24753619      -0.37740743
Si      -0.00000000       1.24753619       0.37740743
