2
Lattice="5.023862984625363 -1.6102363801113063e-16 2.4656522893956447e-15 -1.6102363801111046e-16 5.023862984625363 -5.0828452255630505e-15 2.5119314923126805 2.511931492312683 1.5198302202836693" Properties=species:S:1:pos:R:3 cutoff=-1.0 nneightol=1.2 n_minim_iter=1 stress="0.056747221078521044 2.6961794258677436e-16 -1.4419233771896743e-16 2.6961794258677436e-16 0.05674722107852147 3.2643894541715997e-17 -1.4419233771896743e-16 3.2643894541715997e-17 0.04487065655402661" pbc="T T T"
Si      -0.00000000      -1.25596574      -0.37995756
Si      -0.00000000       1.25596575       0.37995756
