12
Lattice="6.034244423377625 -0.0009794362752848233 -0.00032134672139956196 -0.0009795580965488823 6.033606245043273 -0.00029439509131985747 -0.0003906362310382819 -0.00036529363132315883 7.548417597970806" Properties=species:S:1:pos:R:3:forces:R:3 cutoff=-1.0 nneightol=1.2 n_minim_iter=1 energy=-1953.276227098947 stress="0.08653291294058509 -8.279724582466534e-05 -3.2764167186661366e-05 -8.279724582466534e-05 0.08645298904430847 -3.0453388568621416e-05 -3.2764167186661366e-05 -3.0453388568621416e-05 0.08530348034660096" free_energy=-1953.276227098947 pbc="T T T"
Si       0.44007508       0.44001417      -0.00005063       0.01435680       0.01481183      -0.00080878
Si      -0.44026295      -0.44018140       3.77422970      -0.01419226      -0.01524100       0.00064084
Si       2.57616560       3.45619410       5.66099327      -0.01621913       0.01624609       0.00058479
Si       3.45672719       2.57606612       1.88677366       0.01555257      -0.01581697       0.00047303
Si       0.78730783       3.98357020      -0.23601189       0.03197932      -0.00325032      -0.06812008
Si       0.96652307       2.22869704       1.65115589      -0.00262440      -0.02992304      -0.06695127
Si       2.04910190       5.24520947       4.00964155       0.00259562      -0.03166125       0.06731564
Si       2.22868296       0.96621309       5.89695037      -0.03088972      -0.00310238       0.06812608
Si       3.80415795       5.06601458       2.12244937       0.02982466       0.00298836       0.06737010
Si       3.98394062       0.78721151       0.23554364      -0.00243197       0.03072808       0.06758149
Si       5.06637120       3.80357644       5.42508373       0.00294043       0.03114782      -0.06796594
Si       5.24577603       2.04890490       3.53804183      -0.03089192       0.00307278      -0.06824591
12
Lattice="6.0239133639191165 0.0009804276749427496 0.00045440645789664706 0.0009804063427391362 6.025166597363365 0.0004266962606720565 0.0005817270177806172 0.000538526975433377 7.571954687036817" Properties=species:S:1:pos:R:3:forces:R:3 cutoff=-1.0 nneightol=1.2 n_minim_iter=2 energy=-1953.276999441687 stress="0.08537823382957477 8.235708704648638e-05 4.7493273672054576e-05 8.235708704648638e-05 0.08553738064249657 4.412219417386937e-05 4.7493273672054576e-05 4.412219417386937e-05 0.0864251867614783" free_energy=-1953.276999441687 pbc="T T T"
Si       0.43966929       0.43975291       0.00004700       0.01997185       0.01978165       0.00186097
Si      -0.43936865      -0.43947437       3.78589813      -0.02053839      -0.01951202      -0.00022531
Si       2.57337454       3.45310524       5.67939886      -0.01893507       0.01777784      -0.00047767
Si       3.45210998       2.57358514       1.89341705       0.01951590      -0.01850254      -0.00044464
Si       0.78767844       3.97817927      -0.23714581       0.03118091      -0.00816511      -0.07022167
Si       0.96576662       2.22566405       1.65573615      -0.00915694      -0.03367472      -0.07199828
Si       2.04784946       5.23856635       4.02400044       0.00888025      -0.03125645       0.07120853
Si       2.22549981       0.96624649       5.91671678      -0.03160827      -0.00781516       0.06939803
Si       3.79998818       5.06046030       2.13112909       0.03344801       0.00824237       0.07075553
Si       3.97737148       0.78787015       0.23785374      -0.00908123       0.03260623       0.07082420
Si       5.05967244       3.80099426       5.44213361       0.00892013       0.03213264      -0.07081448
Si       5.23747504       2.04820871       3.54901657      -0.03259717       0.00838528      -0.06986521
12
Lattice="6.030824291420972 -0.000988470214946538 -0.00194418692245057 -0.0009899936897371166 6.0215502210495115 -0.001799162737411583 -0.002419745846937399 -0.0022465038566516437 7.567821393823092" Properties=species:S:1:pos:R:3:forces:R:3 cutoff=-1.0 nneightol=1.2 n_minim_iter=3 energy=-1953.280163546701 stress="0.08554157377420009 -8.348611101708625e-05 -0.00020127030037274328 -8.348611101708625e-05 0.0843751106734078 -0.00018797413599802118 -0.00020127030037274328 -0.00018797413599802118 0.08444336231322182" free_energy=-1953.280163546701 pbc="T T T"
Si       0.44206042       0.44138404      -0.00020990      -0.03518418      -0.03146527      -0.00985957
Si      -0.44328913      -0.44250217       3.78418743       0.03735169       0.02965064      -0.00044730
Si       2.57088911       3.45008343       5.67399760       0.03358262      -0.02739494       0.00497420
Si       3.45653859       2.56821112       1.89005367      -0.03673870       0.03053047       0.00471376
Si       0.79103001       3.97492730      -0.24687886      -0.00252352       0.00587220      -0.02603684
Si       0.96476056       2.21969724       1.64549023       0.01344273       0.01154603      -0.01502510
Si       2.04759830       5.22963410       4.02715784      -0.01222226       0.00400724       0.01756231
Si       2.22176285       0.96209534       5.92027064       0.00263379       0.00544508       0.02920250
Si       3.80553883       5.05608565       2.13465954      -0.01021637      -0.00694890       0.02359465
Si       3.98086621       0.78968775       0.24394045       0.01310487      -0.00987908       0.01892420
Si       5.06280950       3.79872982       5.42763425      -0.01207593      -0.00442953      -0.02060716
Si       5.23771737       2.04466586       3.53617667       0.00884524      -0.00693395      -0.02699564
12
Lattice="6.023412425938924 -0.0004578618708998162 0.00016626380711041533 -0.0004573225275700981 6.027179280870176 0.0001732227046147506 0.00022124757654106136 0.00022123578908687328 7.5700554357228285" Properties=species:S:1:pos:R:3:forces:R:3 cutoff=-1.0 nneightol=1.2 n_minim_iter=4 energy=-1953.280501051721 stress="0.08451928573887421 -1.2058739080414717e-08 5.905945796131054e-07 -1.2058739080414717e-08 0.08498462580172143 4.41551931615185e-06 5.905945796131054e-07 4.41551931615185e-06 0.0843129856133381" free_energy=-1953.280501051721 pbc="T T T"
Si       0.44159209       0.44190183       0.00002738      -0.03580268      -0.03644315       0.00149010
Si      -0.44148840      -0.44180007       3.78500331       0.03706289       0.03887888       0.00145326
Si       2.56996311       3.45547352       5.67774193       0.03611149      -0.03831694      -0.00214159
Si       3.45320368       2.57146777       1.89269887      -0.03564734       0.03803132      -0.00210223
Si       0.79084778       3.97856965      -0.24678425      -0.01167827       0.00888229      -0.01395941
Si       0.96433356       2.22192601       1.64570384       0.00883693       0.01163182      -0.01797614
Si       2.04696527       5.23550615       4.03212928      -0.00773100       0.01123300       0.01762281
Si       2.22066031       0.96506143       5.92454045       0.00933882       0.00999380       0.01454024
Si       3.80252857       5.06189951       2.13967317      -0.01074257      -0.01092589       0.01419111
Si       3.97611798       0.79133245       0.24702451       0.00833798      -0.01036857       0.01800942
Si       5.05883678       3.80501474       5.43088000      -0.00865540      -0.01178869      -0.01704170
Si       5.23221040       2.04824965       3.53830842       0.01056916      -0.01080785      -0.01408587
12
Lattice="6.022218954199431 -0.0004605870748496826 0.0013316645344540413 -0.00046058109130726606 6.022720681829381 0.0011714108765506818 0.001679741036780107 0.0014708850860707286 7.577161496566599" Properties=species:S:1:pos:R:3:forces:R:3 cutoff=-1.0 nneightol=1.2 n_minim_iter=5 energy=-1953.280804709198 stress="0.08430572668662051 -3.881536368986593e-05 0.00013972524518840386 -3.881536368986593e-05 0.08437064036108212 0.00012195200487270435 0.00013972524518840386 0.00012195200487270435 0.08447499118208399" free_energy=-1953.280804709198 pbc="T T T"
Si       0.44110111       0.44118179       0.00017194      -0.03591233      -0.03542613       0.00336336
Si      -0.44024395      -0.44042882       3.78841783       0.03437183       0.03633774      -0.00302579
Si       2.57094617       3.45344069       5.68413382       0.03595014      -0.03592587      -0.00073140
Si       3.45247531       2.57029554       1.89556119      -0.03366390       0.03391891      -0.00023358
Si       0.79097401       3.97563726      -0.24769187      -0.01502676       0.00675514      -0.01220461
Si       0.96454116       2.22025017       1.64630113       0.00512231       0.01062141      -0.01413876
Si       2.04726965       5.23196720       4.03868056      -0.00586846       0.01434113       0.01308121
Si       2.22099672       0.96539551       5.93219509       0.01580077       0.00646655       0.01010828
Si       3.80250453       5.05841888       2.14473595      -0.01038599      -0.00539234       0.01389565
Si       3.97545434       0.79110890       0.24967025       0.00515938      -0.01059691       0.01205873
Si       5.05880367       3.80342110       5.43607672      -0.00615883      -0.01538042      -0.01041139
Si       5.23152798       2.04723123       3.54148950       0.01061184      -0.00571922      -0.01176167
12
Lattice="6.019662442038221 0.001520870187871384 -0.0016998302113168898 0.0015206106910155555 6.019762350406436 -0.0014322029569917105 -0.0021125601866774633 -0.0017866241765158474 7.5841055472317445" Properties=species:S:1:pos:R:3:forces:R:3 cutoff=-1.0 nneightol=1.2 n_minim_iter=6 energy=-1953.281191067936 stress="0.08385017331769012 0.0001276775570120373 -0.00017536619332092764 0.0001276775570120373 0.08386592640181069 -0.00014923180478971517 -0.00017536619332092764 -0.00014923180478971517 0.0846054801143866" free_energy=-1953.281191067936 pbc="T T T"
Si       0.43964027       0.43972802      -0.00020809      -0.02331756      -0.02568288      -0.00385883
Si      -0.44067952      -0.44055601       3.79225323       0.02491898       0.02358939       0.00403557
Si       2.56955523       3.44874277       5.68654573       0.02500702      -0.02514744       0.00008949
Si       3.44953374       2.57072941       1.89444819      -0.02786872       0.02773106      -0.00052491
Si       0.79219133       3.97428153      -0.25241039      -0.01016344      -0.00341684      -0.00702135
Si       0.96429179       2.21861099       1.64396255      -0.00311764       0.01428653      -0.00517133
Si       2.04585666       5.22820610       4.04147456       0.00411397       0.01039683       0.00679769
Si       2.21726277       0.96334606       5.93844899       0.00859437      -0.00398515       0.00995740
Si       3.80167007       5.05601943       2.14499535      -0.01480529       0.00291852       0.00549348
Si       3.97414711       0.79210990       0.24993264      -0.00350209      -0.01517150       0.00785904
Si       5.05492583       3.80098031       5.43452656       0.00413770      -0.00856742      -0.01024055
Si       5.22801347       2.04617777       3.53884547       0.01600271       0.00304891      -0.00741571
12
Lattice="6.02145486909836 0.000552495919839325 0.0008951844406069662 0.0005519199916505002 6.019033670129899 0.00076487071907411 0.0011339390060245425 0.0009626204555005228 7.582764688908772" Properties=species:S:1:pos:R:3:forces:R:3 cutoff=-1.0 nneightol=1.2 n_minim_iter=7 energy=-1953.281655355675 stress="0.08387367276296574 4.633485572304275e-05 9.434173024802782e-05 4.633485572304275e-05 0.08357144957370964 7.860322277284075e-05 9.434173024802782e-05 7.860322277284075e-05 0.08439279335184356" free_energy=-1953.281655355675 pbc="T T T"
Si       0.43753539       0.43743668       0.00009809      -0.01159638      -0.00983630       0.00106075
Si      -0.43691206      -0.43686559       3.79126358       0.01012761       0.00945848      -0.00319271
Si       2.57438023       3.44779383       5.68789247       0.01235239      -0.01089359       0.00107217
Si       3.44876288       2.57274915       1.89652243      -0.01107749       0.00960968       0.00142459
Si       0.79141061       3.97384935      -0.25286628      -0.01080508      -0.01408805      -0.00414179
Si       0.96523383       2.21910231       1.64260304      -0.01404761       0.00734060      -0.00285220
Si       2.04708306       5.22897360       4.04586014       0.01334495       0.01071203       0.00206399
Si       2.22052085       0.96530400       5.94103907       0.01118446      -0.01458239       0.00264692
Si       3.80261777       5.05526938       2.15038453      -0.00698775       0.01563710       0.00540277
Si       3.97560062       0.79117578       0.25421619      -0.01394167      -0.00844808       0.00117456
Si       5.05784941       3.80140776       5.43480672       0.01335690      -0.01040684      -0.00084449
Si       5.23105408       2.04606636       3.53892140       0.00808967       0.01549735      -0.00381457
12
Lattice="6.022736223486212 -0.0010331259891757994 8.872448324064308e-05 -0.0010331875859827114 6.022423649681649 0.00010877561163410415 0.00012468056800040293 0.00014125116409941072 7.576883930595712" Properties=species:S:1:pos:R:3:forces:R:3 cutoff=-1.0 nneightol=1.2 n_minim_iter=8 energy=-1953.28187907552 stress="0.08389847574953774 -8.669839793388313e-05 1.0827650309355592e-05 -8.669839793388313e-05 0.08386459164927312 1.0040652754584558e-05 1.0827650309355592e-05 1.0040652754584558e-05 0.08406578230405919" free_energy=-1953.28187907552 pbc="T T T"
Si       0.43599193       0.43607530      -0.00001096      -0.00238147      -0.00287558       0.00048355
Si      -0.43586172      -0.43588633       3.78840621       0.00163253       0.00156930      -0.00009290
Si       2.57480446       3.44690935       5.68275858       0.00053649      -0.00075542       0.00019915
Si       3.44703836       2.57460632       1.89431231      -0.00067660       0.00064005       0.00015280
Si       0.79009295       3.97584953      -0.25428190      -0.00569139      -0.01778440      -0.00116243
Si       0.96461206       2.22037416       1.63988075      -0.01920193       0.00592926      -0.00017972
Si       2.04564654       5.23140907       4.04295090       0.01866436       0.00558572       0.00068902
Si       2.22037422       0.96457115       5.93710791       0.00752654      -0.01855060       0.00019346
Si       3.80138712       5.05692232       2.14874667      -0.00627642       0.01914826       0.00087056
Si       3.97616798       0.79010307       0.25447160      -0.01895952      -0.00552648       0.00035203
Si       5.05722418       3.80115725       5.42844292       0.01902608      -0.00631634      -0.00054237
Si       5.23159817       2.04549707       3.53418020       0.00580133       0.01893622      -0.00096316
12
Lattice="6.024263739284296 0.001097414561180748 0.00019157680566677719 0.0010971185758575672 6.02390461918857 0.0001752509976681262 0.00025292571696075024 0.0002240246469482232 7.573100474859379" Properties=species:S:1:pos:R:3:forces:R:3 cutoff=-1.0 nneightol=1.2 n_minim_iter=9 energy=-1953.281942157933 stress="0.08405485418276867 9.208584472357635e-05 2.1299082781774258e-05 9.208584472357635e-05 0.08401455346129177 1.699244932004488e-05 2.1299082781774258e-05 1.699244932004488e-05 0.0838918121747321" free_energy=-1953.281942157933 pbc="T T T"
Si       0.43569674       0.43577062       0.00000317       0.00130121       0.00101838       0.00064622
Si      -0.43550542      -0.43555311       3.78650577      -0.00210194      -0.00211249      -0.00034003
Si       2.57730589       3.44819173       5.68000144      -0.00015312       0.00003653       0.00019331
Si       3.44831916       2.57701839       1.89345164       0.00020186      -0.00025843       0.00024464
Si       0.79137292       3.97680039      -0.25426244      -0.00475565      -0.01697430      -0.00062218
Si       0.96535256       2.22161353       1.63895032      -0.01809408       0.00282969      -0.00044690
Si       2.04840274       5.23378284       4.04118833       0.01769600       0.00461274       0.00016678
Si       2.22171440       0.96534565       5.93434849       0.00470319      -0.01746281       0.00022387
Si       3.80384675       5.05985095       2.14795491      -0.00313972       0.01809249       0.00106591
Si       3.97714193       0.79138686       0.25458186      -0.01801449      -0.00434392      -0.00023707
Si       5.06026044       3.80360757       5.42569855       0.01785428      -0.00350303      -0.00045251
Si       5.23403435       2.04820286       3.53236425       0.00450246       0.01806514      -0.00044204
12
Lattice="6.024318005725164 -0.0012678774131101949 -0.0008163414568872257 -0.0012675338240105793 6.026329634577925 -0.0006613743096749049 -0.0010081056867711114 -0.0008229962312739194 7.569985139765651" Properties=species:S:1:pos:R:3:forces:R:3 cutoff=-1.0 nneightol=1.2 n_minim_iter=10 energy=-1953.28204782388 stress="0.08405581849780298 -0.00010634218284359578 -8.447679863868605e-05 -0.00010634218284359578 0.0843108282593943 -6.930994996583215e-05 -8.447679863868605e-05 -6.930994996583215e-05 0.08374980792608597" free_energy=-1953.28204782388 pbc="T T T"
Si       0.43471178       0.43492747      -0.00010135       0.00230560      -0.00003011      -0.00060234
Si      -0.43519087      -0.43530836       3.78507880      -0.00157481      -0.00089508       0.00303378
Si       2.57584487       3.44695118       5.67676047      -0.00425269       0.00287843      -0.00088464
Si       3.44620039       2.57726560       1.89174357       0.00289540      -0.00159187      -0.00121107
Si       0.78913972       3.97688115      -0.25511391       0.00275322      -0.01015644      -0.00010448
Si       0.96289507       2.22256979       1.63756651      -0.01169614       0.00061152      -0.00064538
Si       2.04699749       5.23523726       4.03870660       0.01172879      -0.00279699       0.00170319
Si       2.22111602       0.96275667       5.93164223      -0.00139174      -0.01051930       0.00090433
Si       3.80085979       5.06141520       2.14601159      -0.00152090       0.01011213      -0.00131362
Si       3.97550664       0.78940183       0.25393077      -0.01151825       0.00043483       0.00233944
Si       5.05922065       3.80171346       5.42182880       0.01204295       0.00199115      -0.00288522
Si       5.23341433       2.04779406       3.52949048       0.00022858       0.00996172      -0.00033400
12
Lattice="6.023114020090155 0.0006518672363828124 4.159910456346769e-06 0.0006516851009227631 6.023176596856807 -2.9140829468156523e-05 1.8665943542167786e-05 -3.1532192139243313e-05 7.575461422051764" Properties=species:S:1:pos:R:3:forces:R:3 cutoff=-1.0 nneightol=1.2 n_minim_iter=11 energy=-1953.282194516642 stress="0.08392564464581238 5.472850418641985e-05 -4.68920847213147e-07 5.472850418641985e-05 0.08392916776739655 -2.444350873638768e-06 -4.68920847213147e-07 -2.444350873638768e-06 0.08386533664931572" free_energy=-1953.282194516642 pbc="T T T"
Si       0.43430109       0.43429266       0.00003383      -0.00170288      -0.00129408      -0.00028457
Si      -0.43431817      -0.43440525       3.78775561       0.00221219       0.00244150      -0.00015460
Si       2.57760460       3.44611957       5.68158132       0.00323338      -0.00257343      -0.00012358
Si       3.44614859       2.57767100       1.89384792      -0.00292513       0.00276749       0.00007060
Si       0.78991675       3.97320857      -0.25585865       0.00332282      -0.00111576       0.00132383
Si       0.96167607       2.22217185       1.63807390      -0.00017636      -0.00377056       0.00034909
Si       2.05072091       5.23385709       4.04352997       0.00023963      -0.00332539      -0.00103292
Si       2.22217822       0.96169974       5.93738542      -0.00423844      -0.00064384      -0.00048652
Si       3.80166835       5.06212942       2.14967840       0.00362383       0.00028063      -0.00112443
Si       3.97305777       0.78995753       0.25579340      -0.00018518       0.00322618      -0.00077844
Si       5.06209962       3.80162740       5.42573185       0.00006539       0.00372786       0.00112601
Si       5.23385871       2.05067085       3.53189855      -0.00346926       0.00027939       0.00111555
