12
Lattice="5.795788174970698 -1.0038073761649598e-05 1.2374875253132453e-05 -1.00372041619658e-05 5.7958711387539354 -5.407561853179985e-06 1.5066655376020407e-05 -6.537090340041129e-06 7.035954021769923" Properties=species:S:1:pos:R:3:forces:R:3 cutoff=-1.0 nneightol=1.2 n_minim_iter=1 energy=-1955.739939141115 stress="0.036560181015096706 -1.854719550677736e-08 2.4113388013192547e-07 -1.854719550677736e-08 0.036577081711930796 -2.7033797882263797e-07 2.4113388013192547e-07 -2.7033797882263797e-07 0.03584287252963319" free_energy=-1955.739939141115 pbc="T T T"
Si       0.45918730       0.45919018       0.00000199       0.00399714       0.00375416      -0.00001785
Si      -0.45917305      -0.45919388       3.51797805      -0.00402036      -0.00383242       0.00000344
Si       2.43871713       3.35711756       5.27696823      -0.00399736       0.00385049      -0.00008398
Si       3.35707558       2.43873860       1.75899412       0.00402693      -0.00385884      -0.00000935
Si       0.73274619       3.85317089      -0.10935841       0.03218649       0.00054740      -0.05790952
Si       0.95522473       2.16516837       1.64962900       0.00033946      -0.03231837      -0.05792835
Si       1.94266530       5.06310242       3.62733509      -0.00025376      -0.03234117       0.05798137
Si       2.16515413       0.95522674       5.38632545      -0.03244985       0.00045934       0.05787435
Si       3.63063914       4.84062870       1.86834437       0.03234937      -0.00044390       0.05793930
Si       3.85311499       0.73275447       0.10936589       0.00043675       0.03228702       0.05800816
Si       4.84056617       3.63068346       5.16761295      -0.00027053       0.03234189      -0.05792926
Si       5.06304088       1.94268859       3.40863118      -0.03234427      -0.00044561      -0.05792832
12
Lattice="5.791221214715988 -9.666928713538932e-06 7.674353387491378e-06 -9.666633846368726e-06 5.790973648663591 -1.2398791563506565e-07 9.323906082441971e-06 -1.0679672426116746e-07 7.047457655134765" Properties=species:S:1:pos:R:3:forces:R:3 cutoff=-1.0 nneightol=1.2 n_minim_iter=2 energy=-1955.740403941277 stress="0.03589846726810705 -5.248127430731201e-08 1.3020023586850107e-07 -5.248127430731201e-08 0.03584751986097145 5.029255422967565e-09 1.3020023586850107e-07 5.029255422967565e-09 0.0367818644991766" free_energy=-1955.740403941277 pbc="T T T"
Si       0.45888256       0.45885578       0.00000178       0.00780064       0.00819373      -0.00015455
Si      -0.45887151      -0.45885738       3.52372987      -0.00784594      -0.00816591      -0.00016132
Si       2.43673432       3.35434074       5.28559584      -0.00784278       0.00817529       0.00012034
Si       3.35448648       2.43662461       1.76186940       0.00785510      -0.00819363       0.00013723
Si       0.73262857       3.84992273      -0.11036292       0.03027627      -0.00877684      -0.05752893
Si       0.95447568       2.16287907       1.65149841      -0.00845640      -0.03024442      -0.05712049
Si       1.94112826       5.05836593       3.63409841       0.00851270      -0.03027039       0.05712196
Si       2.16298051       0.95443119       5.39595921      -0.03040138      -0.00874499       0.05752122
Si       3.62823882       4.83653399       1.87222960       0.03035535       0.00873354       0.05757500
Si       3.85008500       0.73259649       0.11037228      -0.00839776       0.03028058       0.05713591
Si       4.83674406       3.62808220       5.17523234       0.00849058       0.03027172      -0.05710065
Si       5.05858696       1.94104409       3.41337297      -0.03034638       0.00874132      -0.05754571
12
Lattice="5.787488991368194 -4.259640502195195e-06 -2.479589799464087e-05 -4.256098409640486e-06 5.78908656054346 2.592295642250503e-05 -3.0118500463420765e-05 3.1521603355523026e-05 7.054301169651436" Properties=species:S:1:pos:R:3:forces:R:3 cutoff=-1.0 nneightol=1.2 n_minim_iter=3 energy=-1955.742397021595 stress="0.03492249667562502 -3.5242114796995385e-07 -1.2316392339076078e-06 -3.5242114796995385e-07 0.03524963446396512 7.01288017694326e-07 -1.2316392339076078e-06 7.01288017694326e-07 0.03584510805521558" free_energy=-1955.742397021595 pbc="T T T"
Si       0.45926149       0.45938344      -0.00000778      -0.02923718      -0.03197882       0.00086307
Si      -0.45927409      -0.45937340       3.52714427       0.02966233       0.03187457       0.00093264
Si       2.43446114       3.35395635       5.29072997       0.02953618      -0.03191693      -0.00071594
Si       3.35299613       2.43515743       1.76357866      -0.02965102       0.03186718      -0.00104488
Si       0.73596339       3.84826843      -0.11748677      -0.01026526      -0.00605613      -0.00957197
Si       0.95345480       2.15837111       1.64609581      -0.00775483       0.01047459      -0.01222752
Si       1.94026909       5.05292140       3.64465370       0.00758943       0.01031059       0.01207718
Si       2.15772949       0.95374188       5.40821817       0.01087699      -0.00580510       0.00981777
Si       3.62971280       4.83537483       1.88108334      -0.01068349       0.00568536       0.00967545
Si       3.84721507       0.73617288       0.11747832      -0.00834109      -0.00991392       0.01202300
Si       4.83400662       3.63074208       5.17323730       0.00755335      -0.01028623      -0.01225330
Si       5.05149221       1.94083691       3.40963590       0.01071459       0.00574484      -0.00957551
12
Lattice="5.7927464340342825 2.545024785561572e-06 -2.429756463018607e-06 2.537165129954536e-06 5.787702146089474 1.4515335254428498e-05 -2.942811121593976e-06 1.7670436538602374e-05 7.049584604073043" Properties=species:S:1:pos:R:3:forces:R:3 cutoff=-1.0 nneightol=1.2 n_minim_iter=4 energy=-1955.742556022371 stress="0.035828282355553694 8.292119330087374e-08 -5.4011809067727454e-08 8.292119330087374e-08 0.03480125654192563 7.963090802019974e-07 -5.4011809067727454e-08 7.963090802019974e-07 0.03538170143690403" free_energy=-1955.742556022371 pbc="T T T"
Si       0.45927084       0.45882490       0.00000564      -0.03465836      -0.02681150      -0.00262502
Si      -0.45926387      -0.45882378       3.52479880       0.03454989       0.02717338      -0.00274257
Si       2.43710969       3.35269902       5.28718437       0.03450889      -0.02720574       0.00283559
Si       3.35563751       2.43502259       1.76239243      -0.03454824       0.02719082       0.00271321
Si       0.73660712       3.84728833      -0.11775063      -0.01018375      -0.00830885      -0.01201544
Si       0.95424287       2.15788385       1.64461811      -0.00180128       0.01155754      -0.00456860
Si       1.94213662       5.05173678       3.64258913       0.00170974       0.01159312       0.00442638
Si       2.15974787       0.95344776       5.40494963       0.01045177      -0.00796177       0.01203929
Si       3.63298898       4.83427547       1.88016935      -0.01032633       0.00790076       0.01202927
Si       3.85061646       0.73597776       0.11778726      -0.00177624      -0.01145905       0.00439180
Si       4.83850654       3.62984107       5.16941298       0.00171850      -0.01158794      -0.00448717
Si       5.05613097       1.94042923       3.40703408       0.01035542       0.00791922      -0.01199674
12
Lattice="5.792486335016208 1.35701597882891e-05 4.048746659105709e-05 1.357624260812382e-05 5.795378509821335 -2.2531712539870624e-05 4.917620990668055e-05 -2.7320142909524254e-05 7.040563088512916" Properties=species:S:1:pos:R:3:forces:R:3 cutoff=-1.0 nneightol=1.2 n_minim_iter=5 energy=-1955.742776348518 stress="0.03544589859234972 2.432745294892382e-07 2.2244700096693144e-06 2.432745294892382e-07 0.03602894988563504 -6.268232769126138e-07 2.2244700096693144e-06 -6.268232769126138e-07 0.03454914004581627" free_energy=-1955.742776348518 pbc="T T T"
Si       0.45798080       0.45820017      -0.00000859      -0.02506100      -0.02808143       0.00180220
Si      -0.45793814      -0.45822010       3.52027329       0.02411273       0.02831207       0.00155741
Si       2.43832197       3.35587962       5.28043553       0.02425044      -0.02831076      -0.00174684
Si       3.35422496       2.43948286       1.76015727      -0.02414162       0.02840748      -0.00137135
Si       0.73636625       3.85216475      -0.11839969      -0.01027995      -0.00121955      -0.00239026
Si       0.95403336       2.16097530       1.64176168      -0.00478181       0.00889516      -0.00665606
Si       1.94226390       5.05865161       3.63864926       0.00489062       0.00913890       0.00681712
Si       2.15992466       0.95446396       5.39882980       0.00979048      -0.00134611       0.00197488
Si       3.63262303       4.84089635       1.87854288      -0.00979478       0.00152475       0.00220156
Si       3.85024858       0.73673809       0.11839820      -0.00379500      -0.00961853       0.00680595
Si       4.83851144       3.63439818       5.16206553       0.00498595      -0.00914241      -0.00662953
Si       5.05616004       1.94320667       3.40191852       0.00982393       0.00144043      -0.00236507
12
Lattice="5.791578823940766 1.4612948901808896e-05 -2.6129832816811878e-05 1.4608396343536294e-05 5.788261137622288 -4.262743133257208e-05 -3.1718910372554505e-05 -5.1698537799899576e-05 7.050324895725863" Properties=species:S:1:pos:R:3:forces:R:3 cutoff=-1.0 nneightol=1.2 n_minim_iter=6 energy=-1955.743311428855 stress="0.03531966139226172 -5.510359761847159e-07 7.97346614946843e-08 -5.510359761847159e-07 0.03464668866713565 -1.9033736721456012e-06 7.97346614946843e-08 -1.9033736721456012e-06 0.0353284906492704" free_energy=-1955.743311428855 pbc="T T T"
Si       0.45548620       0.45522506       0.00000714      -0.00585258      -0.00191212      -0.00182686
Si      -0.45550980      -0.45524324       3.52517389       0.00584360       0.00094850      -0.00166695
Si       2.44027758       3.34931240       5.28770440       0.00587196      -0.00091243       0.00168292
Si       3.35128216       2.43891060       1.76253999      -0.00592475       0.00105744       0.00183682
Si       0.73630608       3.84683410      -0.12108871      -0.00477550      -0.01972817      -0.00496991
Si       0.95325061       2.15825184       1.64147580      -0.01682275       0.00532708       0.00062393
Si       1.94253245       5.05236684       3.64619666       0.01681550       0.00543580      -0.00027954
Si       2.15947259       0.95268414       5.40878239       0.00516196      -0.02062431       0.00489379
Si       3.63209154       4.83553602       1.88358978      -0.00491250       0.02089634       0.00475823
Si       3.84905079       0.73589063       0.12105546      -0.01708042      -0.00586322      -0.00034271
Si       4.83831049       3.62997840       5.16661339       0.01678337      -0.00539807       0.00024325
Si       5.05527374       1.94139932       3.40406806       0.00489211       0.02077314      -0.00495298
12
Lattice="5.791050469487218 3.0179333108224855e-05 -3.5107103849708314e-05 3.0179279426899998e-05 5.79022951199538 -1.6175225722524453e-05 -4.2614702682716906e-05 -1.959046077577392e-05 7.048571182359954" Properties=species:S:1:pos:R:3:forces:R:3 cutoff=-1.0 nneightol=1.2 n_minim_iter=7 energy=-1955.743435240401 stress="0.03510308827213126 -1.311147333065672e-07 -3.126894268377796e-07 -1.311147333065672e-07 0.03493729110929931 -6.147532601250653e-07 -3.126894268377796e-07 -6.147532601250653e-07 0.035123323419715226" free_energy=-1955.743435240401 pbc="T T T"
Si       0.45436556       0.45430955       0.00000611       0.00168351       0.00251536      -0.00045902
Si      -0.45439903      -0.45432319       3.52429339      -0.00171805      -0.00282718      -0.00039490
Si       2.44113131       3.34942173       5.28640477      -0.00162146       0.00286345       0.00042524
Si       3.34990318       2.44081945       1.76211212       0.00158593      -0.00280432       0.00041606
Si       0.73609350       3.84767744      -0.12190731      -0.00269655      -0.01872399      -0.00111407
Si       0.95270051       2.15915321       1.64022930      -0.01821771       0.00287221       0.00038694
Si       1.94282793       5.05426559       3.64616002       0.01815531       0.00293218      -0.00029129
Si       2.15943614       0.95256398       5.40830152       0.00314938      -0.01904608       0.00115683
Si       3.63161093       4.83767689       1.88399985      -0.00295752       0.01913744       0.00105035
Si       3.84823317       0.73598888       0.12187097      -0.01843400      -0.00306324      -0.00030822
Si       4.83833553       3.63109157       5.16448555       0.01814796      -0.00291335       0.00024388
Si       5.05497274       1.94256520       3.40235762       0.00292320       0.01905753      -0.00111180
12
Lattice="5.790570382869481 4.109846359398231e-05 -3.345734879412261e-05 4.110120692548693e-05 5.791303305659561 6.7436424524445216e-06 -4.061160707991143e-05 8.230268216067363e-06 7.047848549679796" Properties=species:S:1:pos:R:3:forces:R:3 cutoff=-1.0 nneightol=1.2 n_minim_iter=8 energy=-1955.743507705592 stress="0.03496293354002224 3.6649102902919047e-07 -5.506227128049412e-07 3.6649102902919047e-07 0.03511213880958274 4.321443966453629e-07 -5.506227128049412e-07 4.321443966453629e-07 0.03498300651583618" free_energy=-1955.743507705592 pbc="T T T"
Si       0.45352834       0.45359754       0.00000701       0.00533839       0.00434378       0.00035535
Si      -0.45356586      -0.45360669       3.52392940      -0.00532981      -0.00408543       0.00036079
Si       2.44173403       3.34928105       5.28587946      -0.00517595       0.00411622      -0.00035891
Si       3.34883164       2.44207481       1.76194411       0.00518954      -0.00413869      -0.00045249
Si       0.73588050       3.84770522      -0.12257203      -0.00055900      -0.01479842       0.00155035
Si       0.95193390       2.15972264       1.63939198      -0.01557129       0.00049467       0.00037362
Si       1.94336690       5.05538372       3.64648758       0.01548456       0.00050455      -0.00047926
Si       2.15943573       0.95207144       5.40844407       0.00082277      -0.01464459      -0.00142747
Si       3.63115267       4.83928614       1.88451700      -0.00079955       0.01456696      -0.00149039
Si       3.84721935       0.73596663       0.12254173      -0.01567099      -0.00039775      -0.00043629
Si       4.83863226       3.63163268       5.16328906       0.01552972      -0.00050957       0.00046602
Si       5.05472521       1.94364388       3.40132555       0.00074161       0.01454826       0.00153868
12
Lattice="5.790163838689925 3.875031103950723e-05 -1.91631981309663e-05 3.875389180597093e-05 5.791420594183614 1.742748671786565e-05 -2.3260619287924037e-05 2.1200244832311072e-05 7.048200655533063" Properties=species:S:1:pos:R:3:forces:R:3 cutoff=-1.0 nneightol=1.2 n_minim_iter=9 energy=-1955.743565298314 stress="0.03490503761359036 7.258626462586862e-07 -5.207145681368128e-07 7.258626462586862e-07 0.03515998177611797 8.260430464595717e-07 -5.207145681368128e-07 8.260430464595717e-07 0.03491781107834695" free_energy=-1955.743565298314 pbc="T T T"
Si       0.45301533       0.45312534       0.00000843       0.00506455       0.00346956       0.00057352
Si      -0.45304823      -0.45313108       3.52410352      -0.00494367      -0.00294487       0.00058428
Si       2.44205608       3.34888052       5.28615689      -0.00478377       0.00296624      -0.00064856
Si       3.34811725       2.44260471       1.76204443       0.00486441      -0.00303889      -0.00070383
Si       0.73568895       3.84693058      -0.12304253       0.00140905      -0.00824997       0.00280249
Si       0.95101180       2.15990859       1.63901417      -0.00931388      -0.00162470       0.00063649
Si       1.94409219       5.05563378       3.64715066       0.00926104      -0.00165209      -0.00081417
Si       2.15945195       0.95124310       5.40919669      -0.00157128      -0.00790396      -0.00267900
Si       3.63075221       4.84024421       1.88510113       0.00135319       0.00773433      -0.00269236
Si       3.84608625       0.73583657       0.12302523      -0.00926021       0.00184306      -0.00071656
Si       4.83915968       3.63157267       5.16309741       0.00936075       0.00162234       0.00087423
Si       5.05452482       1.94454314       3.40103827      -0.00144018       0.00777894       0.00278346
