12
Lattice="5.370557800867974 3.812441361074663e-05 -0.00012477252866543195 3.813262464979642e-05 5.370531614900913 -5.190022991384417e-05 -0.00014314999984282756 -7.594407561281382e-05 6.098163565029478" Properties=species:S:1:pos:R:3:forces:R:3 cutoff=-1.0 nneightol=1.2 n_minim_iter=1 energy=-1953.077429271887 stress="-0.17531418612581623 6.763885975519854e-06 -7.97918215730621e-07 6.763885975519854e-06 -0.17531852092629743 -1.2815327953298401e-06 -7.97918215730621e-07 -1.2815327953298401e-06 -0.16870562435963568" free_energy=-1953.077429271887 pbc="T T T"
Si       0.48293400       0.48294797      -0.00002073      -0.00711280      -0.00707909       0.00011175
Si      -0.48297993      -0.48292997       3.04910980       0.00805950       0.00781799       0.00012529
Si       2.20231861       3.16812876       4.57351489       0.00929802      -0.00870327      -0.00012828
Si       3.16814954       2.20234010       1.52444305      -0.00936539       0.00869396      -0.00021238
Si       0.69052091       3.62476571       0.08375302      -0.02224405       0.02654303       0.16239673
Si       0.93945551       1.99462719       1.60838708       0.02816134       0.02223791       0.16007543
Si       1.74571670       4.67991044       2.96516296      -0.02790756       0.02189343      -0.16199507
Si       1.99462430       0.93946442       4.48971617       0.02179900       0.02837989      -0.16075177
Si       3.37579920       4.43101222       1.44057384      -0.02237203      -0.02845775      -0.16096597
Si       3.62487037       0.69065687      -0.08393853       0.02785177      -0.02183242      -0.16158341
Si       4.43100106       3.37584071       4.65736871      -0.02802070      -0.02201015       0.16087640
Si       4.67992523       1.74574252       3.13278244       0.02185291      -0.02748355       0.16205129
12
Lattice="5.386942322195896 -1.2177993125721472e-05 -0.0001180932803279657 -1.2169576872636258e-05 5.386948368300885 -4.207558251597943e-05 -0.00013686329104962793 -6.537746955633885e-05 6.061088184332296" Properties=species:S:1:pos:R:3:forces:R:3 cutoff=-1.0 nneightol=1.2 n_minim_iter=2 energy=-1953.081898916116 stress="-0.171033794523398 3.7001953110366776e-06 -4.865061361973023e-07 3.7001953110366776e-06 -0.17102190770651557 -2.009574816432679e-06 -4.865061361973023e-07 -2.009574816432679e-06 -0.17298445402154286" free_energy=-1953.081898916116 pbc="T T T"
Si       0.48434668       0.48436386      -0.00001835      -0.07362074      -0.07390196       0.00009529
Si      -0.48438192      -0.48433457       3.03057153       0.07432921       0.07412330       0.00011195
Si       2.20908612       3.17773191       4.54571604       0.07496223      -0.07462723      -0.00010500
Si       3.17772204       2.20911382       1.51518053      -0.07505199       0.07465750      -0.00012959
Si       0.69241809       3.63604910       0.08452083      -0.04093989       0.11513029       0.18005034
Si       0.94252687       2.00089392       1.59986471       0.11596828       0.04100614       0.17824417
Si       1.75078165       4.69437771       2.94587899      -0.11583681       0.04074639      -0.17949825
Si       2.00087765       0.94254937       4.46116666       0.04054867       0.11610507      -0.17896252
Si       3.38588156       4.44430333       1.43056842      -0.04092865      -0.11611151      -0.17914096
Si       3.63614235       0.69256162      -0.08468645       0.11583126      -0.04078389      -0.17915688
Si       4.44427151       3.38595301       4.63032182      -0.11586586      -0.04080390       0.17872460
Si       4.69436228       1.75082368       3.11501125       0.04060430      -0.11554019       0.17976686
12
Lattice="5.4049768478990226 -0.0003755880723881186 -7.215047189015372e-05 -0.00037557125127831077 5.404443768797507 9.661722383298741e-05 -8.609698766387007e-05 9.1483775195928e-05 6.021308834485982" Properties=species:S:1:pos:R:3:forces:R:3 cutoff=-1.0 nneightol=1.2 n_minim_iter=3 energy=-1953.096416192942 stress="-0.1658478925612107 -1.6586455378068018e-05 6.961796997727184e-06 -1.6586455378068018e-05 -0.16613614856190836 -4.6971235578105945e-06 6.961796997727184e-06 -4.6971235578105945e-06 -0.1659968037592564" free_energy=-1953.096416192942 pbc="T T T"
Si       0.48152136       0.48147520       0.00000623       0.09483426       0.09896959      -0.00016678
Si      -0.48146623      -0.48133572       3.01067474      -0.09853702      -0.10108105      -0.00117698
Si       2.22085362       3.18350817       4.51597320      -0.10224270       0.10307379       0.00104296
Si       3.18366960       2.22062784       1.50530722       0.10194195      -0.10248361       0.00181347
Si       0.69156964       3.65511054       0.09819534       0.02494022       0.01825926       0.03457256
Si       0.95294722       2.01029487       1.60339490       0.01597385      -0.02466698       0.04030228
Si       1.74897837       4.71248347       2.91259140      -0.01662685      -0.02361900      -0.03668260
Si       2.01043725       0.95298978       4.41790113      -0.02436684       0.01327089      -0.03854904
Si       3.39400554       4.45114415       1.40727868       0.02596640      -0.01227155      -0.03794703
Si       3.65563887       0.69166059      -0.09814188       0.01915132       0.02194958      -0.03694515
Si       4.45158427       3.39386347       4.61407444      -0.01640362       0.02388613       0.03858834
Si       4.71287941       1.74893021       3.10875669      -0.02463098      -0.01528706       0.03514797
12
Lattice="5.400224239781391 0.0006364732645334585 -0.0005366548279626561 0.0006363564587857126 5.419719197423648 0.00048403695889017654 -0.0006136948815868847 0.0005310412956185242 6.009622264833972" Properties=species:S:1:pos:R:3:forces:R:3 cutoff=-1.0 nneightol=1.2 n_minim_iter=4 energy=-1953.100077929293 stress="-0.16780847866080661 0.00010289757943047195 -0.0002005405161192265 0.00010289757943047195 -0.15810560117688696 0.0001697809116196234 -0.0002005405161192265 0.0001697809116196234 -0.16362499099159733" free_energy=-1953.100077929293 pbc="T T T"
Si       0.48632484       0.48838449      -0.00000876       0.10921496       0.03632040       0.02076082
Si      -0.48678281      -0.48817026       3.00475725      -0.10114176      -0.03202956       0.02257829
Si       2.21346665       3.19898303       4.50731794      -0.09746235       0.02658050      -0.01809307
Si       3.18676280       2.22192496       1.50239517       0.09487623      -0.02920056      -0.02772793
Si       0.69222893       3.67017792       0.10678316       0.01194412       0.03917070       0.03737000
Si       0.95679358       2.01570199       1.60926416      -0.01420210      -0.01370967      -0.04473317
Si       1.74357606       4.72583876       2.89841696       0.01789123      -0.01033932       0.03784835
Si       2.00789801       0.96064956       4.40040466      -0.01083719       0.04403141      -0.03349240
Si       3.39239918       4.46026912       1.39579315       0.00524894      -0.04708243      -0.03319838
Si       3.65724327       0.69467077      -0.10693193      -0.02286844       0.01748884       0.04303778
Si       4.44342301       3.40514858       4.61379631       0.01239527       0.01024656      -0.04641092
Si       4.70820783       1.75058910       3.11104904      -0.00505890      -0.04147686       0.04206064
12
Lattice="5.4129451700144 0.0009848962866086015 -0.00016603951755706027 0.0009849091089858396 5.412380958116187 0.00016093396844772732 -0.00019334908800787719 0.0001641959328100704 6.003627950726489" Properties=species:S:1:pos:R:3:forces:R:3 cutoff=-1.0 nneightol=1.2 n_minim_iter=5 energy=-1953.102809855139 stress="-0.1609586247454133 0.0001645472645628752 -6.649582496862002e-05 0.0001645472645628752 -0.16123831844268888 5.204027668901795e-05 -6.649582496862002e-05 5.204027668901795e-05 -0.1621696074942032" free_energy=-1953.102809855139 pbc="T T T"
Si       0.49157135       0.49176257       0.00006373       0.04843870       0.04403609      -0.00301597
Si      -0.49196361      -0.49181661       3.00178017      -0.03798985      -0.03828042      -0.00049410
Si       2.21482896       3.19868109       4.50276857      -0.02801895       0.02872490       0.00218547
Si       3.19886318       2.21489142       1.50097027       0.02759542      -0.03031826      -0.00306145
Si       0.69462310       3.66840070       0.11225169      -0.00121304       0.00446600      -0.02352490
Si       0.96215001       2.01242530       1.61329895       0.01642920       0.00211747      -0.02849585
Si       1.74531240       4.71892396       2.88979275      -0.01007533       0.00083767       0.01734511
Si       2.01250262       0.96215156       4.39019421       0.00165218       0.01667327       0.03640354
Si       3.40132176       4.45146258       1.38849263      -0.00452314      -0.01967414       0.03348102
Si       3.66888414       0.69436495      -0.11217374       0.00037540       0.00416863       0.01824208
Si       4.45154488       3.40100758       4.61491225      -0.01640073      -0.00135392      -0.02558707
Si       4.71914154       1.74531306       3.11394878       0.00373014      -0.01139730      -0.02347789
12
Lattice="5.407633202840774 -0.0011545102513161357 0.0007827292053635284 -0.0011545177336808109 5.407578977016602 -0.0006112100978657843 0.0008843983440692384 -0.0007123370155445087 6.0148621567789355" Properties=species:S:1:pos:R:3:forces:R:3 cutoff=-1.0 nneightol=1.2 n_minim_iter=6 energy=-1953.103511977943 stress="-0.16214855710581527 -0.0001525630303724058 0.0002688559480201344 -0.0001525630303724058 -0.16217995211766875 -0.0002187961536770559 0.0002688559480201344 -0.0002187961536770559 -0.16249925208238322" free_energy=-1953.103511977943 pbc="T T T"
Si       0.49282294       0.49298592       0.00004797       0.01316087       0.01023495      -0.00089072
Si      -0.49255337      -0.49341043       3.00737767      -0.01091216      -0.01014647      -0.00038292
Si       2.21050670       3.19597599       4.51115400      -0.00786622       0.01172396      -0.00546514
Si       3.19680272       2.20975811       1.50398015       0.01201453      -0.00947044       0.00362865
Si       0.69298194       3.66430230       0.11059813      -0.01466632       0.00586133      -0.00320089
Si       0.96026386       2.00956839       1.61467801       0.01458387       0.01868003      -0.01550183
Si       1.74277863       4.71316302       2.89623246      -0.01178074       0.00605732       0.01097628
Si       2.01048070       0.95944218       4.40022964       0.01866778       0.01508321       0.01744600
Si       3.39690041       4.44634875       1.39262206      -0.01204840      -0.01448867       0.01223996
Si       3.66434070       0.69284320      -0.11042927       0.00322014      -0.01018181       0.00151524
Si       4.44709260       3.39601582       4.62234472      -0.01133026      -0.01079104      -0.00768490
Si       4.71395541       1.74192354       3.11890178       0.00695691      -0.01256237      -0.01267973
12
Lattice="5.40669318513452 -0.0004201507421850227 -0.0007304074830309143 -0.00042011795818879205 5.406543137108365 0.000617466959315595 -0.0008336829987263544 0.0006828371186641816 6.017060244113893" Properties=species:S:1:pos:R:3:forces:R:3 cutoff=-1.0 nneightol=1.2 n_minim_iter=7 energy=-1953.103576237502 stress="-0.16233960149586174 -4.789852450959958e-05 -0.0002634817101753443 -4.789852450959958e-05 -0.1624188391127056 0.00021457444770247376 -0.0002634817101753443 0.00021457444770247376 -0.1625240608010048" free_energy=-1953.103576237502 pbc="T T T"
Si       0.49320782       0.49333563       0.00001472       0.01225025       0.00990633      -0.00177476
Si      -0.49377495      -0.49305766       3.00850020      -0.00402593      -0.00456262       0.00063550
Si       2.20891295       3.19708337       4.51287926      -0.00614388       0.00394816       0.00516689
Si       3.19649820       2.20975741       1.50415566       0.00301339      -0.00745335      -0.00653704
Si       0.69332692       3.66365649       0.11103829      -0.00966392       0.00743311      -0.00937849
Si       0.95990547       2.00971593       1.61513705       0.01050304       0.01280700      -0.00651766
Si       1.74231724       4.71311591       2.89815773      -0.00902574       0.01575618       0.00038685
Si       2.00903326       0.96055453       4.40182930       0.01124083       0.01087384       0.00970573
Si       3.39652883       4.44627970       1.39349198      -0.01961180      -0.01453554       0.01174348
Si       3.66373616       0.69321343      -0.11111160       0.00658495      -0.00735607       0.00868256
Si       4.44548381       3.39706322       4.62329080      -0.01275540      -0.01729591      -0.00933666
Si       4.71243806       1.74296974       3.11882300       0.01763420      -0.00952114      -0.00277642
12
Lattice="5.405036145737724 0.0015533300917069826 0.00037713101681515545 0.0015533195128793972 5.405152486127841 -0.0002926214932044085 0.00042400779008151677 -0.00035056466706818524 6.020453791175526" Properties=species:S:1:pos:R:3:forces:R:3 cutoff=-1.0 nneightol=1.2 n_minim_iter=8 energy=-1953.103636338906 stress="-0.16273590046115 0.00023165607484173682 0.00012921085172096694 0.00023165607484173682 -0.16268567199693193 -0.00010519159546550945 0.00012921085172096694 -0.00010519159546550945 -0.16247711219055816" free_energy=-1953.103636338906 pbc="T T T"
Si       0.49410023       0.49418063       0.00000087       0.00314972       0.00268124       0.00018511
Si      -0.49389850      -0.49434220       3.01018482      -0.00424653      -0.00400340       0.00020389
Si       2.20961928       3.19701084       4.51535924       0.00488704      -0.00287430      -0.00310073
Si       3.19736051       2.20935115       1.50522793      -0.00281215       0.00400511       0.00192076
Si       0.69434900       3.66301708       0.11027899      -0.02052001       0.00592858      -0.00139524
Si       0.96087214       2.00948548       1.61547722       0.00760268       0.01514893      -0.00420898
Si       1.74397396       4.71217436       2.89965771      -0.00799514       0.01681664       0.00647226
Si       2.00988065       0.96049077       4.40505012       0.01472502       0.00786173       0.00297047
Si       3.39715722       4.44588367       1.39469064      -0.01165446      -0.00722539       0.00190536
Si       3.66285424       0.69434009      -0.11021418       0.00628892      -0.01922267       0.00230580
Si       4.44613548       3.39681655       4.62584053      -0.00612444      -0.01143604      -0.00143434
Si       4.71245114       1.74354314       3.12091071       0.01669936      -0.00768044      -0.00582436
12
Lattice="5.405364753717296 -0.0023232107683015058 6.783843207598764e-05 -0.002323193463832137 5.4054596920666516 -4.1228884448859093e-05 7.283968935584206e-05 -6.501723574138128e-05 6.019746220973633" Properties=species:S:1:pos:R:3:forces:R:3 cutoff=-1.0 nneightol=1.2 n_minim_iter=9 energy=-1953.103734105645 stress="-0.16269799772587287 -0.0003402801010597833 2.3571660756656572e-05 -0.0003402801010597833 -0.16265864911662908 -1.5306016213133906e-05 2.3571660756656572e-05 -1.5306016213133906e-05 -0.16234395798415677" free_energy=-1953.103734105645 pbc="T T T"
Si       0.49444304       0.49444300      -0.00003655      -0.00970104      -0.00802491       0.00094556
Si      -0.49427959      -0.49439790       3.00984920       0.00572660       0.00550972       0.00025010
Si       2.20688405       3.19616685       4.51483047      -0.00550480       0.00614541      -0.00079972
Si       3.19621987       2.20689264       1.50492719       0.00581851      -0.00578843       0.00109606
Si       0.69101094       3.66319037       0.11041690      -0.01105207       0.00707408      -0.00440204
Si       0.96000861       2.00968326       1.61524143       0.00216502       0.01581816      -0.00167649
Si       1.73995993       4.71203595       2.89943568      -0.00580662       0.01118919       0.00606683
Si       2.00971500       0.95994520       4.40458520       0.01565796       0.00203443      -0.00095021
Si       3.39341085       4.44308913       1.39463483      -0.01493684      -0.00111651       0.00101444
Si       3.66300798       0.69110366      -0.11039951       0.00948373      -0.01253871       0.00587466
Si       4.44310526       3.39341143       4.62518544      -0.00208946      -0.01576161      -0.00290959
Si       4.71204964       1.73982625       3.12032077       0.01023902      -0.00454081      -0.00450961
12
Lattice="5.409641083745282 -0.00028444008445868436 -0.0006661162847031664 -0.00028441410529715845 5.409553660772515 0.0003987330711220184 -0.0007609142625882689 0.000434357110598649 6.01043446932525" Properties=species:S:1:pos:R:3:forces:R:3 cutoff=-1.0 nneightol=1.2 n_minim_iter=10 energy=-1953.103984602493 stress="-0.16200714070117436 -6.569051976785779e-05 -0.00022767619226492957 -6.569051976785779e-05 -0.16205257695506536 0.00014242240744080976 -0.00022767619226492957 0.00014242240744080976 -0.1621890405743452" free_energy=-1953.103984602493 pbc="T T T"
Si       0.49567692       0.49552324      -0.00011662      -0.00477647      -0.00047526       0.00138928
Si      -0.49570637      -0.49514958       3.00527005      -0.00264030      -0.00337470       0.00037310
Si       2.20892128       3.20020879       4.50773769      -0.01212217       0.00921055       0.00488729
Si       3.19972878       2.20943109       1.50224966       0.00799505      -0.00982223      -0.00030069
Si       0.69004470       3.66795274       0.11031937       0.00451114       0.00985233      -0.01277734
Si       0.96324082       2.01461849       1.61251829      -0.00209468      -0.00432134       0.00200081
Si       1.74071886       4.71930281       2.89530924      -0.00161966       0.00328071       0.00507767
Si       2.01385340       0.96377651       4.39783767      -0.00361653      -0.00245184      -0.00365745
Si       3.39470144       4.44577324       1.39266951      -0.00096268       0.00436431       0.00150056
Si       3.66794239       0.69034704      -0.11048230       0.01429919      -0.00349212       0.01316976
Si       4.44536826       3.39528955       4.61756655      -0.00097569      -0.00301697      -0.00770353
Si       4.71886873       1.74122678       3.11473908       0.00200279       0.00024655      -0.00395945
12
Lattice="5.409087288655803 0.00017632198713768012 0.00012687199204035446 0.00017633529853690539 5.409078204090059 0.0003040004187417889 0.00013954402735820098 0.00032678860871574296 6.011578087278187" Properties=species:S:1:pos:R:3:forces:R:3 cutoff=-1.0 nneightol=1.2 n_minim_iter=11 energy=-1953.104015349006 stress="-0.16221515163381303 -2.495483890999994e-05 9.5857290693115e-06 -2.495483890999994e-05 -0.16214937148727204 -1.7439896845804093e-05 9.5857290693115e-06 -1.7439896845804093e-05 -0.1622756041592415" free_energy=-1953.104015349006 pbc="T T T"
Si       0.49608097       0.49595235      -0.00004535      -0.00796091      -0.01290662       0.00071680
Si      -0.49572649      -0.49568255       3.00578896      -0.00188915       0.00030743      -0.00193156
Si       2.20912594       3.20055499       4.50887346      -0.00497302       0.00280277       0.00175612
Si       3.20031718       2.20896633       1.50297793       0.00374550      -0.00089284       0.00524530
Si       0.68987500       3.66797953       0.10987329       0.00160248       0.01484899      -0.00478289
Si       0.96376750       2.01492001       1.61252517       0.00035252      -0.00049937       0.00396692
Si       1.74112237       4.71944225       2.89651484      -0.00136319       0.00237993       0.00397253
Si       2.01480578       0.96400432       4.39934203       0.00037923      -0.00261722      -0.00540714
Si       3.39450451       4.44544728       1.39378101       0.00360976       0.00726045      -0.00383926
Si       3.66794707       0.69012329      -0.10946513       0.00916562      -0.00883151       0.00461708
Si       4.44567102       3.39484645       4.61857387      -0.00096170      -0.00290124      -0.00293673
Si       4.71945522       1.74118892       3.11551568      -0.00170714       0.00104922      -0.00137715
12
Lattice="5.408972907962516 0.0005237172575136229 0.0003736928417639024 0.0005237306023340014 5.408826162557164 0.0004389589092541224 0.0004198107974346096 0.00048002833888608425 6.011985441842805" Properties=species:S:1:pos:R:3:forces:R:3 cutoff=-1.0 nneightol=1.2 n_minim_iter=12 energy=-1953.104025622663 stress="-0.16225355046733145 6.342012231738364e-05 0.0001364488004009856 6.342012231738364e-05 -0.16233463714905086 0.00015851215171796315 0.0001364488004009856 0.00015851215171796315 -0.16218526805365382" free_energy=-1953.104025622663 pbc="T T T"
Si       0.49611140       0.49588451      -0.00000120      -0.00233734       0.00546850       0.00490625
Si      -0.49580285      -0.49577779       3.00592796      -0.00192321      -0.00010121      -0.00319149
Si       2.20924681       3.20088307       4.50939637      -0.00040035      -0.00013053       0.00083025
Si       3.20068311       2.20891803       1.50337005       0.00167872      -0.00101562       0.00074619
Si       0.68985433       3.66826149       0.10968862      -0.00031514      -0.00227272      -0.00227790
Si       0.96408407       2.01519157       1.61260496      -0.00102967      -0.00491972      -0.00364643
Si       1.74135776       4.71973861       2.89719134       0.00070729       0.00098509       0.00052747
Si       2.01529917       0.96427767       4.39985913       0.00134894      -0.00131767      -0.00255846
Si       3.39457077       4.44550140       1.39428714       0.00307971       0.00100949       0.00239804
Si       3.66823309       0.68988164      -0.10897859       0.00080549       0.00162825      -0.00161741
Si       4.44586355       3.39476565       4.61891390       0.00154466      -0.00134586       0.00227097
Si       4.71987112       1.74138368       3.11573808      -0.00315911       0.00201202       0.00161253
