12
Lattice="5.973333400898793 -4.4198730864434605e-05 -0.00043518181336535367 -4.428584663647076e-05 5.9738286552309035 -0.00013746010659754497 -0.0005273350813130325 -0.00016501914783136434 7.393626118729342" Properties=species:S:1:pos:R:3:forces:R:3 cutoff=-1.0 nneightol=1.2 n_minim_iter=11 energy=-1954.561665563672 stress="0.06954323115610957 -6.93242936523903e-06 -3.543466240901623e-06 -6.93242936523903e-06 0.06962677903649406 -2.8567866941041585e-06 -3.543466240901623e-06 -2.8567866941041585e-06 0.06971583265136147" free_energy=-1954.561665563672 pbc="T T T"
Si       0.44666427       0.44672165      -0.00003817      -0.00317409      -0.00274935       0.00152490
Si      -0.44693335      -0.44680187       3.69685326       0.00029053       0.00023938       0.00108585
Si       2.53956411       3.43349051       5.54495641      -0.00029406      -0.00023825       0.00007605
Si       3.43319643       2.54012891       1.84810389      -0.00054380       0.00065859      -0.00089532
Si       0.77324206       3.95251187      -0.19350446       0.00610736      -0.00131519       0.00241047
Si       0.96538833       2.21353757       1.65492672      -0.00427725      -0.00366736       0.00287225
Si       2.02082551       5.20040301       3.88990470       0.00370125      -0.00359455      -0.00234169
Si       2.21298784       0.96545825       5.73838314       0.00091519      -0.00189798      -0.00306989
Si       3.75975351       5.00815496       2.04137072       0.00248235       0.00280159      -0.00275461
Si       3.95218017       0.77328944       0.19304528      -0.00587708       0.00325366      -0.00288112
Si       5.00740668       3.76008547       5.35142102       0.00312854       0.00397538       0.00147087
Si       5.19979702       2.02119991       3.50303183      -0.00245893       0.00253408       0.00250224
