4
Lattice="1.9104237868126166 -3.308951062747585 6.629504075951141e-19 1.910423786812617 3.308951062747585 -6.629504075951595e-19 7.464401098609766e-32 1.2613883959399915e-18 6.29590452840039" Properties=species:S:1:pos:R:3 cutoff=-1.0 nneightol=1.2 n_minim_iter=1 energy=-652.6393617413223 free_energy=-652.6393617413223 pbc="T T T"
Si       1.91042379       1.10298369       0.39436424
Si       1.91042379      -1.10298369       3.54231650
Si       1.91042379       1.10298369       2.75358803
Si       1.91042379      -1.10298369      -0.39436424
4
Lattice="1.9108210780165558 -3.3096391912982077 2.3259098637447434e-18 1.9108210780165562 3.3096391912982077 -2.325909863744773e-18 7.318215796963239e-32 -1.9022135536869344e-18 6.293286755876088" Properties=species:S:1:pos:R:3 cutoff=-1.0 nneightol=1.2 n_minim_iter=2 stress="-0.012877337319109063 -2.1846468770559342e-16 -1.262810058465949e-16 -2.1846468770559342e-16 -0.01287733731910898 -1.7109038276318226e-16 -1.262810058465949e-16 -1.7109038276318226e-16 -0.013010450997801801" pbc="T T T"
Si       1.91082108       1.10321306       0.39436405
Si       1.91082108      -1.10321306       3.54100743
Si       1.91082108       1.10321306       2.75227932
Si       1.91082108      -1.10321306      -0.39436405
