4
Lattice="1.9576799882454603 -3.3908012046019786 -5.429896193082866e-19 1.9576799882454599 3.3908012046019786 5.42989619308155e-19 2.1727168809348776e-31 -1.0339702574734804e-18 6.4568225061657545" Properties=species:S:1:pos:R:3 cutoff=-1.0 nneightol=1.2 n_minim_iter=1 energy=-652.6026392198306 free_energy=-652.6026392198306 pbc="T T T"
Si       1.95767999       1.13026707       0.40428377
Si       1.95767999      -1.13026707       3.63269503
Si       1.95767999       1.13026707       2.82412748
Si       1.95767999      -1.13026707      -0.40428377
4
Lattice="1.9571999860382736 -3.389969816391386 -1.4960730514906861e-18 1.9571999860382732 3.389969816391386 1.4960730514904537e-18 2.16068028447104e-31 7.80654051262734e-19 6.459989958777586" Properties=species:S:1:pos:R:3 cutoff=-1.0 nneightol=1.2 n_minim_iter=2 stress="0.023765272027621007 -6.698156696760106e-17 -7.21232149068012e-17 -6.698156696760106e-17 0.023765272027620372 -2.2691530090243688e-17 -7.21232149068012e-17 -2.2691530090243688e-17 0.024133880642196362" pbc="T T T"
Si       1.95719999       1.12998994       0.40422570
Si       1.95719999      -1.12998994       3.63422068
Si       1.95719999       1.12998994       2.82576928
Si       1.95719999      -1.12998994      -0.40422570
