4
Lattice="1.8226673472452082 -3.156952450725484 2.5242705361066435e-18 1.822667347245208 3.156952450725484 -2.5242705361066473e-18 1.2547780260184094e-32 1.4865280868406934e-19 6.029996372567032" Properties=species:S:1:pos:R:3 cutoff=-1.0 nneightol=1.2 n_minim_iter=4 stress="-0.08655642468975955 1.46272940501479e-17 -2.791435539911375e-17 1.46272940501479e-17 -0.08655642468976 1.1825674341042094e-16 -2.791435539911375e-17 1.1825674341042094e-16 -0.08656069736450317" pbc="T T T"
Si       1.82266735       1.05231748       0.38380538
Si       1.82266735      -1.05231748       3.39880357
Si       1.82266735       1.05231748       2.63119280
Si       1.82266735      -1.05231748      -0.38380538
