4
Lattice="1.7795430289134437 -3.0822589403330953 6.230453713868274e-18 1.7795430289134437 3.0822589403330953 -6.2304537138683254e-18 4.2495666034052934e-32 -3.4490754398433752e-18 5.953686351042328" Properties=species:S:1:pos:R:3 cutoff=-1.0 nneightol=1.2 n_minim_iter=3 stress="-0.14258513465273676 -5.282639889981113e-16 -4.850699313542087e-16 -5.282639889981113e-16 -0.1425851346527362 -1.6214045468205087e-16 -4.850699313542087e-16 -1.6214045468205087e-16 -0.14257358186581384" pbc="T T T"
Si       1.77954303       1.02741965       0.38441594
Si       1.77954303      -1.02741965       3.36125911
Si       1.77954303       1.02741965       2.59242724
Si       1.77954303      -1.02741965      -0.38441594
