4
Lattice="2.0025151753829094 -3.468458026690901 -3.8757138385677865e-18 2.002515175382909 3.468458026690901 3.875713838567386e-18 6.616774779676561e-31 -7.388037698342071e-18 6.611710699926246" Properties=species:S:1:pos:R:3 cutoff=-1.0 nneightol=1.2 n_minim_iter=1 stress="0.043672094442755806 -2.0804136714966852e-16 -1.6415371755226397e-16 -2.0804136714966852e-16 0.04367209444275555 1.5604867760680218e-16 -1.6415371755226397e-16 1.5604867760680218e-16 0.04325257845285215" pbc="T T T"
Si       2.00251518       1.15615268       0.41351533
Si       2.00251518      -1.15615268       3.71937068
Si       2.00251518       1.15615268       2.89234002
Si       2.00251518      -1.15615268      -0.41351533
