4
Lattice="1.9420178773804457 -3.363673632829997 -5.386455162540481e-19 1.942017877380446 3.363673632829997 5.386455162539176e-19 7.67301142540803e-32 3.591275365604581e-18 6.405165713158476" Properties=species:S:1:pos:R:3 cutoff=-1.0 nneightol=1.2 n_minim_iter=2 stress="0.012249987779197719 -2.068691270370684e-17 2.284257179685594e-16 -2.068691270370684e-17 0.012249987779198382 1.777441273111381e-17 2.284257179685594e-16 1.777441273111381e-17 0.012329451673173125" pbc="T T T"
Si       1.94201788       1.12122454       0.40104936
Si       1.94201788      -1.12122454       3.60363222
Si       1.94201788       1.12122454       2.80153349
Si       1.94201788      -1.12122454      -0.40104936
