4
Lattice="1.8606997794888889 -3.2228265557069617 2.501221717609967e-18 1.860699779488889 3.2228265557069617 -2.5012217176099563e-18 -3.1694410742477215e-32 4.979644038245054e-18 6.126364733183363" Properties=species:S:1:pos:R:3 cutoff=-1.0 nneightol=1.2 n_minim_iter=3 stress="-0.04366349464135078 9.134404287780838e-17 -5.88229539109508e-17 9.134404287780838e-17 -0.0436634946413524 -1.0872074758643035e-16 -5.88229539109508e-17 -1.0872074758643035e-16 -0.04411978886639536" pbc="T T T"
Si       1.86069978       1.07427552       0.38534853
Si       1.86069978      -1.07427552       3.44853089
Si       1.86069978       1.07427552       2.67783384
Si       1.86069978      -1.07427552      -0.38534853
