1
Lattice="2.6399067389220665 1.8480821789239933e-17 9.910134833238147e-52 1.3199533694610333 2.286226299528243 -2.217580542629866e-50 -3.3776518732153817e-51 9.923956355506896e-50 2.465012790796748" Properties=species:S:1:pos:R:3:forces:R:3 cutoff=-1.0 nneightol=1.2 n_minim_iter=1 energy=-162.8346995922578 stress="-0.013376408415121943 -3.124913778785882e-17 -4.664050416098331e-19 -3.124913778785882e-17 -0.013376408415121837 -1.8656201664393324e-18 -4.664050416098331e-19 -1.8656201664393324e-18 -0.010797941054382717" free_energy=-162.8346995922578 pbc="T T T"
Si       0.00000000       0.00000000       0.00000000       0.00000000       0.00000000       0.00000000
