1
Lattice="2.727239013006236 1.9092196490475642e-17 1.0237977706892396e-51 1.363619506503118 2.3618582674554 -2.2909416007677563e-50 -3.489389918655983e-51 1.0252256466893535e-49 2.5465592975323403" Properties=species:S:1:pos:R:3:forces:R:3 cutoff=-1.0 nneightol=1.2 n_minim_iter=1 energy=-162.8208561156584 stress="0.03178320317970681 -2.6418514142614124e-17 -4.763994353586155e-18 -2.6418514142614124e-17 0.03178320317970678 -2.511924295527246e-17 -4.763994353586155e-18 -2.511924295527246e-17 0.039582266153595225" free_energy=-162.8208561156584 pbc="T T T"
Si       0.00000000       0.00000000       0.00000000       0.00000000       0.00000000      -0.00000000
