1
Lattice="2.727239013006236 1.9092196490475636e-17 1.0237977706892393e-51 1.3636195065031178 2.3618582674554 -2.2909416007677563e-50 -5.401332157167516e-51 1.5302836175515662e-49 2.5465592975323403" Properties=species:S:1:pos:R:3:forces:R:3 cutoff=-1.0 nneightol=1.2 n_minim_iter=1 energy=-162.8052131213206 stress="0.04494932090782094 -1.2761940159618594e-16 -2.3266018936118427e-18 -1.2761940159618594e-16 0.044949320907821416 4.441694524168062e-18 -2.3266018936118427e-18 4.441694524168062e-18 0.05251329921222016" free_energy=-162.8052131213206 pbc="T T T"
Si       0.00000000       0.00000000       0.00000000       0.00000000      -0.00000000      -0.00000000
