1
Lattice="2.8727784682151194 1.3405034822283568e-16 7.447735943478681e-50 1.4363892341075597 2.4878991329192393 -7.71933140595515e-50 -1.3250781322723327e-48 2.375380021090669e-48 2.676320287628882" Properties=species:S:1:pos:R:3 cutoff=-1.0 nneightol=1.2 n_minim_iter=1 energy=-162.62014519748374 free_energy=-162.62014519748374 pbc="T T T"
Si       0.00000000       0.00000000       0.00000000
