1
Lattice="2.493887989920033 1.091940296892656e-16 1.0575177080932722e-49 1.2469439949600167 2.159770353463658 9.77606117367366e-49 -1.224801335669898e-48 -3.21138371979204e-48 2.3438639985462806" Properties=species:S:1:pos:R:3 cutoff=-1.0 nneightol=1.2 n_minim_iter=1 energy=-162.64718374533467 free_energy=-162.64718374533467 pbc="T T T"
Si       0.00000000       0.00000000       0.00000000
