1
Lattice="2.6668512919021037 1.244413198906036e-16 6.913865598189444e-50 1.333425645951052 2.3095609669025707 -7.165992491367578e-50 -7.070400771299743e-50 1.4816593205257826e-49 2.4844756724459103" Properties=species:S:1:pos:R:3 cutoff=-1.0 nneightol=1.2 n_minim_iter=1 energy=-162.8350215850784 free_energy=-162.8350215850784 pbc="T T T"
Si       0.00000000       0.00000000       0.00000000
