1
Lattice="2.4684383775216334 1.080797271451885e-16 1.0467259580691342e-49 1.234219188760817 2.1377303426101766 9.67629848639234e-49 -1.4090541732038377e-48 -5.165234167149088e-48 2.319945350026915" Properties=species:S:1:pos:R:3 cutoff=-1.0 nneightol=1.2 n_minim_iter=1 energy=-162.57105696233197 free_energy=-162.57105696233197 pbc="T T T"
Si       0.00000000       0.00000000       0.00000000
