20
Lattice="9.37931828301168 0.08637991370068424 1.6155538328388983 -2.0225645151716236 8.302958810349963 0.5049792952437051 -2.814298562332767 -2.9407791631138998 6.14957861918" Properties=species:S:1:pos:R:3 unique_starting_index=76 config_type=initial n_minim_iter=1 energy=-3245.0232716741466 free_energy=-3245.0232716741466 pbc="T T T"
Si       5.28737451       0.34426232       5.76043692
Si      -3.00354297      -0.65002260       5.94626586
Si       4.35400336       0.44746065       2.07477669
Si      -0.59851272       2.86752805       2.21619554
Si       7.62286925       4.46481962       1.87875906
Si       4.12175672       2.51991038       5.96100157
Si      -3.39025704       6.16365208       4.68320417
Si      -1.48440246       1.04811078       4.45081560
Si       6.10449635      -0.17213388       3.50052229
Si      -0.56465045      -0.75991791       5.81970535
Si       4.35811718       0.58781232       4.02799027
Si       2.90435531       4.32652625       2.17800314
Si       1.56462152       3.08168290       3.81611402
Si      -1.71931575       3.26404010       5.57858534
Si       0.87933827       4.25575993       0.82901035
Si       0.33576505       5.12575335       2.95589607
Si       4.02243935       2.23645516       1.22594043
Si       3.96312060       2.44469630       3.31568365
Si       0.66848444       3.70843219       6.20472180
Si      -0.91302319       5.51926862       6.52011207
20
Lattice="9.784822276265126 0.35992180296136583 1.666606063700865 -1.848561861696623 8.474632841295955 0.399736076435961 -2.9793797980182486 -3.176351986730704 6.110590333838954" Properties=species:S:1:pos:R:3 unique_starting_index=76 config_type=initial n_minim_iter=2 stress="0.016789321697167178 -0.00256850062703514 0.002684935889083002 -0.00256850062703514 0.011187470315928639 0.0018166435224658286 0.002684935889083002 0.0018166435224658286 0.012919897229198297" pbc="T T T"
Si       5.72049254       0.56171164       5.73636361
Si      -3.11264130      -0.86580061       5.90656629
Si       4.57572737       0.52978990       2.10927301
Si      -0.51573213       2.90915524       2.15209964
Si       8.12177077       4.82319933       1.91050352
Si       4.38701005       2.57331573       5.86610766
Si      -3.29497426       6.14972751       4.56806411
Si      -1.51614746       0.95610815       4.37358308
Si       6.38167717      -0.02754084       3.54013848
Si      -0.53491928      -0.77016746       5.71359678
Si       4.59541694       0.77657379       4.08924872
Si       3.16263711       4.60193899       2.09302059
Si       1.70579208       3.24024550       3.80696536
Si      -1.63556242       3.23883830       5.48334270
Si       1.01796086       4.39199259       0.77091773
Si       0.46375408       5.17306835       2.92631752
Si       4.28380014       2.37315283       1.19917914
Si       4.13903435       2.58542131       3.34424516
Si       0.84590205       3.70871952       6.06905768
Si      -0.72784303       5.59000721       6.34665605
20
Lattice="9.919981737093668 0.6305048984006643 1.6439220493975422 -1.6206988150100075 8.494388107622743 0.2901204851015632 -3.097241280614284 -3.3631772501796906 5.990505801861169" Properties=species:S:1:pos:R:3 unique_starting_index=76 config_type=initial n_minim_iter=3 stress="0.016502870087982173 0.0007440172054318759 0.003454364691715759 0.0007440172054318759 0.004408362997158599 0.00018929470076434348 0.003454364691715759 0.00018929470076434348 0.000637834005685404" pbc="T T T"
Si       5.96683254       0.76679040       5.59487070
Si      -3.16945029      -1.06979449       5.78455377
Si       4.66264540       0.60797155       2.08473323
Si      -0.42701945       2.89832174       2.05531340
Si       8.39744592       5.09704602       1.86237675
Si       4.50402460       2.58350362       5.66279480
Si      -3.13211006       6.02519596       4.39071022
Si      -1.52878012       0.84371689       4.23610810
Si       6.46858825       0.11735636       3.48891079
Si      -0.51830183      -0.77745690       5.52761934
Si       4.69609290       0.94135970       4.05004492
Si       3.33206969       4.78658532       1.96032642
Si       1.79259253       3.32986831       3.71649458
Si      -1.53305421       3.15077494       5.30657731
Si       1.13134444       4.44843545       0.69381182
Si       0.56910814       5.12686573       2.83731860
Si       4.42164481       2.47310194       1.13468807
Si       4.19402353       2.67477749       3.28827965
Si       0.96810541       3.64376216       5.83851903
Si      -0.55103054       5.55527698       6.07918108
20
Lattice="9.71711198369312 0.6890657572296397 1.6029211067789921 -1.526480519522514 8.573728580733796 0.28101161586812734 -3.0966737727227565 -3.435374720544216 6.081803629852419" Properties=species:S:1:pos:R:3 unique_starting_index=76 config_type=initial n_minim_iter=4 stress="0.010830182428686995 0.00046369010711263197 0.0009360925502690416 0.00046369010711263197 0.0038841748270437874 0.0025226877827747595 0.0009360925502690416 0.0025226877827747595 0.0050431492308091784" pbc="T T T"
Si       5.89151551       0.84341248       5.61543871
Si      -3.15047461      -1.13615587       5.87525742
Si       4.56740706       0.61864260       2.09007781
Si      -0.40588075       2.92148375       2.06938233
Si       8.27182797       5.19968330       1.83863333
Si       4.38622530       2.58166407       5.67236802
Si      -3.04277196       6.04167773       4.44864669
Si      -1.53423455       0.82033687       4.27811189
Si       6.31784428       0.14243711       3.49681567
Si      -0.53048877      -0.76663090       5.56662695
Si       4.59841867       0.99804234       4.09571611
Si       3.28041802       4.88440749       1.93144984
Si       1.74537909       3.38971658       3.75061581
Si      -1.50008359       3.15486147       5.36407657
Si       1.12532274       4.49792460       0.67791918
Si       0.54889624       5.13798704       2.87285652
Si       4.35091752       2.50314966       1.10643274
Si       4.06669020       2.70965376       3.31355486
Si       0.93131217       3.64179345       5.87082134
Si      -0.53059565       5.59381724       6.10982735
20
Lattice="9.572406802273113 0.6572028398838101 1.6115774878518085 -1.5063217297602183 8.645485635379597 0.18025130553697422 -3.0409684729650523 -3.5301829753147507 6.106495023590116" Properties=species:S:1:pos:R:3 unique_starting_index=76 config_type=initial n_minim_iter=5 stress="0.0025923999168905917 -0.0010942162131380496 0.0013507259475054208 -0.0010942162131380496 0.003285750154136204 -0.0002623592487753018 0.0013507259475054208 -0.0002623592487753018 0.0014404752143424046" pbc="T T T"
Si       5.84418183       0.79967639       5.60953858
Si      -3.09616328      -1.21837281       5.87428202
Si       4.50284405       0.58417006       2.09832781
Si      -0.39595146       2.92218093       2.03353985
Si       8.15612055       5.20819285       1.80255983
Si       4.31922558       2.50792213       5.63540489
Si      -2.98475258       6.03931869       4.37500370
Si      -1.51098930       0.78329981       4.25162675
Si       6.22685881       0.08723839       3.50627495
Si      -0.50878020      -0.82007630       5.55436838
Si       4.54496364       0.96430742       4.09941805
Si       3.22108918       4.91183263       1.86964241
Si       1.71905183       3.38254642       3.71129710
Si      -1.46491735       3.11598725       5.31783142
Si       1.10308638       4.52807434       0.62572152
Si       0.52520579       5.12814713       2.82107171
Si       4.28945584       2.49423562       1.08018051
Si       3.98038456       2.68125818       3.29267186
Si       0.91463869       3.58733987       5.82055563
Si      -0.51508431       5.56859912       6.02503928
20
Lattice="9.450852437610783 0.754643304468876 1.5406900475353413 -1.3861460322806756 8.608984308865553 0.11531127439228096 -3.093032018061935 -3.623134182823845 6.178272994593965" Properties=species:S:1:pos:R:3 unique_starting_index=76 config_type=initial n_minim_iter=6 stress="-0.0093612144044514 0.0009140335268782421 -0.0032856552887014713 0.0009140335268782421 -0.005578457995634046 0.0005757871522509005 -0.0032856552887014713 0.0005757871522509005 0.0007641387499384857" pbc="T T T"
Si       5.80574449       0.86740360       5.58255700
Si      -3.12249168      -1.33275948       5.91713930
Si       4.44175320       0.60721980       2.08701854
Si      -0.36579068       2.88928049       2.02378556
Si       8.12540785       5.28134799       1.72449950
Si       4.23611893       2.44912141       5.58299136
Si      -2.88295101       5.93491600       4.37744626
Si      -1.51359716       0.74371900       4.24760849
Si       6.12822556       0.11291696       3.47294766
Si      -0.54446368      -0.84156604       5.55552684
Si       4.49538396       1.02326433       4.09036929
Si       3.19324964       4.95077405       1.78694404
Si       1.70786611       3.38423802       3.66923890
Si      -1.43422256       3.02054209       5.31860175
Si       1.13291343       4.53560927       0.57167671
Si       0.51757093       5.05725355       2.80361426
Si       4.26658103       2.51108575       1.01900416
Si       3.87099893       2.66629159       3.26675131
Si       0.87595491       3.50204065       5.80569999
Si      -0.48486783       5.48141356       5.97234988
20
Lattice="9.44929743272694 0.7849736969835122 1.5531837268652589 -1.3426469428658923 8.756223444600467 0.016630463881891204 -3.080798053968755 -3.7559472176941946 6.109403893877058" Properties=species:S:1:pos:R:3 unique_starting_index=76 config_type=initial n_minim_iter=7 stress="-0.014171616933406893 0.00030473178596542125 -0.0026133233345107805 0.00030473178596542125 -0.006419995984232873 -0.004697907619793478 -0.0026133233345107805 -0.004697907619793478 -0.002371307918626122" pbc="T T T"
Si       5.87023652       0.89420725       5.53147471
Si      -3.10500981      -1.43471654       5.80306518
Si       4.45260851       0.61640540       2.09024593
Si      -0.33498689       2.91491205       1.97683034
Si       8.17202809       5.38487912       1.70251526
Si       4.24752942       2.40225280       5.48191309
Si      -2.79144437       5.98452200       4.26740120
Si      -1.46501882       0.77071804       4.13901219
Si       6.13879604       0.08020971       3.44524145
Si      -0.52121167      -0.87525866       5.46028723
Si       4.55606789       1.06674855       4.05640622
Si       3.16730391       5.04502284       1.70662322
Si       1.74534143       3.43653161       3.55697469
Si      -1.37511589       2.99175171       5.20527164
Si       1.15633854       4.63068217       0.50982842
Si       0.50851259       5.09360653       2.73110140
Si       4.28496575       2.54090078       0.98609988
Si       3.81249853       2.67205155       3.21209372
Si       0.88006061       3.48501272       5.70886827
Si      -0.43086361       5.50538634       5.80203897
20
Lattice="9.45994342594971 0.7608229601318409 1.5703537053086827 -1.378020852440583 8.867407229405869 0.08397257965746696 -3.037496086248712 -3.713003149839415 5.946485565537331" Properties=species:S:1:pos:R:3 unique_starting_index=76 config_type=initial n_minim_iter=8 stress="-0.017621203229783177 -0.0005895838928277719 -0.002603728975683995 -0.0005895838928277719 -0.006861770048234758 -0.003427591032094061 -0.002603728975683995 -0.003427591032094061 -0.008186388478453197" pbc="T T T"
Si       5.88441939       0.93662129       5.48006922
Si      -3.07476869      -1.36266328       5.62869172
Si       4.46437371       0.64587456       2.08421779
Si      -0.32948813       2.96764973       1.98173159
Si       8.17878714       5.41595765       1.75872658
Si       4.25893895       2.45463556       5.42632341
Si      -2.75391946       6.13100019       4.25268993
Si      -1.40535804       0.91268626       4.03492713
Si       6.16051928       0.06328575       3.39585293
Si      -0.50303480      -0.81612048       5.34957954
Si       4.61837340       1.11905900       3.99273451
Si       3.10372227       5.08527837       1.73073585
Si       1.76946174       3.50866761       3.47939361
Si      -1.34704125       3.06557906       5.13062373
Si       1.15214978       4.70392550       0.53503357
Si       0.47867681       5.18712472       2.72677726
Si       4.28526799       2.55230464       1.00106584
Si       3.77079558       2.69954251       3.17436167
Si       0.86209029       3.58309242       5.67136913
Si      -0.42543566       5.61895442       5.73294182
20
Lattice="9.665856802737984 0.8549868651264609 1.656079350424118 -1.340548319246558 9.019706529790932 0.11122836918253429 -3.0499570365428497 -3.754635697082322 5.81726118646094" Properties=species:S:1:pos:R:3 unique_starting_index=76 config_type=initial n_minim_iter=9 stress="-0.0050279151874514484 -0.00025134644456508353 0.002063762824128702 -0.00025134644456508353 -0.0008550715006112881 -0.0031756604894494812 0.002063762824128702 -0.0031756604894494812 -0.00438931477327858" pbc="T T T"
Si       6.10874764       1.07423300       5.50039545
Si      -3.07961026      -1.37135719       5.47734150
Si       4.58083813       0.72538804       2.11712732
Si      -0.27792528       3.02926257       1.98564278
Si       8.42040812       5.58011235       1.87231092
Si       4.40304722       2.53362521       5.41982453
Si      -2.65265988       6.26546619       4.23845401
Si      -1.34203755       1.02978216       3.93805686
Si       6.31915646       0.10335280       3.41577119
Si      -0.45894320      -0.75714017       5.25874015
Si       4.82203231       1.24724345       3.99583555
Si       3.15868393       5.20703399       1.76340903
Si       1.87289571       3.62832615       3.42712205
Si      -1.26968627       3.11537022       5.07199316
Si       1.21012528       4.81765884       0.54740515
Si       0.50932404       5.29079369       2.73599118
Si       4.40258588       2.61775707       1.03252443
Si       3.83009049       2.76238141       3.18079398
Si       0.93338006       3.68409858       5.65832952
Si      -0.32428003       5.74369302       5.66813178
20
Lattice="9.85588423599447 0.8691583785275973 1.5728407189666738 -1.3859926292438158 9.08519928932328 0.18047295244040193 -3.161032128413004 -3.736388781604815 5.787476193922155" Properties=species:S:1:pos:R:3 unique_starting_index=76 config_type=initial n_minim_iter=10 stress="0.006714854246735781 -0.0030553240378749483 -0.0013876222332340493 -0.0030553240378749483 0.004484755933762538 0.0006960573765892945 -0.0013876222332340493 0.0006960573765892945 0.0022852757002767314" pbc="T T T"
Si       6.19921509       1.13170789       5.43954211
Si      -3.19130414      -1.33769123       5.42613630
Si       4.65051292       0.77129430       2.06264084
Si      -0.29119149       3.06109715       2.01623359
Si       8.58941958       5.61851445       1.84554572
Si       4.42729693       2.58131286       5.40085906
Si      -2.69159187       6.37030812       4.32175561
Si      -1.37189369       1.13880130       3.90251237
Si       6.41979259       0.09579072       3.34577950
Si      -0.53289545      -0.70357477       5.23023906
Si       4.95009819       1.30108095       3.92919180
Si       3.14635134       5.22412480       1.77580059
Si       1.86548662       3.67687227       3.37285837
Si      -1.34092505       3.13988215       5.08575011
Si       1.21309517       4.86432498       0.55087938
Si       0.44609927       5.35836294       2.75322501
Si       4.48293765       2.62981149       0.98888631
Si       3.85173814       2.75806939       3.13393161
Si       0.86738097       3.75786649       5.68573089
Si      -0.39539262       5.81226894       5.68282581
20
Lattice="9.917069867140519 1.052350521421241 1.6783342016639742 -1.2384448860187476 9.118500997159169 0.21995359949975693 -3.1545993377555823 -3.7628607270637757 5.7130556769482315" Properties=species:S:1:pos:R:3 unique_starting_index=76 config_type=initial n_minim_iter=11 stress="0.005368079043868798 0.0023282623088061397 0.0024751411657477095 0.0023282623088061397 0.0005885240656217662 0.0021539619692097223 0.0024751411657477095 0.0021539619692097223 0.005357982231367053" pbc="T T T"
Si       6.34297566       1.31991069       5.49667239
Si      -3.14649395      -1.36009019       5.33812157
Si       4.69429690       0.88752326       2.09919393
Si      -0.19940227       3.08462644       2.04063016
Si       8.74809098       5.80371500       1.98701653
Si       4.53388867       2.69534677       5.46896898
Si      -2.46792584       6.42411175       4.36110469
Si      -1.27894402       1.20736598       3.84852460
Si       6.47608546       0.20440271       3.40830765
Si      -0.49056788      -0.63377131       5.19609887
Si       5.09547460       1.45772037       3.97426639
Si       3.21431169       5.30321315       1.84583242
Si       1.95186640       3.76055364       3.37334871
Si      -1.21859597       3.15050883       5.08434173
Si       1.28239139       4.92014434       0.57592753
Si       0.52384774       5.42291204       2.78670170
Si       4.55257475       2.70979955       1.02621415
Si       3.91863130       2.81323469       3.17541692
Si       0.98407942       3.84242971       5.72826023
Si      -0.22835341       5.88073186       5.69612999
20
Lattice="9.98480178147378 1.1588323636409101 1.650656876102748 -1.1704131315860022 9.333086576605664 0.2673171373796074 -3.1990913809841595 -3.8282318544525618 5.5576851101851865" Properties=species:S:1:pos:R:3 unique_starting_index=76 config_type=initial n_minim_iter=12 stress="0.005144446790063286 0.000648508616513491 -7.342922138899576e-05 0.000648508616513491 0.002945983359638194 0.0038855398897707635 -7.342922138899576e-05 0.0038855398897707635 0.001959535695010594" pbc="T T T"
Si       6.47728307       1.50802334       5.37388441
Si      -3.16183822      -1.38779283       5.17235377
Si       4.72269002       0.97601111       2.04654074
Si      -0.14866270       3.16504855       2.03110738
Si       8.88028217       6.01234369       2.01550969
Si       4.55512158       2.79570312       5.38704978
Si      -2.32000233       6.63443731       4.36013611
Si      -1.24533424       1.31711321       3.71435827
Si       6.51549366       0.23426099       3.34041964
Si      -0.50941526      -0.53514550       5.05378284
Si       5.21538608       1.62755751       3.89322742
Si       3.20642920       5.44849841       1.84698694
Si       1.94895426       3.89865245       3.28358322
Si      -1.18235805       3.22390132       4.99999370
Si       1.29178993       5.04779949       0.56973621
Si       0.49471721       5.57329227       2.76395168
Si       4.60249923       2.77681044       0.98068830
Si       3.92263939       2.85087206       3.12058568
Si       0.99641244       3.98135410       5.65011276
Si      -0.17634101       6.06621956       5.59725966
20
Lattice="10.034209584467837 1.195146290728926 1.6734485240306272 -1.1355336121613964 9.355504333229284 0.19552090644441394 -3.2083973656350446 -3.9029875733431143 5.550294868222514" Properties=species:S:1:pos:R:3 unique_starting_index=76 config_type=initial n_minim_iter=13 stress="0.004603105746040528 0.0013230161354928864 0.0004778994068244564 0.0013230161354928864 0.0015321380370777143 0.0012443678106116198 0.0004778994068244564 0.0012443678106116198 0.0022335035608781893" pbc="T T T"
Si       6.58304639       1.53887542       5.34809880
Si      -3.14496716      -1.46013985       5.13745061
Si       4.75081789       0.99902317       2.03511807
Si      -0.11113127       3.14977103       2.01054476
Si       8.96416372       6.05166918       2.02195246
Si       4.58478087       2.76714381       5.38920675
Si      -2.21630772       6.64392524       4.32627457
Si      -1.22779200       1.28978839       3.64992990
Si       6.54612275       0.21394501       3.35661882
Si      -0.51217137      -0.53118589       5.02444724
Si       5.29263052       1.64652241       3.87058793
Si       3.21071959       5.44455205       1.82883534
Si       1.93372720       3.88183918       3.23664972
Si      -1.15490193       3.17275188       4.96631396
Si       1.28320476       5.04884586       0.52368010
Si       0.48039694       5.57814131       2.71258201
Si       4.62826444       2.76749462       0.94065489
Si       3.95951440       2.79887310       3.10507600
Si       1.03121207       3.95942654       5.61738832
Si      -0.12741846       6.04988907       5.54324684
20
Lattice="10.055939325439233 1.1893141801179268 1.6979589451358048 -1.142050110118364 9.384810601446848 0.18227004096876062 -3.186693138522132 -3.9120695077001195 5.490834995478865" Properties=species:S:1:pos:R:3 unique_starting_index=76 config_type=initial n_minim_iter=14 stress="0.0013187975689683954 -0.001209945644537759 0.0012132254638456878 -0.001209945644537759 0.00033710904733457413 -0.0010291768628614194 0.0012132254638456878 -0.0010291768628614194 0.0007164988984534505" pbc="T T T"
Si       6.68002795       1.58248691       5.30296568
Si      -3.09862655      -1.46386341       5.07233902
Si       4.77924887       1.01974018       2.02409594
Si      -0.08677433       3.14597470       1.99958778
Si       8.99995934       6.05899994       2.06348170
Si       4.59798334       2.75103560       5.38382094
Si      -2.13372088       6.70702912       4.31088080
Si      -1.22048544       1.28007030       3.57161648
Si       6.55950252       0.18658837       3.35683698
Si      -0.50534128      -0.46787826       4.96577097
Si       5.35647377       1.65482029       3.84557375
Si       3.17704875       5.43696955       1.83619882
Si       1.89000109       3.87256261       3.20788089
Si      -1.13710196       3.17114261       4.93601336
Si       1.24694126       5.04843862       0.50848577
Si       0.43554686       5.60684964       2.67678239
Si       4.62369223       2.72310691       0.90748020
Si       3.96412196       2.76429263       3.09314187
Si       1.05579792       3.98333071       5.57790727
Si      -0.09172343       6.08837864       5.50866490
20
Lattice="10.027736317681352 1.265107674802027 1.6629986842492221 -1.0739017425123962 9.409108815530066 0.1992390523541739 -3.22230350029711 -3.93904599309462 5.477105973048727" Properties=species:S:1:pos:R:3 unique_starting_index=76 config_type=initial n_minim_iter=15 stress="-0.007322684269787384 0.005046985127086191 -0.0029967048672108134 0.005046985127086191 -0.004969060115195059 0.0005090366053410926 -0.0029967048672108134 0.0005090366053410926 -0.00238055829815218" pbc="T T T"
Si       6.66784485       1.64688486       5.24583551
Si      -3.08871525      -1.47216692       5.07112111
Si       4.78715713       1.08076851       1.99826513
Si      -0.06812071       3.14640852       1.99798544
Si       9.00589373       6.14474794       2.04941747
Si       4.58724239       2.79719631       5.36770093
Si      -2.07452635       6.74862852       4.31926946
Si      -1.23393438       1.24659350       3.54719757
Si       6.52143260       0.23239130       3.32427729
Si      -0.53010826      -0.43956203       4.95090247
Si       5.33289930       1.68953184       3.80936493
Si       3.18499595       5.46587987       1.83793686
Si       1.86651323       3.87759624       3.21111692
Si      -1.13435525       3.18613285       4.94357413
Si       1.26150948       5.06629537       0.51081710
Si       0.44709472       5.65342041       2.65677794
Si       4.60897594       2.73069042       0.87250548
Si       3.97834318       2.80383890       3.07734114
Si       1.07696981       4.03193805       5.55865318
Si      -0.05006717       6.13626430       5.52346220
20
Lattice="10.06429059922143 1.2606793757672663 1.6719401260569602 -1.0866886504294557 9.410297590052853 0.20768424215113684 -3.221582633560058 -3.927096422249537 5.450700567244216" Properties=species:S:1:pos:R:3 unique_starting_index=76 config_type=initial n_minim_iter=16 stress="-0.0029161780667198364 0.0007377939678995047 -0.0009393894459935892 0.0007377939678995047 -0.004896182405825208 -0.001649435631880754 -0.0009393894459935892 -0.001649435631880754 -0.0038821723678718043" pbc="T T T"
Si       6.70835694       1.65561655       5.22599877
Si      -3.06410867      -1.44903098       5.04958745
Si       4.83012549       1.10908703       1.99572781
Si      -0.06417595       3.13768050       1.99777557
Si       9.03651473       6.14055902       2.07473081
Si       4.60800034       2.79262583       5.36929146
Si      -2.05534131       6.78587173       4.32066616
Si      -1.23574142       1.24483827       3.51385627
Si       6.54260159       0.21947867       3.31710447
Si      -0.53087064      -0.40679304       4.93449816
Si       5.36786454       1.68307570       3.80335538
Si       3.16477009       5.45057898       1.84853378
Si       1.84887216       3.86063660       3.21114976
Si      -1.13584636       3.18994896       4.94533298
Si       1.25331258       5.06502538       0.51490147
Si       0.42385499       5.67245879       2.63865246
Si       4.60775475       2.69242052       0.85824784
Si       3.98560997       2.80806799       3.07072408
Si       1.08867480       4.05584716       5.55064190
Si      -0.03090393       6.15530199       5.53209994
20
Lattice="9.975549897065713 1.251430571460006 1.724906970221072 -1.0796327421495433 9.499944643147428 0.2420471945265887 -3.1618519269157255 -3.9228220953423327 5.476736696869901" Properties=species:S:1:pos:R:3 unique_starting_index=76 config_type=initial n_minim_iter=17 stress="-0.0018379598884283707 -0.0023582650296538844 -0.00017871199284886905 -0.0023582650296538844 0.0037384795113291594 -0.0006434899673921309 -0.00017871199284886905 -0.0006434899673921309 0.0013555302222455108" pbc="T T T"
Si       6.63765272       1.64810304       5.29481019
Si      -2.97851927      -1.39852692       5.09493428
Si       4.82898822       1.13361664       2.04330628
Si      -0.06224261       3.16490402       2.02322059
Si       8.94789755       6.18315279       2.15058940
Si       4.60085969       2.83041436       5.44090854
Si      -2.03034106       6.89406818       4.36694922
Si      -1.20625383       1.27312822       3.54158322
Si       6.49652507       0.20950009       3.35695052
Si      -0.49895681      -0.39117745       4.98975732
Si       5.31010746       1.68914026       3.86692381
Si       3.12539374       5.49352594       1.89599321
Si       1.84326805       3.88566569       3.27862422
Si      -1.10438993       3.24795238       5.01355307
Si       1.25529829       5.11887284       0.54939565
Si       0.43125877       5.75021731       2.66146091
Si       4.54748228       2.69598759       0.88043620
Si       3.96443639       2.87565827       3.11896561
Si       1.11043223       4.13320809       5.61668392
Si       0.01299403       6.23883507       5.62763034
20
Lattice="10.011087514388317 1.289436848299097 1.7504420961883187 -1.0576330944133019 9.415036281250556 0.27768501411805 -3.168127830617725 -3.8753397560413423 5.476743450166413" Properties=species:S:1:pos:R:3 unique_starting_index=76 config_type=initial n_minim_iter=18 stress="-0.0003938455063819197 -0.0013518475079335203 -0.0002494500359956163 -0.0013518475079335203 -0.0008402963630262139 0.0007586598417319843 -0.0002494500359956163 0.0007586598417319843 -0.0010688655991672562" pbc="T T T"
Si       6.64739699       1.65538945       5.31802107
Si      -2.94136956      -1.34473830       5.11310600
Si       4.88717267       1.17825517       2.06709005
Si      -0.05540502       3.13133354       2.04017508
Si       8.98561479       6.17862028       2.20743740
Si       4.64017995       2.84045991       5.47331967
Si      -2.00524323       6.87143459       4.40155443
Si      -1.18748798       1.29007434       3.54475832
Si       6.52214773       0.23700223       3.36662926
Si      -0.48842877      -0.36950014       5.01718971
Si       5.32372283       1.70796112       3.90325753
Si       3.12291411       5.45980599       1.92914658
Si       1.85893030       3.85465042       3.31905235
Si      -1.08774419       3.22616504       5.05759810
Si       1.28564318       5.09364596       0.57305580
Si       0.44117575       5.72325412       2.66655267
Si       4.54863779       2.67661168       0.88709686
Si       3.99230557       2.91219680       3.14069084
Si       1.13636192       4.13775808       5.65478185
Si       0.06071899       6.20329558       5.69182914
20
Lattice="10.059067110227835 1.4060999947097337 1.7572482628507309 -0.9655006825889422 9.45926767633326 0.28207021358607026 -3.2149377359194733 -3.930674018289399 5.481429378045853" Properties=species:S:1:pos:R:3 unique_starting_index=76 config_type=initial n_minim_iter=19 stress="0.0015053299805649417 0.0004974610114829917 -0.0007019836701263987 0.0004974610114829917 0.002099924087735569 -0.00010681214253920439 -0.0007019836701263987 -0.00010681214253920439 0.00092934571439543" pbc="T T T"
Si       6.70364846       1.73576107       5.31591437
Si      -2.92379325      -1.36008750       5.12564969
Si       4.95050813       1.25464800       2.07923751
Si      -0.02354269       3.13245473       2.04479735
Si       9.08276235       6.31791324       2.24139872
Si       4.68273864       2.88491420       5.48045544
Si      -1.91701791       6.91301075       4.41819118
Si      -1.16457155       1.31139497       3.52995040
Si       6.54455488       0.29761447       3.36785994
Si      -0.48606487      -0.35223724       5.02559602
Si       5.36454970       1.78469484       3.92298137
Si       3.14929710       5.53003070       1.93447221
Si       1.88460613       3.88790141       3.33364234
Si      -1.04906149       3.21530788       5.08131271
Si       1.33803763       5.14058896       0.56824311
Si       0.46774570       5.75322965       2.65357272
Si       4.57343028       2.72239430       0.86911120
Si       4.02450300       2.98390698       3.14698454
Si       1.17485104       4.16815493       5.66521363
Si       0.14265312       6.23140050       5.71419328
20