24
Lattice="9.33753471419369 0.9840915354500799 0.7713280875544588 -3.4050150115590414 5.740712534422284 0.9552805179810063 0.3604695420459656 1.225208231909983 8.58989524172545" Properties=species:S:1:pos:R:3 unique_starting_index=90 config_type=initial n_minim_iter=1 energy=-3907.87778911895 free_energy=-3907.87778911895 pbc="T T T"
Si       7.70783128       1.39822033       5.90248483
Si       2.05230929       3.65535086       0.67185338
Si       6.06965485       5.40707819       3.75373131
Si       1.80455167       0.33288985       2.07628947
Si       4.66770816       4.07425209       9.87959317
Si      -1.14473889       5.01013540       8.20037521
Si       1.38880215       1.85128410       3.96936232
Si       3.04561692       5.08689408       6.98587940
Si      -0.58532311       6.68801384       6.60261359
Si       6.05080683       2.78060433       7.31304964
Si       2.81124120       3.46747650       3.01578283
Si       4.26682076       6.94250794       3.67349048
Si       4.06535717       6.47687469       1.16649063
Si       9.09563087       3.84897304       8.38297415
Si      -0.15427761       4.12478838       1.49334969
Si      -1.53548415       8.42431702       9.57744971
Si      -0.86901829       2.23378055       3.02861509
Si       6.10199898       5.91449724      10.08796445
Si       3.63817378       2.73350603       6.99272394
Si      -0.01416472       3.36543490       5.35378772
Si       1.13671482       5.40279054       5.67954132
Si       4.08182563       0.49822479       1.36598590
Si       7.01201262       4.16703432       5.54903280
Si       2.38238692       5.62800166       3.76001082
24
Lattice="9.33858813164447 0.9864624125894756 0.7740602260318914 -3.4024944663415364 5.729698509646082 0.9551984655102242 0.36390320953971783 1.2263085787627295 8.581608878055109" Properties=species:S:1:pos:R:3 unique_starting_index=90 config_type=initial n_minim_iter=2 stress="-0.0009752643684492516 -0.00022165405982056658 7.93653197293424e-06 -0.00022165405982056658 -0.0007008934668424644 -0.00013939170053520913 7.93653197293424e-06 -0.00013939170053520913 -0.0007941598030191149" pbc="T T T"
Si       7.71090128       1.40095740       5.89926293
Si       2.05393373       3.65016012       0.67338328
Si       6.07328925       5.40147737       3.75400484
Si       1.80553811       0.33389861       2.07450455
Si       4.67287128       4.07251058       9.87271306
Si      -1.14035711       5.00394116       8.19366352
Si       1.39112203       1.84999764       3.96624907
Si       3.05048012       5.08194900       6.98167530
Si      -0.58058990       6.67875929       6.59797506
Si       6.05484084       2.78077689       7.30818791
Si       2.81376449       3.46367915       3.01496529
Si       4.27125620       6.93340450       3.67380884
Si       4.06866675       6.46779607       1.16874018
Si       9.10048716       3.84914990       8.37883260
Si      -0.15208875       4.11795654       1.49326743
Si      -1.52879170       8.41249413       9.57019124
Si      -0.86724212       2.23054048       3.02581765
Si       6.10813311       5.91058263      10.08167523
Si       3.64185721       2.73257847       6.98802633
Si      -0.01072989       3.36152247       5.34952028
Si       1.14066499       5.39579609       5.67588366
Si       4.08282189       0.49973006       1.36606402
Si       7.01583506       4.16447889       5.54714871
Si       2.38567045       5.62038896       3.75917676
24
Lattice="9.361044658452666 0.9961586414731028 0.7793197479574756 -3.4036953658315037 5.722355448417231 0.9586502465969977 0.3698485550125329 1.2326172586696262 8.586056204118236" Properties=species:S:1:pos:R:3 unique_starting_index=90 config_type=initial n_minim_iter=3 stress="0.0012971724181758406 0.0003437805039099388 0.00046011968763518365 0.0003437805039099388 -0.0003913517491980406 0.00024359072716289277 0.00046011968763518365 0.00024359072716289277 3.016286247823207e-05" pbc="T T T"
Si       7.73303688       1.41240060       5.90521954
Si       2.06213964       3.65039383       0.67822339
Si       6.09405455       5.40648661       3.76294687
Si       1.81108064       0.33743515       2.07525816
Si       4.69202550       4.08185731       9.88260269
Si      -1.13531042       5.00550152       8.20140810
Si       1.39848004       1.85295780       3.96940182
Si       3.06676798       5.08725860       6.99015091
Si      -0.57257456       6.67895772       6.60548040
Si       6.07514930       2.79052610       7.31476302
Si       2.82505837       3.46626268       3.02047433
Si       4.29035687       6.93509593       3.68326241
Si       4.08549398       6.46820059       1.17537871
Si       9.12908498       3.86290285       8.38935493
Si      -0.14745934       4.11532007       1.49712917
Si      -1.51897367       8.41186548       9.58018056
Si      -0.86588459       2.22997412       3.02776903
Si       6.13283408       5.92119818      10.09271500
Si       3.65627724       2.73930445       6.99543819
Si      -0.00406951       3.36321945       5.35433026
Si       1.15075277       5.39697875       5.68256457
Si       4.09369718       0.50539703       1.36852769
Si       7.03838431       4.17260967       5.55566807
Si       2.39748359       5.62110328       3.76686639
24
Lattice="9.34579526989209 1.0062994567206904 0.7653101485455791 -3.394134778707991 5.720764849248517 0.9703829786916723 0.35608646881372014 1.240740066336302 8.595257282555233" Properties=species:S:1:pos:R:3 unique_starting_index=90 config_type=initial n_minim_iter=4 stress="-8.275877556611327e-05 0.0009127489513736368 -0.0005493958482885474 0.0009127489513736368 3.402045496732438e-05 0.0008875148393073256 -0.0005493958482885474 0.0008875148393073256 0.00028310081821516993" pbc="T T T"
Si       7.71521017       1.42391103       5.89520129
Si       2.05860580       3.65570271       0.68232007
Si       6.08222133       5.41602956       3.76320906
Si       1.80599455       0.34164809       2.06944754
Si       4.67163996       4.09504182       9.89194019
Si      -1.14843573       5.01321979       8.22156833
Si       1.39365010       1.85712906       3.97038294
Si       3.05906773       5.09985661       6.99805964
Si      -0.57906174       6.68924020       6.61840907
Si       6.05793219       2.80170509       7.30902098
Si       2.81867601       3.47163597       3.02310247
Si       4.28595465       6.94207089       3.68864946
Si       4.08495399       6.47591519       1.17157163
Si       9.10588160       3.88192068       8.38699170
Si      -0.14612076       4.11529564       1.50248658
Si      -1.52402309       8.42003628       9.60054691
Si      -0.86900834       2.23043095       3.03146346
Si       6.11286605       5.94026361      10.09661522
Si       3.64258396       2.74658083       7.00319955
Si      -0.00657456       3.36873505       5.36268740
Si       1.14162472       5.40239916       5.68994834
Si       4.08782966       0.51349275       1.36215818
Si       7.02203383       4.18324217       5.55296998
Si       2.38782251       5.62664139       3.77466040
24
Lattice="9.344916872313402 0.985119983542529 0.7695013954905305 -3.4055985492236465 5.724661096576721 0.9556273867379314 0.3591842213107536 1.2204402031357764 8.596278927965454" Properties=species:S:1:pos:R:3 unique_starting_index=90 config_type=initial n_minim_iter=5 stress="0.00014051933083986156 -0.0007192033239603046 0.00043987274636433053 -0.0007192033239603046 -0.000891890865732677 -0.00012439106759448213 0.00043987274636433053 -0.00012439106759448213 0.0008278058012793268" pbc="T T T"
Si       7.72121965       1.39223998       5.89313897
Si       2.04771466       3.65220118       0.68047317
Si       6.07261975       5.39299965       3.75878318
Si       1.80821135       0.33358421       2.06350406
Si       4.66950952       4.06178436       9.89538213
Si      -1.16197714       4.99765193       8.22012025
Si       1.39540211       1.84367373       3.96500641
Si       3.05850409       5.08044705       6.99381587
Si      -0.59271502       6.67972380       6.60520673
Si       6.06039230       2.76958331       7.30158390
Si       2.81326647       3.45753802       3.02014277
Si       4.27584374       6.92123493       3.68106328
Si       4.07477422       6.46638157       1.15480579
Si       9.10588804       3.84652327       8.38893799
Si      -0.15452369       4.10897999       1.49399606
Si      -1.53475752       8.40047656       9.58526052
Si      -0.87412754       2.22248356       3.02308454
Si       6.10830922       5.90808606      10.09000713
Si       3.64329155       2.71853263       7.00876680
Si      -0.00567435       3.35629583       5.35735868
Si       1.12971732       5.38420831       5.67940213
Si       4.09117708       0.50567901       1.36184841
Si       7.01792014       4.15271084       5.55012696
Si       2.37219273       5.61091907       3.76971098
24
Lattice="9.34862971793871 0.9951277506169088 0.7629916801990334 -3.4017130027505966 5.732143512198726 0.9490750616826696 0.3571629279435348 1.215229331031225 8.572532957575216" Properties=species:S:1:pos:R:3 unique_starting_index=90 config_type=initial n_minim_iter=6 stress="0.00013379943928737987 0.00013235916242115275 0.0003456108330353995 0.00013235916242115275 0.0006223082399322008 -0.0004109427047532009 0.0003456108330353995 -0.0004109427047532009 -0.0007884464711390605" pbc="T T T"
Si       7.72528876       1.39588470       5.87018862
Si       2.05005858       3.66223059       0.67652267
Si       6.07789915       5.40537062       3.74239922
Si       1.80909381       0.33388755       2.05375439
Si       4.67075687       4.06549718       9.86688101
Si      -1.16388160       5.00001314       8.19669608
Si       1.39690535       1.84443343       3.95035093
Si       3.06335863       5.08816392       6.97093745
Si      -0.59103480       6.68815609       6.58214631
Si       6.06391221       2.77241636       7.27345985
Si       2.81616033       3.46411000       3.00871885
Si       4.28228714       6.93402626       3.66497263
Si       4.08275904       6.48351022       1.14185395
Si       9.10999552       3.85676543       8.36024282
Si      -0.15199251       4.11464378       1.48675969
Si      -1.53073837       8.40754979       9.55311862
Si      -0.87444917       2.22226585       3.01163653
Si       6.11139870       5.91806865      10.05570636
Si       3.64507384       2.71926493       6.98979492
Si      -0.00289177       3.35749482       5.34036783
Si       1.13104854       5.39032948       5.65934328
Si       4.09405254       0.51076464       1.35484198
Si       7.02262196       4.16116546       5.52867487
Si       2.37420483       5.62063826       3.75576750
24
Lattice="9.352787611047164 1.003647712225182 0.7169128346461938 -3.403901195329694 5.725318963125813 0.9722598048965515 0.31497815975603094 1.2227363965528335 8.57595453982003" Properties=species:S:1:pos:R:3 unique_starting_index=90 config_type=initial n_minim_iter=7 stress="8.921490598252078e-05 0.00012937804074354196 -0.002451729588882884 0.00012937804074354196 6.485342451771675e-05 0.0007067119332296195 -0.002451729588882884 0.0007067119332296195 -0.0005644908440642523" pbc="T T T"
Si       7.71488067       1.40286671       5.81906886
Si       2.04560938       3.66740557       0.67798022
Si       6.06848948       5.40772484       3.72217546
Si       1.80364328       0.33399895       2.03101475
Si       4.62716537       4.08007171       9.86591416
Si      -1.21190902       5.00878761       8.21607662
Si       1.38160458       1.84648011       3.93659437
Si       3.04079170       5.09652871       6.97012914
Si      -0.62700509       6.69187036       6.59828607
Si       6.04268254       2.77429244       7.22890258
Si       2.80523036       3.46677051       3.00368721
Si       4.26908125       6.92545264       3.65939211
Si       4.09151562       6.49050185       1.11756107
Si       9.07941696       3.87855643       8.32314817
Si      -0.16044904       4.10833344       1.49686436
Si      -1.57139293       8.41319727       9.57356945
Si      -0.89160285       2.21846045       3.01155229
Si       6.06293651       5.93470141      10.03641992
Si       3.61821621       2.72196153       6.99274108
Si      -0.02086729       3.35552652       5.34627838
Si       1.09951307       5.39113779       5.66729829
Si       4.09787739       0.52172921       1.32697432
Si       7.00810292       4.16403264       5.49752271
Si       2.35420800       5.62180288       3.75892463
24
Lattice="9.323423536075142 1.0331015233790732 0.7324669522236373 -3.373175564876034 5.721498889563728 0.9732803635245875 0.3291171852563538 1.2293173704856892 8.602675355453359" Properties=species:S:1:pos:R:3 unique_starting_index=90 config_type=initial n_minim_iter=8 stress="-0.0024902283588031093 0.0014246040018062308 -0.0006876652997941746 0.0014246040018062308 0.0007460458651877266 0.0012813910286537493 -0.0006876652997941746 0.0012813910286537493 0.0009497410568963366" pbc="T T T"
Si       7.71174934       1.42586960       5.83157819
Si       2.04513511       3.68313608       0.69189366
Si       6.06905260       5.43137733       3.74744032
Si       1.80445865       0.33617420       2.02576313
Si       4.63528617       4.10872175       9.91860379
Si      -1.18976134       5.02076348       8.24339803
Si       1.38832692       1.85349053       3.94048943
Si       3.05912426       5.11607204       7.00485253
Si      -0.60313314       6.70132911       6.62516910
Si       6.04820031       2.78987326       7.23985571
Si       2.80876959       3.48088691       3.02300755
Si       4.27390953       6.93582701       3.68712003
Si       4.10363293       6.51798567       1.12018662
Si       9.07055388       3.92287465       8.36378501
Si      -0.15051049       4.10917874       1.50906049
Si      -1.52602961       8.42799817       9.60351604
Si      -0.88030944       2.21604862       3.01265845
Si       6.06417406       5.96938503      10.07936969
Si       3.62627634       2.73540836       7.03582680
Si       0.00158762       3.35624191       5.36380380
Si       1.11174937       5.40264276       5.69607095
Si       4.09325616       0.54107924       1.32747339
Si       7.00872106       4.18678449       5.52309068
Si       2.36153875       5.63688241       3.78433988
24
Lattice="9.363663717096799 1.0289992242411183 0.703661867481592 -3.391694986868815 5.723938370274973 0.9505139121813087 0.31056661066932884 1.189016534224792 8.5701637358116" Properties=species:S:1:pos:R:3 unique_starting_index=90 config_type=initial n_minim_iter=9 stress="0.0005587998853347981 -0.0006277812094990782 7.636676102906291e-05 -0.0006277812094990782 -7.58204442223905e-05 -0.0005061840270890802 7.636676102906291e-05 -0.0005061840270890802 0.001020706076992232" pbc="T T T"
Si       7.76143377       1.38603215       5.75071707
Si       2.04535723       3.69499208       0.67911207
Si       6.09382539       5.41446473       3.69884157
Si       1.81656352       0.30898233       1.98627330
Si       4.62988945       4.08306014       9.89376509
Si      -1.22482961       5.00230199       8.19012450
Si       1.38256011       1.83483206       3.89228578
Si       3.05833567       5.08492100       6.97021577
Si      -0.63812351       6.67250569       6.59074696
Si       6.08151982       2.73264231       7.14311115
Si       2.81034130       3.47379190       3.00307610
Si       4.26276097       6.89827586       3.64793465
Si       4.13057800       6.54153659       1.05999006
Si       9.08907433       3.90611418       8.29957223
Si      -0.17292887       4.10125338       1.50273437
Si      -1.55394509       8.41162888       9.53494971
Si      -0.89534234       2.19681991       2.97739911
Si       6.04218177       5.93372802      10.01344592
Si       3.63338076       2.69937968       7.02642108
Si      -0.00422815       3.31841027       5.33188999
Si       1.09065020       5.38245152       5.67567501
Si       4.12402092       0.54569723       1.28506781
Si       7.04448265       4.15370446       5.46156900
Si       2.35297478       5.62668885       3.75812670
24
Lattice="9.375852536652138 1.044092491062937 0.712946352065982 -3.3889483331622263 5.740953964095816 0.965579360617459 0.32125790391463716 1.2297456407981806 8.521841045984303" Properties=species:S:1:pos:R:3 unique_starting_index=90 config_type=initial n_minim_iter=10 stress="0.0001222989070903585 -0.0011158941519676818 0.0015356002861943094 -0.0011158941519676818 0.0010977051168662292 0.0025475696940168518 0.0015356002861943094 0.0025475696940168518 -0.0038999505556829867" pbc="T T T"
Si       7.78497172       1.40767459       5.71076361
Si       2.05398943       3.71751026       0.69588982
Si       6.11609936       5.45451641       3.70134904
Si       1.82807996       0.30410125       1.96947970
Si       4.64351180       4.14931345       9.87094305
Si      -1.21887808       5.05110639       8.15625730
Si       1.39017351       1.85533011       3.87362728
Si       3.07129615       5.12744091       6.96189651
Si      -0.63105469       6.72036409       6.58498783
Si       6.11132167       2.76125039       7.09440136
Si       2.81300052       3.50339208       3.01231634
Si       4.27194956       6.93431362       3.66303708
Si       4.14506218       6.58525820       1.09198843
Si       9.10826212       3.96791435       8.27351088
Si      -0.18470791       4.12168378       1.52085519
Si      -1.54177636       8.48939923       9.51140435
Si      -0.89075914       2.21103016       2.95644917
Si       6.06636900       6.00132613       9.97706688
Si       3.65363126       2.74127880       7.00324574
Si       0.00599648       3.34785844       5.31125605
Si       1.10846439       5.42036867       5.67446183
Si       4.13997143       0.56307643       1.26447591
Si       7.07283082       4.19600840       5.44408079
Si       2.35221688       5.65894505       3.77242099
24
Lattice="9.388622981739875 1.0999045720060399 0.6910689018465873 -3.3571140281228096 5.7087786843905475 0.953169525273812 0.3129983774107437 1.2041296372156034 8.505495057176795" Properties=species:S:1:pos:R:3 unique_starting_index=90 config_type=initial n_minim_iter=11 stress="-0.00045792073536851094 0.0018754060137747644 0.0011873815330780096 0.0018754060137747644 -0.00034047442758101867 0.00046585575836274504 0.0011873815330780096 0.00046585575836274504 -0.005379189234289496" pbc="T T T"
Si       7.79949612       1.41899083       5.66002359
Si       2.07875021       3.73283104       0.68557932
Si       6.15530023       5.47790774       3.66412935
Si       1.83724435       0.28970413       1.95123167
Si       4.64706808       4.15214094       9.85871357
Si      -1.21300824       5.01224258       8.13015957
Si       1.39600532       1.84573098       3.85442524
Si       3.09119108       5.11308841       6.94442145
Si      -0.60897632       6.68969550       6.56580453
Si       6.13690004       2.75371165       7.03513555
Si       2.82288262       3.51240093       3.00571192
Si       4.30490063       6.93519357       3.63540396
Si       4.19185123       6.61988600       1.06953230
Si       9.12111781       4.00390514       8.23376025
Si      -0.18309392       4.11270050       1.51908497
Si      -1.51260034       8.45724647       9.47760767
Si      -0.88331318       2.18736789       2.93299328
Si       6.09042273       6.00462691       9.92726562
Si       3.66843730       2.73853408       6.98714635
Si       0.02021274       3.32362400       5.29142913
Si       1.13670284       5.39873301       5.66159951
Si       4.15722540       0.59394335       1.22853400
Si       7.10828783       4.21785958       5.40006558
Si       2.36596702       5.65159437       3.75991677
24
Lattice="9.387242826630402 1.136217209116882 0.6538421205311905 -3.3372934203689293 5.694391448367884 0.9618306712718429 0.2828199096274268 1.1938934147558125 8.526348384093708" Properties=species:S:1:pos:R:3 unique_starting_index=90 config_type=initial n_minim_iter=12 stress="-7.232694301631404e-06 0.0014785193806263362 0.00046827967328545494 0.0014785193806263362 -7.524347239064129e-05 -0.0003466633496989527 0.00046827967328545494 -0.0003466633496989527 -0.002158287022725946" pbc="T T T"
Si       7.80188898       1.40742803       5.59358430
Si       2.08529350       3.76097166       0.69150658
Si       6.16932809       5.50110705       3.63668369
Si       1.84978943       0.26267018       1.91997112
Si       4.60985134       4.17511424       9.90852337
Si      -1.24793189       5.00115865       8.15266644
Si       1.39002492       1.83790706       3.84237525
Si       3.08565816       5.10947429       6.97105185
Si      -0.62413676       6.68503884       6.59467517
Si       6.15049190       2.72997601       6.96542194
Si       2.80751828       3.52549482       3.02354102
Si       4.30001551       6.93175367       3.63509274
Si       4.22157223       6.67220552       1.05460929
Si       9.09661474       4.04776754       8.21650918
Si      -0.21102699       4.11098343       1.54094942
Si      -1.52386660       8.46916300       9.50501230
Si      -0.88801459       2.16744547       2.91365716
Si       6.06675848       6.02539701       9.91291575
Si       3.66424196       2.73752257       7.01233048
Si       0.02183009       3.31030539       5.29878205
Si       1.13123111       5.38734138       5.69212050
Si       4.17980940       0.62906442       1.16814472
Si       7.12395883       4.23402944       5.36340448
Si       2.34141526       5.65430273       3.77980369
24
Lattice="9.362132238500365 1.1559198074976913 0.6211800113652577 -3.3196910333104266 5.679395466976846 0.9849102464661512 0.24912739076383703 1.1962494156261805 8.587036737275618" Properties=species:S:1:pos:R:3 unique_starting_index=90 config_type=initial n_minim_iter=13 stress="1.6435889626028685e-05 -0.00035577612454342866 -0.0011807114254455213 -0.00035577612454342866 -0.0003632775101730814 -0.000957683741937668 -0.0011807114254455213 -0.000957683741937668 0.004063256080236976" pbc="T T T"
Si       7.76596995       1.37558444       5.55779997
Si       2.07945195       3.78708491       0.71069093
Si       6.15640945       5.51757179       3.62181042
Si       1.86669045       0.23554722       1.90443881
Si       4.55393265       4.20129046      10.00554679
Si      -1.28364287       4.99033573       8.21871119
Si       1.37845159       1.82641813       3.86474646
Si       3.06522262       5.10076890       7.03744093
Si      -0.63735983       6.68503151       6.66256634
Si       6.14544903       2.70188959       6.93703885
Si       2.77052458       3.53038289       3.06608716
Si       4.27313556       6.93022825       3.65834310
Si       4.22014618       6.70647696       1.08422365
Si       9.04381600       4.07636187       8.23886689
Si      -0.25369513       4.11328636       1.57377263
Si      -1.54937248       8.48691797       9.59908306
Si      -0.88883906       2.15075583       2.91246021
Si       6.02512980       6.04157106       9.94475353
Si       3.64913933       2.73806238       7.05683857
Si       0.01643312       3.31300303       5.33578767
Si       1.11343080       5.37148671       5.75828525
Si       4.19563453       0.66055952       1.10439135
Si       7.11202803       4.24696692       5.35338659
Si       2.30243122       5.66004791       3.81606673
24
Lattice="9.35304571156768 1.136726031036651 0.6498419738264942 -3.3280959481375154 5.704579632922314 0.9872849574423377 0.27181662779884647 1.2219312427628357 8.56405904257158" Properties=species:S:1:pos:R:3 unique_starting_index=90 config_type=initial n_minim_iter=14 stress="0.000434910403336933 -0.002754916779061166 -0.00031048718740299376 -0.002754916779061166 0.00017732222009149952 0.0010784183756193527 -0.00031048718740299376 0.0010784183756193527 0.001598421414267033" pbc="T T T"
Si       7.74752366       1.35115514       5.56633239
Si       2.05388032       3.80793712       0.74200938
Si       6.13551477       5.52824244       3.62328687
Si       1.88821819       0.25136569       1.90564616
Si       4.57936860       4.23253308       9.99597493
Si      -1.25800082       5.02530834       8.19836153
Si       1.38422004       1.82632076       3.87806308
Si       3.08541979       5.12022856       7.03877769
Si      -0.61189616       6.72013874       6.65574969
Si       6.16010146       2.70996316       6.94633344
Si       2.75881864       3.52857452       3.07784612
Si       4.25590578       6.95668857       3.67742416
Si       4.18555335       6.70085305       1.14542022
Si       9.05738653       4.07501908       8.24240334
Si      -0.26303206       4.13081937       1.56768297
Si      -1.53198932       8.52988039       9.60467985
Si      -0.87536575       2.16551240       2.91378954
Si       6.02093329       6.06816663       9.94527661
Si       3.66645353       2.74590779       7.04138660
Si       0.02788191       3.35146100       5.33358251
Si       1.09859245       5.39425630       5.75958950
Si       4.20416441       0.66335681       1.09821154
Si       7.09935756       4.25581028       5.36317922
Si       2.30785937       5.70624024       3.80053877
24
Lattice="9.35884761756628 1.1704133645381942 0.6405694838685767 -3.309394908509188 5.69693272471258 0.9842765652106831 0.269739209828874 1.2186959456901378 8.546294205533163" Properties=species:S:1:pos:R:3 unique_starting_index=90 config_type=initial n_minim_iter=15 stress="0.0003577297538350145 -0.001426144437733336 0.00022704384861929112 -0.001426144437733336 0.00025552031489779227 0.0006927810316125678 0.00022704384861929112 0.0006927810316125678 0.00010839653838311025" pbc="T T T"
Si       7.75727105       1.35525090       5.52241690
Si       2.06013580       3.83151002       0.74924371
Si       6.15595325       5.55432438       3.60175366
Si       1.90128529       0.24494801       1.88527659
Si       4.58519182       4.25703218       9.99334668
Si      -1.25427086       5.02366682       8.17820348
Si       1.38828644       1.82357137       3.86310810
Si       3.10290328       5.12554192       7.03305388
Si      -0.59729038       6.72083336       6.64845849
Si       6.18440914       2.71048070       6.89656776
Si       2.76082296       3.54013204       3.08013403
Si       4.26825548       6.96850513       3.67205739
Si       4.21042070       6.73567347       1.14327938
Si       9.06750590       4.11212154       8.21609708
Si      -0.26821306       4.13174716       1.57138224
Si      -1.50850238       8.53970459       9.58707364
Si      -0.86895359       2.15632915       2.89605466
Si       6.02694917       6.09399065       9.91349494
Si       3.68069108       2.75176011       7.03585294
Si       0.04070333       3.34898048       5.32096060
Si       1.10924509       5.39602811       5.75643760
Si       4.22268488       0.69104397       1.06461947
Si       7.12090327       4.27851917       5.33435996
Si       2.31298608       5.72222736       3.79560904
24
Lattice="9.358369850217137 1.2612617047454584 0.6240414648036384 -3.2501778405096533 5.660412694881948 0.9717912683554253 0.270169360800452 1.1996743149157783 8.525375010866687" Properties=species:S:1:pos:R:3 unique_starting_index=90 config_type=initial n_minim_iter=16 stress="-0.0004665108667058928 0.0034835549408958515 0.0005640597954937782 0.0034835549408958515 -0.0006674175730332474 -0.001368750306037152 0.0005640597954937782 -0.001368750306037152 -0.0022249648519112025" pbc="T T T"
Si       7.74721783       1.36739001       5.45546380
Si       2.07379705       3.87941442       0.76298115
Si       6.19879042       5.61546452       3.55197847
Si       1.92727766       0.24508966       1.86502237
Si       4.60918214       4.29348295       9.98919162
Si      -1.22140366       4.99050484       8.14183729
Si       1.39640556       1.80605317       3.85665187
Si       3.14444972       5.11370163       7.02590718
Si      -0.53503506       6.69721460       6.63758425
Si       6.22895533       2.72384493       6.82990541
Si       2.76897189       3.55803258       3.08437868
Si       4.31336942       7.00731293       3.66118083
Si       4.25683191       6.79292228       1.14653760
Si       9.08820509       4.17352416       8.17652106
Si      -0.26054751       4.11996524       1.56658445
Si      -1.42506762       8.52316187       9.56208818
Si      -0.84118002       2.13164023       2.87716749
Si       6.04737075       6.13800826       9.85554644
Si       3.71712977       2.75813952       7.02405802
Si       0.06921246       3.33769641       5.30148068
Si       1.16042941       5.38884708       5.73529611
Si       4.25689195       0.76291992       0.99095411
Si       7.15431671       4.33503466       5.28065616
Si       2.33626047       5.75207304       3.77173407
24
Lattice="9.33674967559251 1.2393987795541068 0.6077002412855842 -3.2604067366923815 5.6838100784144245 0.978254541489371 0.25127450647267907 1.2028423692561379 8.523254323461378" Properties=species:S:1:pos:R:3 unique_starting_index=90 config_type=initial n_minim_iter=17 stress="-0.0003589924888272261 0.000703994415045513 -0.0003059801319567769 0.000703994415045513 0.0009940209842596902 0.00047054781461930976 -0.0003059801319567769 0.00047054781461930976 -0.0014736879569418428" pbc="T T T"
Si       7.70723367       1.32382988       5.42258182
Si       2.03234502       3.90270800       0.77971218
Si       6.16293413       5.62347692       3.53636629
Si       1.92723618       0.25416114       1.86814509
Si       4.58205195       4.29831800       9.98681614
Si      -1.25184750       5.01006586       8.13640235
Si       1.37757320       1.78994830       3.86451091
Si       3.10927712       5.09078740       7.03137395
Si      -0.55913170       6.71052614       6.65374534
Si       6.21440180       2.71737061       6.81670300
Si       2.74643612       3.55782399       3.08343369
Si       4.28003781       7.03163508       3.68109098
Si       4.20819888       6.79799172       1.13140884
Si       9.05324480       4.13658746       8.16614320
Si      -0.26937024       4.10611789       1.56112451
Si      -1.43779344       8.55817988       9.56562992
Si      -0.84183919       2.14338493       2.89390891
Si       5.97776797       6.15221594       9.83503576