8
Lattice="4.988164506312936 -0.5738270287638819 -0.4356581229000576 0.5766440590540226 5.262439880714345 0.010725557712312341 0.44904356197329237 2.137789825076988 6.48539002966808" Properties=species:S:1:pos:R:3 unique_starting_index=84 config_type=initial n_minim_iter=16 energy=-1302.3605788689865 free_energy=-1302.3605788689865 pbc="T T T"
Si       3.82654849       2.89601830      -0.40065815
Si       2.18730364       3.93038438       6.46111562
Si       3.53821311       0.26511358      -0.40750923
Si       2.47563901       6.56128909       6.46796669
Si       0.77603420       6.77272365       4.73636887
Si       5.23781793       0.05367903       1.32408860
Si       5.47724944       3.56827967       4.29356687
Si       0.53660269       3.25812301       1.76689059
