24
Lattice="8.864861635705044 1.447978814207905 0.5301895630748176 -3.018601756051287 5.912737879376843 1.2025271532898592 0.13666656538403976 1.4756164935146743 8.827510136174638" Properties=species:S:1:pos:R:3 unique_starting_index=90 config_type=initial n_minim_iter=1 energy=-3909.1083299632005 free_energy=-3909.1083299632005 pbc="T T T"
Si       7.22238309       1.09200754       5.62331899
Si       2.00596442       3.83364490       0.70359041
Si       5.87774373       6.21088682       3.68941360
Si       2.02532513       0.06083877       1.90490617
Si       4.26971906       5.09378244      10.55914007
Si      -1.29681804       5.49489053       8.69316191
Si       1.15430204       2.25391353       4.40639054
Si       2.77472728       5.20734690       7.22584473
Si      -0.46062441       7.12246523       7.14871709
Si       5.93256948       2.87629217       6.46814896
Si       2.46779333       3.90507717       3.33562503
Si       4.12910108       7.38894088       4.54225879
Si       3.87584204       7.40263918       0.93208335
Si       8.39292597       4.84883690       8.52649997
Si      -0.08157587       4.18570213       1.77799448
Si      -1.35736053       8.94355910      10.17651971
Si      -0.77492658       2.21683794       3.01360027
Si       5.45318262       7.08420954      10.30381307
Si       3.59895961       2.94358297       7.37358185
Si      -0.14432611       3.79442291       5.71052916
Si       0.95801995       5.83749524       5.79716255
Si       4.73703930       1.58940452       0.70586388
Si       6.70327795       4.66356993       5.16148614
Si       2.16927466       6.22167711       3.80459058
24
Lattice="8.8826361563302 1.4414091317061064 0.5233385336284554 -3.0297602720100296 5.909674481302885 1.207462891436591 0.1284159912420801 1.4757601204147743 8.83729823609946" Properties=species:S:1:pos:R:3 unique_starting_index=90 config_type=initial n_minim_iter=2 stress="0.00047855698531925576 -9.919718512377967e-05 3.1993026245539335e-05 -9.919718512377967e-05 0.0009221150736752885 0.0001264628852098107 3.1993026245539335e-05 0.0001264628852098107 0.0008388187992934206" pbc="T T T"
Si       7.23249249       1.08756396       5.62345918
Si       2.00755234       3.82888096       0.70304731
Si       5.88341421       6.20267643       3.68913595
Si       2.02821688       0.05991582       1.90532765
Si       4.26681903       5.08836759      10.56763691
Si      -1.31052965       5.49233217       8.70463946
Si       1.15178764       2.25236627       4.41057576
Si       2.77122656       5.20219529       7.23202742
Si      -0.47239546       7.11778667       7.15842606
Si       5.93799213       2.87153394       6.47060129
Si       2.46773938       3.90072197       3.33784893
Si       4.12940493       7.38096337       4.54493640
Si       3.87895049       7.39416449       0.93084671
Si       8.40085487       4.84079911       8.52935398
Si      -0.08579642       4.18224358       1.78114131
Si      -1.37453089       8.93866993      10.19059508
Si      -0.78053066       2.21581062       3.01795967
Si       5.45163666       7.07655015      10.31177189
Si       3.59839458       2.94000510       7.37887738
Si      -0.15198193       3.79233512       5.71754774
Si       0.95151622       5.83293587       5.80347722
Si       4.74540938       1.58534683       0.70279152
Si       6.71044044       4.65615574       5.16218110
Si       2.16682693       6.21563523       3.80804517
24
Lattice="8.884632977052412 1.437726614184222 0.5189605191340195 -3.031863427539946 5.89978563354103 1.2072685762920514 0.12443992342720263 1.4722675952779842 8.830689922594459" Properties=species:S:1:pos:R:3 unique_starting_index=90 config_type=initial n_minim_iter=3 stress="-4.837520704011146e-05 -0.0002866030212596869 -0.00018163837019311723 -0.0002866030212596869 -0.0009910986520591974 0.00011140040294146733 -0.00018163837019311723 0.00011140040294146733 -0.0002751605818814132" pbc="T T T"
Si       7.23196890       1.08412295       5.61622840
Si       2.00765422       3.82142341       0.70091526
Si       5.88251615       6.19114592       3.68281104
Si       2.02826808       0.05939214       1.90316752
Si       4.26285327       5.07759448      10.55728730
Si      -1.31545117       5.48200493       8.69822480
Si       1.15015996       2.24849963       4.40664874
Si       2.76804533       5.19182615       7.22471721
Si      -0.47690560       7.10478991       7.15311105
Si       5.93639245       2.86552782       6.46311985
Si       2.46636093       3.89326245       3.33391324
Si       4.12746058       7.36740307       4.53908520
Si       3.87865407       7.38103234       0.92746741
Si       8.39918039       4.83021466       8.51895987
Si      -0.08703229       4.17456291       1.78011762
Si      -1.38041843       8.92286809      10.18322034
Si      -0.78230668       2.21166523       3.01601027
Si       5.44772057       7.06268894      10.30151294
Si       3.59558494       2.93353959       7.37146120
Si      -0.15513516       3.78535428       5.71305551
Si       0.94856292       5.82239509       5.79793322
Si       4.74580785       1.58204392       0.69996446
Si       6.70957757       4.64642630       5.15508856
Si       2.16489574       6.20432073       3.80392314
24
Lattice="8.897141626261288 1.4513181163709117 0.5141495015872359 -3.02675551725163 5.896530944434337 1.2001971112404544 0.12421482126729685 1.46284240290784 8.821144338872104" Properties=species:S:1:pos:R:3 unique_starting_index=90 config_type=initial n_minim_iter=4 stress="0.0010780961376862298 0.0008842822766785529 -0.00012124453536263575 0.0008842822766785529 -0.0002958836186975486 -0.000900348254409209 -0.00012124453536263575 -0.000900348254409209 -0.0005553601509065956" pbc="T T T"
Si       7.24124735       1.08889635       5.60855183
Si       2.01808498       3.82203389       0.69306537
Si       5.89699015       6.20097525       3.66755222
Si       2.03259831       0.06070637       1.90182665
Si       4.27289528       5.07170364      10.53888792
Si      -1.31219525       5.47150525       8.68402781
Si       1.15531976       2.25036733       4.39981872
Si       2.77601323       5.18798241       7.20911596
Si      -0.47126476       7.09842961       7.14143596
Si       5.94528473       2.87098264       6.45284611
Si       2.47377781       3.89420229       3.32509134
Si       4.14136865       7.37255828       4.52510871
Si       3.89387863       7.39037574       0.91536572
Si       8.41674701       4.83348660       8.50283439
Si      -0.08038765       4.17212182       1.77831344
Si      -1.37123247       8.91605949      10.16648108
Si      -0.78062559       2.20715445       3.01213320
Si       5.46203389       7.06298196      10.28445356
Si       3.60071721       2.93052492       7.35905946
Si      -0.15236644       3.78079669       5.70342281
Si       0.95726624       5.82184783       5.78348598
Si       4.75114844       1.58973855       0.69503677
Si       6.72424189       4.65065053       5.14334047
Si       2.17523007       6.20663074       3.79448573
24
Lattice="8.875463035188229 1.44502709026158 0.515311088726007 -3.0262402802812116 5.909928839434353 1.2108938744511948 0.12092445635312626 1.4790848851253273 8.828043571859428" Properties=species:S:1:pos:R:3 unique_starting_index=90 config_type=initial n_minim_iter=5 stress="1.9761429338001348e-05 -0.0005257538751830039 -0.0002707551763471554 -0.0005257538751830039 0.00036721423304719546 0.00012313200999151483 -0.0002707551763471554 0.00012313200999151483 -0.0005019825200929325" pbc="T T T"
Si       7.22412872       1.09133302       5.61361321
Si       2.01403636       3.81994092       0.69529698
Si       5.87555367       6.21420178       3.67317746
Si       2.03200054       0.06259359       1.90483614
Si       4.25697408       5.08728387      10.54838917
Si      -1.31834470       5.49292666       8.69681793
Si       1.15311554       2.26779195       4.40549158
Si       2.76118493       5.20040599       7.21601520
Si      -0.48388422       7.11919205       7.16230476
Si       5.92649489       2.88464882       6.46081059
Si       2.46271607       3.90099706       3.33138428
Si       4.12171910       7.38744870       4.53852941
Si       3.87652811       7.40058726       0.92450549
Si       8.39683206       4.84155412       8.51282569
Si      -0.08287761       4.17643031       1.79500820
Si      -1.37866419       8.95218111      10.19098131
Si      -0.78125716       2.21420444       3.01960378
Si       5.44076185       7.08500337      10.30371108
Si       3.58560173       2.94024000       7.36425483
Si      -0.15911745       3.79710075       5.71207598
Si       0.94847862       5.84233579       5.79145659
Si       4.73407774       1.58880892       0.69494254
Si       6.70548918       4.65472936       5.15284394
Si       2.16214812       6.22056360       3.80961946
24
Lattice="8.871772703761248 1.451618632077277 0.522150217074689 -3.0184307776652113 5.90183200347722 1.2124627930015353 0.1277249563143058 1.4799913826533933 8.843126172219582" Properties=species:S:1:pos:R:3 unique_starting_index=90 config_type=initial n_minim_iter=6 stress="-0.00013794859202826543 -5.839636375426554e-05 0.0003099543065101019 -5.839636375426554e-05 -0.0004003218190348801 1.1332258250933675e-05 0.0003099543065101019 1.1332258250933675e-05 0.0005318481427491256" pbc="T T T"
Si       7.22435127       1.09788882       5.62829269
Si       2.01746634       3.81693955       0.69778099
Si       5.87998732       6.21532969       3.68412107
Si       2.03302040       0.06489428       1.90995973
Si       4.26587618       5.08820734      10.56926655
Si      -1.30743642       5.48780769       8.71201220
Si       1.15798819       2.26954994       4.41435963
Si       2.76842801       5.19887312       7.22973373
Si      -0.47383946       7.11323029       7.17660517
Si       5.92918738       2.88959060       6.47607730
Si       2.46678216       3.90038816       3.33882412
Si       4.12835309       7.38547568       4.55053187
Si       3.88121001       7.39755757       0.92992153
Si       8.40253726       4.84582196       8.53333410
Si      -0.07730161       4.17174731       1.80079335
Si      -1.36309141       8.94580231      10.21040575
Si      -0.77679260       2.21146872       3.02532072
Si       5.44998043       7.08547580      10.32631436
Si       3.58999703       2.94178091       7.37876806
Si      -0.15223278       3.79558165       5.72229179
Si       0.95599197       5.83989654       5.80252741
Si       4.73223753       1.59140683       0.69892092
Si       6.70895901       4.65714740       5.16626831
Si       2.16866764       6.21765497       3.81907602
24
Lattice="8.870502514221805 1.466089600940055 0.5132777656008023 -3.0099475975845933 5.901516947867019 1.2199730398786306 0.12012816064300615 1.487949440807043 8.840636110873461" Properties=species:S:1:pos:R:3 unique_starting_index=90 config_type=initial n_minim_iter=7 stress="-0.00012403739739804168 0.0008418819791702939 -0.0004794424084545482 0.0008418819791702939 6.267818620904477e-07 0.0004695702841985205 -0.0004794424084545482 0.0004695702841985205 0.00010669867602160889" pbc="T T T"
Si       7.21700313       1.11299889       5.61986519
Si       2.02323959       3.82043505       0.69605588
Si       5.88451927       6.23240463       3.68115754
Si       2.03255050       0.06954423       1.90870627
Si       4.26112148       5.10511228      10.56344173
Si      -1.30827441       5.49316483       8.71609687
Si       1.15781393       2.27980020       4.41427258
Si       2.76687819       5.21016143       7.22460353
Si      -0.47332882       7.12096185       7.18150000
Si       5.92341544       2.90649651       6.46957425
Si       2.46852156       3.91003395       3.33567095
Si       4.13214742       7.40036503       4.55070455
Si       3.88945943       7.40925703       0.93015636
Si       8.39974324       4.86672894       8.52390109
Si      -0.07108130       4.17296979       1.80670318
Si      -1.35897730       8.95787565      10.21780109
Si      -0.77595973       2.21181718       3.02859932
Si       5.44626848       7.10480272      10.32201785
Si       3.58339011       2.95272247       7.37251613
Si      -0.15285901       3.80492343       5.72326420
Si       0.95490654       5.85125471       5.80319464
Si       4.73067599       1.59839865       0.69324079
Si       6.70760821       4.67435195       5.15818361
Si       2.17301690       6.22807764       3.81943311
24
Lattice="8.874152949583847 1.4691454073550856 0.5129068547610809 -3.010004703003002 5.912706571538686 1.2028222590556066 0.12435041317039625 1.4722801925735651 8.816103237608917" Properties=species:S:1:pos:R:3 unique_starting_index=90 config_type=initial n_minim_iter=8 stress="0.0008051639648398652 0.000661095298382818 0.0004734216819988286 0.000661095298382818 0.000666459788126729 -0.0009098656547154553 0.0004734216819988286 -0.0009098656547154553 -0.00043639992707157014" pbc="T T T"
Si       7.21961249       1.10033641       5.61119119
Si       2.03009364       3.81980229       0.67698476
Si       5.89468696       6.24851249       3.66241464
Si       2.04360347       0.06510202       1.91253711
Si       4.27139192       5.09275496      10.52539205
Si      -1.30314582       5.47551559       8.69143516
Si       1.16738360       2.29241724       4.40452964
Si       2.77019455       5.20167333       7.18273605
Si      -0.47936595       7.11698801       7.15534620
Si       5.92426923       2.90502827       6.45139126
Si       2.47316236       3.91832544       3.31016656
Si       4.13243667       7.41327288       4.52910084
Si       3.88950201       7.43048020       0.90978109
Si       8.41518953       4.85629631       8.49395570
Si      -0.06104037       4.16891139       1.80651940
Si      -1.34633189       8.96093651      10.18541519
Si      -0.77194054       2.20087617       3.02455526
Si       5.44846991       7.09513698      10.28479119
Si       3.58085889       2.93556356       7.34273776
Si      -0.14973214       3.81562642       5.70159646
Si       0.94327030       5.86214827       5.77454322
Si       4.72643073       1.59425237       0.68377996
Si       6.71051490       4.67774585       5.12833348
Si       2.17603048       6.23788678       3.79448455
24
Lattice="8.860017518965774 1.4649752496461577 0.5054422685075833 -3.009486874455622 5.912890063618727 1.2107055668437299 0.11460204091655703 1.4769566474518927 8.826792732357932" Properties=species:S:1:pos:R:3 unique_starting_index=90 config_type=initial n_minim_iter=9 stress="-0.0002853956441307158 0.00018202632526666173 -0.00032710989988246224 0.00018202632526666173 0.00026923683533760444 -0.00044542699021978894 -0.00032710989988246224 -0.00044542699021978894 0.00017103410287124202" pbc="T T T"
Si       7.20139345       1.09972819       5.61124122
Si       2.02380011       3.81999006       0.67770192
Si       5.87992865       6.24659350       3.66600504
Si       2.03888948       0.06436839       1.91340559
Si       4.25294912       5.09593402      10.53623935
Si      -1.31130933       5.47828250       8.70812961
Si       1.15999148       2.29412982       4.41083790
Si       2.75661995       5.20343671       7.19006871
Si      -0.48963763       7.11851505       7.16786601
Si       5.90759507       2.90433549       6.45300179
Si       2.46439398       3.91982510       3.31261703
Si       4.11904549       7.41144495       4.53502020
Si       3.88025843       7.42663877       0.91195424
Si       8.39144116       4.85645352       8.49822113
Si      -0.06363535       4.16874853       1.81013012
Si      -1.35756139       8.96212074      10.20354812
Si      -0.77377554       2.20145879       3.03076468
Si       5.42620061       7.09605725      10.29400338
Si       3.56653627       2.93714418       7.34890569
Si      -0.15704405       3.81913091       5.71015356
Si       0.93164008       5.86408323       5.78368858
Si       4.71890363       1.59122999       0.68035180
Si       6.69243101       4.67732541       5.12981966
Si       2.16646955       6.23702357       3.79898980
24
Lattice="8.864740963291025 1.4642002741237217 0.5125363030395723 -3.0111555962756786 5.913392016475494 1.2177907980360498 0.11949758970081065 1.4904096474531134 8.825371750773618" Properties=species:S:1:pos:R:3 unique_starting_index=90 config_type=initial n_minim_iter=10 stress="7.883938896837946e-05 -3.1435128583903975e-05 8.524213496524958e-05 -3.1435128583903975e-05 -0.000100672017624887 0.0007135974927947825 8.524213496524958e-05 0.0007135974927947825 -0.00017488932587700202" pbc="T T T"
Si       7.20681742       1.10706556       5.61495389
Si       2.02407992       3.82123905       0.68393973
Si       5.88430188       6.25048033       3.67864872
Si       2.04160584       0.06619228       1.91460741
Si       4.26126141       5.11055279      10.54215646
Si      -1.30675878       5.48944218       8.71432817
Si       1.16285994       2.30121760       4.41434922
Si       2.76131779       5.21296983       7.19553340
Si      -0.48766869       7.12689382       7.17594211
Si       5.91377049       2.91238052       6.45660601
Si       2.46675976       3.92519105       3.31768357
Si       4.12335781       7.41562218       4.54769050
Si       3.88250835       7.42511142       0.92588717
Si       8.39967623       4.86760231       8.50708216
Si      -0.06207588       4.17018623       1.81565054
Si      -1.35252591       8.97334530      10.21262898
Si      -0.77170399       2.20493282       3.03325276
Si       5.43342125       7.10925607      10.30303344
Si       3.57171244       2.94717467       7.35201347
Si      -0.15468664       3.82809513       5.71339050
Si       0.93323627       5.87246762       5.79046906
Si       4.72213861       1.59065983       0.68477111
Si       6.69736428       4.68366797       5.13867212
Si       2.16896216       6.24077142       3.80755002
24
Lattice="8.84886129270162 1.4564825971372886 0.4977108845971892 -3.0134170936705353 5.915531735192204 1.2204755478996216 0.10370472623073732 1.4861944270647174 8.828531028822479" Properties=species:S:1:pos:R:3 unique_starting_index=90 config_type=initial n_minim_iter=11 stress="-0.0009372976682193508 -0.0008386103133531566 -0.0006174616239962473 -0.0008386103133531566 -0.0008079358237596078 0.0003323355483857584 -0.0006174616239962473 0.0003323355483857584 0.0006618140854576676" pbc="T T T"
Si       7.17840320       1.09626803       5.60879423
Si       2.01637800       3.82337218       0.67241357
Si       5.86342026       6.25125081       3.66957318
Si       2.04179046       0.05783982       1.91851548
Si       4.23767451       5.09935704      10.53530454
Si      -1.31907955       5.47891622       8.72965283
Si       1.15427833       2.31004946       4.42041738
Si       2.73825398       5.20526257       7.18135559
Si      -0.51309816       7.11855405       7.18204498
Si       5.88934549       2.90469187       6.44128693
Si       2.45188400       3.93005552       3.30600309
Si       4.10483897       7.41027283       4.54288994
Si       3.87176489       7.42205218       0.91660112
Si       8.37074576       4.85553600       8.49582711
Si      -0.06074681       4.16560260       1.81985447
Si      -1.36796132       8.96139745      10.21902527
Si      -0.77102514       2.19872131       3.04143444
Si       5.39971182       7.09953019      10.29414304
Si       3.54705495       2.93759264       7.34397374
Si      -0.17036851       3.83331834       5.71262086
Si       0.90915102       5.87855942       5.78327529
Si       4.71255326       1.58422165       0.67198906
Si       6.67179536       4.67612762       5.12739844
Si       2.15413864       6.23798301       3.80059269
24
Lattice="8.860639518952565 1.4693461484825336 0.4983521399072639 -3.0092784269771724 5.920320411380029 1.2160498676452334 0.10770218252856743 1.4867510392059777 8.809687177016386" Properties=species:S:1:pos:R:3 unique_starting_index=90 config_type=initial n_minim_iter=12 stress="0.0002302059178102266 0.0001850904934359918 0.0002341840450890989 0.0001850904934359918 0.00035349652519123807 -0.00013831792914557772 0.0002341840450890989 -0.00013831792914557772 -0.0002327427106752301" pbc="T T T"
Si       7.18307042       1.10382297       5.60171546
Si       2.02507786       3.83357043       0.66286283
Si       5.87658692       6.27249141       3.65989652
Si       2.05195099       0.05340133       1.92125814
Si       4.25408722       5.10551287      10.51001860
Si      -1.30899698       5.47838330       8.71894266
Si       1.16235510       2.32740885       4.41784914
Si       2.74433824       5.21139279       7.15627033
Si      -0.51215151       7.12127755       7.17241685
Si       5.89848855       2.91597967       6.42227545
Si       2.45599093       3.94354012       3.29231458
Si       4.12066295       7.42543430       4.53560602
Si       3.88783723       7.43751091       0.91194399
Si       8.39209407       4.86947140       8.48002064
Si      -0.04815040       4.16741476       1.82412746
Si      -1.35122593       8.96484757      10.19806785
Si      -0.76287936       2.19737496       3.04085294
Si       5.41709698       7.11538231      10.27327285
Si       3.55230821       2.94285371       7.32442233
Si      -0.16953627       3.84308299       5.69834695
Si       0.91332237       5.89666937       5.76178505
Si       4.72053152       1.59288660       0.66623517
Si       6.68496167       4.68803453       5.11779991
Si       2.16501984       6.25072490       3.79197556
24
Lattice="8.857649059404125 1.4697930005476676 0.4899001875463677 -3.008328043020103 5.912702489562005 1.2238036801887904 0.0982362766816104 1.4894483982358442 8.820342268250705" Properties=species:S:1:pos:R:3 unique_starting_index=90 config_type=initial n_minim_iter=13 stress="8.417633605829525e-05 0.0001246851809043781 -0.00020698467643765462 0.0001246851809043781 -0.00046998236912473206 -6.036320370875554e-05 -0.00020698467643765462 -6.036320370875554e-05 0.00018816741175300066" pbc="T T T"
Si       7.17015271       1.10506733       5.60148796
Si       2.02547846       3.83233512       0.65752933
Si       5.87275108       6.26331058       3.66015387
Si       2.05275237       0.04593311       1.92604431
Si       4.24022439       5.10583479      10.52040156
Si      -1.31548324       5.47593344       8.73815631
Si       1.15849466       2.33342600       4.43045715
Si       2.72939296       5.20746190       7.16069233
Si      -0.52020024       7.11245982       7.18731193
Si       5.88704660       2.91344493       6.42293493
Si       2.44685689       3.94168373       3.28993038
Si       4.11712745       7.42018391       4.54244834
Si       3.88815420       7.42730021       0.90741883
Si       8.38299552       4.86998948       8.48520471
Si      -0.04423690       4.16278519       1.83533120
Si      -1.35806781       8.95396168      10.21384310
Si      -0.76258272       2.19854859       3.05097443
Si       5.41011489       7.11165619      10.28429598
Si       3.54417657       2.94571350       7.32821366
Si      -0.17866315       3.84456852       5.70825772
Si       0.90218468       5.89594987       5.76376324
Si       4.72521852       1.59616860       0.65835314
Si       6.67725567       4.68637514       5.11657894
Si       2.16430617       6.24923579       3.79553233
24
Lattice="8.852517345913057 1.4713988825152882 0.48495608542711965 -3.0068922146390227 5.915051808762597 1.229292579424002 0.09249273456535832 1.4949654954561864 8.822136507562965" Properties=species:S:1:pos:R:3 unique_starting_index=90 config_type=initial n_minim_iter=14 stress="-0.00010696874081791158 2.0998042152991595e-05 -0.0002763378755638625 2.0998042152991595e-05 -0.00027346166785648443 3.091552727166725e-06 -0.0002763378755638625 3.091552727166725e-06 7.015319230182014e-05" pbc="T T T"
Si       7.15594834       1.10584292       5.59948764
Si       2.02549383       3.83666957       0.64990832
Si       5.86803229       6.26561472       3.65992420
Si       2.05587364       0.03728956       1.93169920
Si       4.23012637       5.11393957      10.52143581
Si      -1.31696213       5.48072681       8.75129535
Si       1.15676186       2.34706715       4.44191163
Si       2.71474922       5.21112807       7.15597466
Si      -0.52734028       7.11437295       7.19671084
Si       5.87550116       2.91563830       6.41860063
Si       2.43652390       3.94801285       3.28291536
Si       4.11466472       7.42698349       4.54759783
Si       3.88807459       7.42893949       0.90281134
Si       8.37572276       4.87709414       8.48551557
Si      -0.03704791       4.16310245       1.84720609
Si      -1.35884726       8.95690062      10.22136872
Si      -0.75980231       2.20189141       3.06024306
Si       5.40461197       7.11820800      10.28774011
Si       3.53689632       2.95192383       7.32493789
Si      -0.18676410       3.85514897       5.71302103
Si       0.88890862       5.90768617       5.75815012
Si       4.72899887       1.60144187       0.65043366
Si       6.66880844       4.69054874       5.11302189
Si       2.16427234       6.25850648       3.79540559
24
Lattice="8.847345877669811 1.4726051574479546 0.48741745679360976 -3.0055540741781486 5.922189446038569 1.2359039485654193 0.09298787950929766 1.5059267293126766 8.82692722286058" Properties=species:S:1:pos:R:3 unique_starting_index=90 config_type=initial n_minim_iter=15 stress="-5.541250239329618e-05 -0.0002970150638665465 0.00045540496946306594 -0.0002970150638665465 0.0002866438108377278 0.00014277018099468041 0.00045540496946306594 0.00014277018099468041 3.684733147306194e-05" pbc="T T T"
Si       7.14276141       1.10497494       5.60289589
Si       2.02443657       3.84306568       0.64268841
Si       5.86309315       6.26857538       3.66850168
Si       2.05939899       0.02655743       1.93993255
Si       4.22369019       5.13250397      10.53146939
Si      -1.30949560       5.49569621       8.76996495
Si       1.15595140       2.36426044       4.46284686
Si       2.69842177       5.22173743       7.15802319
Si      -0.52485525       7.12625617       7.21079295
Si       5.86596988       2.91918980       6.42219740
Si       2.42071328       3.95786561       3.27809048
Si       4.11910914       7.44074752       4.56042338
Si       3.89094278       7.43311454       0.89952219
Si       8.37156418       4.89095238       8.49757765
Si      -0.02508576       4.16699613       1.86295070
Si      -1.35177660       8.96959920      10.23559113
Si      -0.75525279       2.21093935       3.07367061
Si       5.40744977       7.13109543      10.30300128
Si       3.53705479       2.96503348       7.32818176
Si      -0.19396148       3.87125955       5.72530851
Si       0.87325204       5.92643118       5.75113723
Si       4.73892936       1.61360334       0.64586319
Si       6.66261111       4.69442584       5.11979165
Si       2.16918340       6.27657242       3.79799151
24
Lattice="8.839436793814773 1.4888108419109904 0.47123070580363735 -2.995958939565377 5.928698941260823 1.2467381477259265 0.07781360456684426 1.5165600099875984 8.82516340497255" Properties=species:S:1:pos:R:3 unique_starting_index=90 config_type=initial n_minim_iter=16 stress="0.00012729714420913472 8.74633804100323e-05 -0.00018411382568963856 8.74633804100323e-05 0.00032577213419468303 -4.856273068562218e-05 -0.00018411382568963856 -4.856273068562218e-05 -0.000320229182763426" pbc="T T T"
Si       7.11605760       1.10938620       5.58625880
Si       2.02715761       3.84583931       0.62753778
Si       5.85612660       6.29308385       3.66282311
Si       2.05663047       0.02770144       1.94037618
Si       4.20355149       5.15921673      10.52063787
Si      -1.30481998       5.50631357       8.78549374
Si       1.14780291       2.38653281       4.48024188
Si       2.67444901       5.23822943       7.14300315
Si      -0.51997550       7.14672258       7.22270277
Si       5.84536495       2.93678475       6.40908280
Si       2.39786246       3.97851395       3.26426477
Si       4.12948082       7.46804408       4.55779622
Si       3.90862913       7.45181103       0.88472427
Si       8.35304547       4.91779605       8.48419821
Si      -0.00492173       4.16759867       1.87636784
Si      -1.34593899       8.99074094      10.25603369
Si      -0.75430785       2.21269876       3.08854885
Si       5.39074083       7.15394791      10.29906909
Si       3.52334124       2.98020971       7.31956793
Si      -0.20747494       3.89026019       5.73744114
Si       0.84780621       5.95356118       5.72994555
Si       4.74304625       1.63746332       0.63193379
Si       6.64957002       4.70251691       5.11315853
Si       2.17589714       6.30132514       3.78957200
24
Lattice="8.837303571890745 1.4858916966904165 0.4807775961498916 -2.995101906555405 5.924103025233726 1.2462042099881987 0.08610660905678622 1.5164398073191618 8.837109898007249" Properties=species:S:1:pos:R:3 unique_starting_index=90 config_type=initial n_minim_iter=17 stress="-0.00016312394747368712 1.4714024686711785e-05 0.00019288787635093449 1.4714024686711785e-05 -0.0005091168310109132 -3.54569424260886e-05 0.00019288787635093449 -3.54569424260886e-05 0.0004966782698082627" pbc="T T T"
Si       7.12253465       1.10861499       5.59711886
Si       2.02389780       3.83971066       0.63701047
Si       5.86014107       6.28148503       3.67585171
Si       2.05046135       0.03296855       1.93811654
Si       4.20903926       5.15726565      10.54054711
Si      -1.29725817       5.50740060       8.78898812
Si       1.14697296       2.37446062       4.48267019
Si       2.68288693       5.23593056       7.16125881
Si      -0.50408178       7.14770148       7.23004133
Si       5.85381840       2.92944148       6.42601044
Si       2.39768644       3.97318509       3.27783342
Si       4.13028717       7.46147005       4.56627196
Si       3.90750708       7.44411568       0.89512838
Si       8.35609029       4.91484717       8.50671283
Si      -0.00949761       4.16787826       1.87252142
Si      -1.34168592       8.98917282      10.26782724
Si      -0.75535189       2.21181931       3.08624360