16
Lattice="5.782350673190619 -0.2798888369757622 0.25926024391034846 1.0349924455972583 9.670355778356337 -0.7331696732758558 0.788697028726985 -0.23247924054794417 8.422357729250049" Properties=species:S:1:pos:R:3 unique_starting_index=92 config_type=initial n_minim_iter=1 energy=-2597.275145324361 free_energy=-2597.275145324361 pbc="T T T"
Si       2.87468811       9.31752038       3.42569643
Si       0.96504397       0.04786882       0.27187077
Si       2.52141868       7.37657821       4.44151017
Si       2.38951875       4.42098433       2.84290474
Si       6.64750867       6.13928700       6.63275383
Si       1.82776786       4.36563347       6.49006023
Si       4.50333544       3.23878176       3.50002807
Si       3.16301893       6.65176680       2.31706281
Si       2.64916911       5.99570975       5.82553627
Si       1.95705732       2.84657347       7.95993724
Si       3.53671982       4.41323308       5.09906967
Si       2.79787621       7.26747877       7.25216733
Si       6.09172858       0.22342973       2.77894005
Si       1.32358526       5.40896446       4.49031024
Si       7.01060842       7.75848166       1.40254073
Si       2.58548853       1.68844754       0.64966839
16
Lattice="6.054850133560873 -0.23964999926732602 0.41618886158335705 1.1155951446189014 9.463136856331788 -0.6096176708670468 1.0480659037713456 -0.1241654936394091 8.645406951346708" Properties=species:S:1:pos:R:3 unique_starting_index=92 config_type=initial n_minim_iter=2 stress="0.011582585010809422 -0.002617304482571905 0.004042571903862836 -0.002617304482571905 0.007288354883953609 -0.0014340659464583119 0.004042571903862836 -0.0014340659464583119 0.011352244057615608" pbc="T T T"
Si       3.10943469       9.14892011       3.59699781
Si       1.02786614       0.02444903       0.37054174
Si       2.75369775       7.27059415       4.68495866
Si       2.67526942       4.30682794       2.95033555
Si       7.15882051       6.14947080       7.04203890
Si       2.12508690       4.32832980       6.74544707
Si       4.78497991       3.22927563       3.69649964
Si       3.30091657       6.65685239       2.53361545
Si       2.94856378       6.01405442       6.21502496
Si       2.23627186       2.86389787       8.31790369
Si       3.82294134       4.43271418       5.32870611
Si       3.15475050       7.26749298       7.62285986
Si       6.50748144       0.33070977       2.95227959
Si       1.65099242       5.32624878       4.70477094
Si       7.51177944       7.59782963       1.69352699
Si       2.67451089       1.63926598       0.82919127
16
Lattice="6.098938152711862 -0.16675495758471198 0.47212516206967076 1.2171576613652035 9.151520807337665 -0.4744136996902113 1.1413489934396048 -0.005675656679737213 8.578715217603136" Properties=species:S:1:pos:R:3 unique_starting_index=92 config_type=initial n_minim_iter=3 stress="-0.016227544644111892 -0.00027515447752704883 -0.0006340963171612874 -0.00027515447752704883 -0.022177703980494987 -0.007647364815226262 -0.0006340963171612874 -0.007647364815226262 -0.025335958069639206" pbc="T T T"
Si       3.22875027       8.89429722       3.62845986
Si       1.05095251       0.01727797       0.43092775
Si       2.86172991       7.09457163       4.75104176
Si       2.83181616       4.17444305       2.94857360
Si       7.34469799       6.12212065       7.13207979
Si       2.26720396       4.25946748       6.76075943
Si       4.85615223       3.20885309       3.71646218
Si       3.33069090       6.57610521       2.62790207
Si       3.08253017       5.95283417       6.32552022
Si       2.33598876       2.87036280       8.36682075
Si       3.91623309       4.41768447       5.34411584
Si       3.32543179       7.19589866       7.71687870
Si       6.63777925       0.45484466       2.95088234
Si       1.87326201       5.20422259       4.76007044
Si       7.74326819       7.40101434       1.83651033
Si       2.66704360       1.59263022       0.93018347
16
Lattice="6.17609537888113 -0.11736453820935167 0.514341770721367 1.298039214256959 9.053826468166127 -0.352917711022086 1.2138359411018262 0.10634075457124105 8.64483411116977" Properties=species:S:1:pos:R:3 unique_starting_index=92 config_type=initial n_minim_iter=4 stress="-0.016643893613929286 0.003096586550606749 -0.003349774677399806 0.003096586550606749 -0.0013084222056792875 0.01586078886229624 -0.003349774677399806 0.01586078886229624 -0.004894138410447023" pbc="T T T"
Si       3.33581072       8.84626615       3.73094155
Si       1.07599396       0.01722188       0.47629270
Si       2.95866240       7.08122407       4.88458642
Si       2.95996451       4.15114943       3.00367304
Si       7.52701787       6.20780348       7.31009050
Si       2.38185925       4.29128893       6.87551143
Si       4.94218701       3.24891964       3.79024028
Si       3.37889877       6.60918591       2.75233400
Si       3.20249219       6.00145425       6.49382845
Si       2.42326004       2.94347734       8.51810590
Si       4.01086146       4.48222689       5.44144230
Si       3.47096825       7.27016177       7.91602756
Si       6.77875484       0.55439645       2.99051378
Si       2.04290453       5.20818915       4.88190620
Si       7.96227071       7.37091432       1.98600421
Si       2.68164239       1.58559682       1.01524613
16
Lattice="6.406216213157388 -0.07247424046901442 0.6063919416752422 1.3960261218902057 8.865705307731252 -0.40868249960261893 1.3716024670356495 0.059535961573146494 8.725747049819502" Properties=species:S:1:pos:R:3 unique_starting_index=92 config_type=initial n_minim_iter=5 stress="-0.005109258896867124 -0.002256668470481887 -0.007138241228870736 -0.002256668470481887 -0.0022659762967337897 0.0029856707871803675 -0.007138241228870736 0.0029856707871803675 -0.0018428405029625112" pbc="T T T"
Si       3.51934959       8.62732886       3.64672548
Si       1.13845544       0.00579047       0.54935654
Si       3.13411658       6.89417924       4.89286793
Si       3.19515185       4.01868061       2.98460626
Si       7.92628694       6.10708783       7.42650258
Si       2.59633537       4.14042891       6.92563322
Si       5.15314771       3.18669255       3.82559204
Si       3.48251592       6.54244506       2.77000776
Si       3.44381301       5.87703116       6.58284861
Si       2.60960378       2.82385407       8.65526667
Si       4.21575043       4.41466957       5.46887168
Si       3.73446591       7.13178728       8.00568307
Si       7.12543334       0.60845704       3.05688145
Si       2.33703577       5.06600293       4.92660744
Si       8.40894150       7.22255954       2.04178296
Si       2.73917446       1.53272025       1.11104775
16
Lattice="6.591268811002534 0.027069087504336783 0.805825538328937 1.5661423634365417 8.81024137171842 -0.37499714827218017 1.6799858032781483 0.07826153978072838 8.82051769051326" Properties=species:S:1:pos:R:3 unique_starting_index=92 config_type=initial n_minim_iter=6 stress="-0.01693990207797891 0.001968257288361628 -0.0038210164984073636 0.001968257288361628 0.005407970313353532 8.691101689501265e-05 -0.0038210164984073636 8.691101689501265e-05 -0.00197631366311439" pbc="T T T"
Si       3.83350126       8.58578326       3.70324243
Si       1.20348801       0.01798835       0.62609805
Si       3.46434310       6.86657503       5.01194440
Si       3.47932117       4.01216240       3.07614828
Si       8.48885891       6.19355466       7.71123508
Si       2.95624875       4.12188544       7.04283278
Si       5.43250524       3.23817856       3.98052148
Si       3.70028379       6.57982525       2.89637217
Si       3.82296188       5.89829263       6.74182171
Si       2.97383637       2.82346518       8.82260035
Si       4.53860197       4.46747901       5.59704302
Si       4.17930703       7.14599985       8.17932850
Si       7.46466238       0.73616975       3.26731702
Si       2.72125350       5.03987404       5.04202282
Si       8.87273128       7.27809844       2.29545462
Si       2.81248333       1.53365113       1.24226222
16
Lattice="7.178532682779052 0.15906712561566935 1.13180051556876 1.8300269843390042 8.514682857100963 -0.23348007995678915 2.2291544887591206 0.18045573950599797 8.940402765234477" Properties=species:S:1:pos:R:3 unique_starting_index=92 config_type=initial n_minim_iter=7 stress="-0.005677072765019806 -0.005523374346669054 0.0036490860537986103 -0.005523374346669054 -0.01013223796424218 -0.004693177226956714 0.0036490860537986103 -0.004693177226956714 -0.01395440253418228" pbc="T T T"
Si       4.40736619       8.34055805       3.86640477
Si       1.37059977       0.04331828       0.72838312
Si       4.08937708       6.70050341       5.26421581
Si       4.04365631       3.94336875       3.28232248
Si       9.71627171       6.22164935       8.20991682
Si       3.61336272       4.06071110       7.24656661
Si       6.08301881       3.26035843       4.25401956
Si       4.15237243       6.48127327       3.15808185
Si       4.52548838       5.83605930       7.00521621
Si       3.65239509       2.82989738       9.07081814
Si       5.22067765       4.47422752       5.83014955
Si       4.98077476       7.05103029       8.48456929
Si       8.33354711       0.91202887       3.64447941
Si       3.37912952       4.92195651       5.26098372
Si       9.93796021       7.19853087       2.78511561
Si       3.02260902       1.49724804       1.44524129
16
Lattice="7.579105062527406 0.328783044172801 1.311738541333434 2.1618266056069073 8.499814435969762 -0.22910482914838368 2.531628845438751 0.19289402074261425 9.119550078092857" Properties=species:S:1:pos:R:3 unique_starting_index=92 config_type=initial n_minim_iter=8 stress="0.0014354276518385722 0.00011482473474079983 0.004456296403406117 0.00011482473474079983 -0.0001097313164800564 -0.00959930262189031 0.004456296403406117 -0.00959930262189031 -0.0023931519688073413" pbc="T T T"
Si       4.90384566       8.34776161       3.92311099
Si       1.48573028       0.08188737       0.76573141
Si       4.61440551       6.72382231       5.42516798
Si       4.47261847       4.00570949       3.42734125
Si      10.62733984       6.39796431       8.53038787
Si       4.07161563       4.07320276       7.41425972
Si       6.55418105       3.37250709       4.42339427
Si       4.55261979       6.53556938       3.29152273
Si       5.03984984       5.88975154       7.17489990
Si       4.09438310       2.84254775       9.29267095
Si       5.72327262       4.56660904       5.98164092
Si       5.56025852       7.08014657       8.68084085
Si       8.93014881       1.11467152       3.91262839
Si       3.85101218       4.91629909       5.40960304
Si      10.77396493       7.38571314       3.02928714
Si       3.16510834       1.52221529       1.54733470
16
Lattice="7.910924885977918 0.37058780027657195 1.4364014251974688 2.2661915947376094 8.4459591629395 -0.08349679442202268 2.7564548086139604 0.3161003318172904 9.259962990575895" Properties=species:S:1:pos:R:3 unique_starting_index=92 config_type=initial n_minim_iter=9 stress="0.001839227977414161 -0.003713622040001628 0.0016479867732694718 -0.003713622040001628 0.012972248093963752 0.004167621850011322 0.0016479867732694718 0.004167621850011322 0.014435842176527592" pbc="T T T"
Si       5.13674895       8.35336711       4.09970900
Si       1.58107112       0.11704235       0.77154817
Si       4.90178035       6.74518557       5.65504663
Si       4.75159987       4.05674187       3.62735129
Si      11.26247871       6.52084339       8.86480457
Si       4.36591501       4.14473668       7.60627837
Si       6.88350005       3.43684460       4.59353715
Si       4.71796831       6.52281060       3.49226366
Si       5.32545708       5.98045628       7.41386197
Si       4.37566128       2.93388730       9.49739177
Si       6.03249402       4.64302830       6.14079078
Si       5.86215339       7.15199002       8.93864598
Si       9.41998978       1.20130452       4.14259478
Si       4.13509323       4.94331409       5.61202883
Si      11.34460084       7.43517832       3.33381786
Si       3.22131287       1.51267454       1.63415995
16
Lattice="8.105130834274402 0.43534507765698766 1.506697669663452 2.398428943243361 8.422295048494828 -0.06643870789959097 2.8846998891744238 0.32607267939105283 9.22682320259393" Properties=species:S:1:pos:R:3 unique_starting_index=92 config_type=initial n_minim_iter=10 stress="0.008920384149098752 0.0018516730907491613 0.004052514217887854 0.0018516730907491613 0.01850264875035444 0.004702842898853354 0.004052514217887854 0.004702842898853354 0.009465529640525118" pbc="T T T"
Si       5.35049142       8.35381636       4.10818979
Si       1.63178015       0.15057307       0.75739238
Si       5.13269149       6.74215227       5.66645407
Si       4.93719218       4.09133915       3.68712507
Si      11.67582428       6.57934331       8.91249658
Si       4.56914653       4.15370101       7.59296486
Si       7.11502770       3.47817146       4.62676441
Si       4.88610111       6.49497885       3.51970799
Si       5.54091659       5.98220282       7.40293382
Si       4.56202338       2.93090802       9.46597717
Si       6.25446615       4.66811378       6.14170912
Si       6.10464887       7.15128782       8.93321957
Si       9.68740137       1.26481989       4.23617856
Si       4.29981590       4.93167315       5.61545196
Si      11.72298774       7.51031422       3.43924053
Si       3.28133133       1.52229704       1.64366372
16
Lattice="8.711762201333086 0.6108046436519836 1.7467226859214455 2.7475047595473807 7.989401225893763 -0.031742615547643765 3.3002386198451226 0.37086628425181656 9.49289088375366" Properties=species:S:1:pos:R:3 unique_starting_index=92 config_type=initial n_minim_iter=11 stress="0.004304701002539973 0.0020565551483803317 0.011159218414065761 0.0020565551483803317 0.0009890628013765424 0.003292128831951574 0.011159218414065761 0.003292128831951574 0.029984770765708827" pbc="T T T"
Si       5.89944766       7.97480675       4.20210432
Si       1.80715611       0.23987182       0.76157886
Si       5.77643589       6.45221454       5.88086990
Si       5.55363395       4.00762763       3.98118151
Si      12.94971612       6.50800861       9.37008801
Si       5.20361932       4.01838378       7.84100014
Si       7.79175622       3.45736293       4.85017355
Si       5.31001543       6.18940249       3.73047233
Si       6.18044521       5.76720656       7.69765118
Si       5.11591241       2.80871179       9.77275395
Si       6.86624475       4.56711683       6.32820565
Si       6.83109683       6.89925039       9.28634019
Si      10.55537394       1.42874079       4.63984072
Si       4.88698216       4.70066651       5.86617408
Si      12.93099461       7.40810817       3.85408755
Si       3.40823499       1.46995762       1.74579568
16
Lattice="9.344290231956935 0.7240423058050585 1.7460266544467369 3.0419068880203506 7.827383083727621 -0.021956665183173366 3.3909643068354285 0.38151855122279127 9.280976634071973" Properties=species:S:1:pos:R:3 unique_starting_index=92 config_type=initial n_minim_iter=12 stress="0.0002494360268340241 0.016979395538618977 -0.008282652231496188 0.016979395538618977 0.009874748286430151 0.019542614792715317 -0.008282652231496188 0.019542614792715317 0.016496952891964983" pbc="T T T"
Si       6.25121599       7.82971793       4.02564769
Si       1.97223241       0.32281048       0.68992123
Si       6.19483014       6.34382106       5.73824731
Si       6.06148311       4.02083058       4.03071098
Si      13.94301663       6.53558076       9.17778964
Si       5.56858747       3.97373339       7.65558170
Si       8.35390465       3.48026909       4.71792253
Si       5.58035113       6.04752120       3.70584337
Si       6.55471394       5.69833641       7.56655284
Si       5.32061999       2.72510860       9.55114229
Si       7.23112729       4.54365278       6.10765429
Si       7.22726970       6.82693727       9.13972292
Si      11.32748126       1.52534128       4.64789451
Si       5.24900580       4.58903116       5.79065702
Si      14.08797779       7.46641570       3.89100494
Si       3.47672524       1.43829937       1.69247270
16
Lattice="9.424843562779222 0.6339288885826536 1.6790661744872495 2.9154723049166815 7.753333581736278 -0.13226997314202707 3.308908729890214 0.27555427963919965 9.147259485264609" Properties=species:S:1:pos:R:3 unique_starting_index=92 config_type=initial n_minim_iter=13 stress="-0.0030710604756211085 0.009951527483989354 -0.011410351005163046 0.009951527483989354 -0.0011583248938643398 0.007794773382574374 -0.011410351005163046 0.007794773382574374 0.020163417106265326" pbc="T T T"
Si       6.11082960       7.69758869       3.85214804
Si       1.98649042       0.33750656       0.61404331
Si       6.07641379       6.20547728       5.54230700
Si       6.04008339       3.94775862       3.98522575
Si      13.91324278       6.31303756       8.90827891
Si       5.49164540       3.85223827       7.47766992
Si       8.36260848       3.35937608       4.56878733
Si       5.46937177       5.89160160       3.59920966
Si       6.41078715       5.53984286       7.37302612
Si       5.19982559       2.56235013       9.35071701
Si       7.10828774       4.39978929       5.90883601
Si       7.06325728       6.66346743       8.93898269
Si      11.32652161       1.36514672       4.55575734
Si       5.11423303       4.45046689       5.65460516
Si      14.09949972       7.31533457       3.72786416
Si       3.41374034       1.38167022       1.60378923
16
Lattice="9.472318500524784 0.6080743566117606 1.6899546408016242 2.878776691180355 7.772166684001403 -0.09914238002652967 3.340479360976933 0.28445138365747197 8.974067805641104" Properties=species:S:1:pos:R:3 unique_starting_index=92 config_type=initial n_minim_iter=14 stress="0.014521790937940395 0.003597506241594693 -0.0018246347677820117 0.003597506241594693 0.007262529772277228 0.002520888356451238 -0.0018246347677820117 0.002520888356451238 0.010085215382672532" pbc="T T T"
Si       6.11657182       7.70909314       3.82620013
Si       1.98944840       0.34915305       0.57808891
Si       6.06244525       6.21416903       5.44753236
Si       6.08456337       3.96796588       3.97827866
Si      13.96615177       6.30664842       8.78623617
Si       5.51864861       3.86178711       7.35149806
Si       8.40571138       3.35461731       4.50971079
Si       5.46667597       5.88640889       3.58781816
Si       6.45075593       5.56078111       7.27744011
Si       5.22056487       2.56000296       9.17523982
Si       7.09487176       4.39891105       5.81004355
Si       7.08197613       6.69522321       8.82086583
Si      11.33594036       1.33869626       4.52647951
Si       5.11263556       4.45546826       5.58161093
Si      14.14831697       7.31166346       3.74451505
Si       3.39535992       1.37507308       1.57188859
16
Lattice="9.332201720750755 0.5534434437013753 1.6732053340493556 2.7667037238281704 7.798957073811047 -0.12034331621319048 3.3034473437430605 0.25011891139115816 8.841556343967095" Properties=species:S:1:pos:R:3 unique_starting_index=92 config_type=initial n_minim_iter=15 stress="0.008529074971936532 -0.0004872698996772257 -0.007269619154563823 -0.0004872698996772257 0.008952137362231495 -0.006882317765495211 -0.007269619154563823 -0.006882317765495211 -0.01773268551367192" pbc="T T T"
Si       5.95005054       7.70405792       3.74660595
Si       1.93545555       0.34564093       0.54157901
Si       5.89874429       6.19200781       5.32811159
Si       6.00364078       3.96768800       3.94050820
Si      13.72522811       6.23987951       8.63529289
Si       5.43883171       3.83249605       7.24713883
Si       8.27642424       3.31688529       4.43382787
Si       5.37020816       5.86500993       3.55137339
Si       6.35594491       5.54792761       7.16631239
Si       5.13306666       2.51948601       9.01923019
Si       6.94248847       4.36454973       5.71085140
Si       6.95888764       6.68848834       8.69464055
Si      11.14170096       1.27620548       4.48653078
Si       4.96417947       4.44567151       5.48306647
Si      13.87433267       7.26406448       3.67133335
Si       3.32450525       1.35944170       1.53201168
16
Lattice="9.160390790313738 0.49881358559074 1.7161470508261223 2.6385916048767446 7.768816406172635 -0.14056848707894798 3.3434748372967364 0.21803722635728678 8.835507317720062" Properties=species:S:1:pos:R:3 unique_starting_index=92 config_type=initial n_minim_iter=16 stress="0.006982293104655621 -0.003373222211164932 0.0043396104142649685 -0.003373222211164932 0.007009513903008009 -0.009823437554207807 0.0043396104142649685 -0.009823437554207807 0.003681283887027739" pbc="T T T"
Si       5.78982455       7.64269557       3.72443908
Si       1.86239139       0.33019129       0.52727309
Si       5.79036452       6.12981701       5.33246629
Si       5.95401026       3.94047688       3.96250577
Si      13.50033247       6.13386283       8.64577952
Si       5.41105994       3.77146002       7.25911918
Si       8.14349417       3.25684624       4.44152190
Si       5.23161836       5.79983954       3.53462258
Si       6.31346662       5.50862169       7.17151906
Si       5.11351498       2.46751318       9.00292466
Si       6.81340038       4.30372442       5.71307745
Si       6.90414109       6.64183604       8.70493930
Si      10.92320056       1.21668374       4.53332111
Si       4.85132960       4.41488185       5.47534002
Si      13.57474705       7.16346813       3.68753921
Si       3.25817224       1.33375395       1.53222848
16
Lattice="9.026401209938953 0.49184393719573954 1.661536341713155 2.6070249349510193 7.723855101868821 -0.1254982220921861 3.249438017714736 0.2352166879550352 8.775931631993911" Properties=species:S:1:pos:R:3 unique_starting_index=92 config_type=initial n_minim_iter=17 stress="0.006925585014543416 -0.010666956698744566 -0.0019117376786555618 -0.010666956698744566 -0.010477222733902055 -0.01101951937620176 -0.0019117376786555618 -0.01101951937620176 0.004237397206002624" pbc="T T T"
Si       5.67654015       7.59459921       3.69364465
Si       1.78154449       0.31740058       0.50204231
Si       5.68188060       6.09075610       5.30263191
Si       5.90140230       3.94234170       3.92253162
Si      13.28781740       6.10710181       8.56225074
Si       5.30493487       3.75035111       7.20724227
Si       8.01908095       3.24097164       4.38131438
Si       5.13287689       5.75551961       3.50620331
Si       6.22732630       5.51032919       7.14209494
Si       4.99156393       2.46674728       8.93483966
Si       6.70229016       4.28786492       5.68200330
Si       6.81218376       6.63897069       8.67463089
Si      10.69866330       1.22305664       4.44660801
Si       4.71994182       4.41083611       5.45326962
Si      13.37804265       7.11679845       3.60429156
Si       3.20290051       1.32289520       1.50964515
16
Lattice="9.035325336143522 0.5417364425911255 1.6882317319791873 2.6876416470755524 7.779669231408646 -0.042145362637127017 3.293236079048244 0.30437469401629536 8.723391339868506" Properties=species:S:1:pos:R:3 unique_starting_index=92 config_type=initial n_minim_iter=18 stress="0.0018507706037474661 -0.0026400670208942875 -0.002054758556767429 -0.0026400670208942875 0.010274575583109036 0.0023404664624585526 -0.002054758556767429 0.0023404664624585526 0.0060514551215939735" pbc="T T T"
Si       5.73316961       7.66722517       3.72412044
Si       1.78620017       0.33836510       0.52035988
Si       5.76946427       6.16390880       5.34293313
Si       6.00790404       4.03706538       3.95147590
Si      13.42764518       6.25939172       8.62952895
Si       5.40423177       3.83086303       7.20307805
Si       8.07587118       3.31937656       4.39398070
Si       5.17145736       5.81769638       3.54972996
Si       6.33010664       5.63059441       7.18161095
Si       5.05316947       2.54844851       8.91032019
Si       6.78493500       4.38078866       5.71933205
Si       6.91467545       6.76158463       8.70333465
Si      10.68385024       1.31517699       4.44879615
Si       4.79080397       4.49496136       5.48467106
Si      13.50473259       7.24130313       3.67749063
Si       3.17649380       1.33496671       1.52009210
16
Lattice="9.093579292747966 0.6273128320149318 1.7924597403834777 2.822173505071141 7.787294262449218 0.09537477151421604 3.4584338842993727 0.4109676311218158 8.640455729567487" Properties=species:S:1:pos:R:3 unique_starting_index=92 config_type=initial n_minim_iter=19 stress="-0.01290282833640366 0.0028854709221138807 0.0015743409545657505 0.0028854709221138807 -0.006402043108164715 0.022844839678807197 0.0015743409545657505 0.022844839678807197 -0.010193375632101508" pbc="T T T"
Si       5.84987618       7.69512694       3.77483694
Si       1.75576082       0.35415034       0.53706479
Si       5.99596321       6.22383797       5.41909324
Si       6.21498520       4.15957798       4.03318803
Si      13.75775483       6.44698243       8.80188965
Si       5.67870376       3.92761280       7.22073899
Si       8.23701777       3.41857325       4.45568301
Si       5.28580800       5.85615274       3.63914055
Si       6.59888972       5.76837769       7.26907292
Si       5.26214473       2.65295187       8.88204531
Si       6.98093293       4.48551189       5.80239787
Si       7.20164182       6.90063613       8.77826875
Si      10.73150577       1.45471369       4.51972355
Si       4.97739528       4.57162577       5.53281201
Si      13.80330532       7.39071994       3.88031832
Si       3.15748623       1.33982985       1.55618286
16
Lattice="9.089351699329088 0.674919117364308 1.820562142869055 2.8984020181361116 7.8379656882695885 0.12928946890403584 3.4989227178771563 0.44009434938655395 8.626255066225552" Properties=species:S:1:pos:R:3 unique_starting_index=92 config_type=initial n_minim_iter=20 stress="-0.013257893325425558 0.005532905238512212 0.010789836661444074 0.005532905238512212 0.0027200374043357405 0.02107199427229565 0.010789836661444074 0.02107199427229565 0.007115337499880041" pbc="T T T"
Si       5.89083262       7.74470015       3.77257832
Si       1.72693482       0.35860903       0.54614572
Si       6.09169800       6.27574797       5.44747169
Si       6.28555624       4.23713426       4.05267549
Si      13.85820915       6.55580645       8.86431864
Si       5.77874836       3.98100747       7.23323803
Si       8.28353622       3.47989569       4.47270825
Si       5.34280819       5.89789143       3.66701688
Si       6.70239334       5.85163183       7.30364207
Si       5.33405655       2.70118650       8.88376696
Si       7.05651264       4.54929107       5.84000701
Si       7.30206140       6.98098651       8.80518845
Si      10.70116449       1.52327878       4.53127588
Si       5.04132240       4.62634998       5.55156264
Si      13.89347405       7.50922293       3.91432111
Si       3.14580831       1.34902118       1.56552793
16
Lattice="9.319553429695826 0.7909484707994033 1.8666749864290295 3.1320052131949274 7.942396644475067 0.14837110089877048 3.597585672340813 0.45593874951319546 8.537135111179124" Properties=species:S:1:pos:R:3 unique_starting_index=92 config_type=initial n_minim_iter=21 stress="-0.01490395198400175 0.00716387644761459 0.004929296025922869 0.00716387644761459 0.005841524071756011 0.014247462059947005 0.004929296025922869 0.014247462059947005 0.004815822964105028" pbc="T T T"
Si       6.06200333       7.81450539       3.65802132
Si       1.70558408       0.38444290       0.54643394
Si       6.38558648       6.34543985       5.41800207
Si       6.63395742       4.40815095       4.07593412
Si      14.41737568       6.76612347       8.89709425
Si       6.10232957       4.05784822       7.19574525
Si       8.56620441       3.60545396       4.44642295
Si       5.52190775       5.96262814       3.66408410
Si       7.03001442       6.00290300       7.29639947
Si       5.55072518       2.74382502       8.82023269
Si       7.34089136       4.66759781       5.82806372
Si       7.60706664       7.11462915       8.77075106
Si      10.87429197       1.67192710       4.51953367
Si       5.27683291       4.70826314       5.53646431
Si      14.50553452       7.78417352       3.94093069
Si       3.12604230       1.34437878       1.55834483
