2
Lattice="2.768420174854406 8.877572265842161e-17 2.768420174854406 2.768420174854406 2.768420174854406 1.5817609438355986e-16 5.622201131674889e-17 2.768420174854406 2.768420174854406" Properties=species:S:1:pos:R:3 n_minim_iter=1 energy=-326.33644037931197 free_energy=-326.33644037931197 pbc="T T T"
Si       0.00000000      -0.00000000      -0.00000000
Si       1.38421009       1.38421009       1.38421009
