2
Lattice="2.7226527569346244 8.730808575960719e-17 2.7226527569346244 2.7226527569346244 2.7226527569346244 1.5556113315681907e-16 5.5292551146072424e-17 2.7226527569346244 2.7226527569346244" Properties=species:S:1:pos:R:3 n_minim_iter=1 energy=-326.35393281169314 free_energy=-326.35393281169314 pbc="T T T"
Si       0.00000000      -0.00000000      -0.00000000
Si       1.36132638       1.36132638       1.36132638
