2
Lattice="2.6509704506688165 8.500942871384134e-17 2.6509704506688165 2.6509704506688165 2.6509704506688165 1.514655022462663e-16 5.383680267599098e-17 2.6509704506688165 2.6509704506688165" Properties=species:S:1:pos:R:3 n_minim_iter=1 energy=-326.2607259845106 free_energy=-326.2607259845106 pbc="T T T"
Si       0.00000000      -0.00000000      -0.00000000
Si       1.32548523       1.32548523       1.32548523
