2
Lattice="2.6009401508466294 8.340509276011795e-17 2.6009401508466294 2.6009401508466294 2.6009401508466294 1.4860697755460593e-16 5.282077046081929e-17 2.6009401508466294 2.6009401508466294" Properties=species:S:1:pos:R:3 n_minim_iter=1 energy=-326.08790436976426 free_energy=-326.08790436976426 pbc="T T T"
Si       0.00000000      -0.00000000      -0.00000000
Si       1.30047008       1.30047008       1.30047008
