2
Lattice="2.4946587055783334 7.999693521431814e-17 2.4946587055783334 2.4946587055783334 2.4946587055783334 1.4253449474629696e-16 5.0662370997866106e-17 2.4946587055783334 2.4946587055783334" Properties=species:S:1:pos:R:3 n_minim_iter=1 energy=-325.34368199177214 free_energy=-325.34368199177214 pbc="T T T"
Si       0.00000000      -0.00000000      -0.00000000
Si       1.24732935       1.24732935       1.24732935
