2
Lattice="2.9577449489531404 9.484685441451119e-17 2.9577449489531404 2.9577449489531404 2.9577449489531404 1.6899333000732603e-16 6.006688273063379e-17 2.9577449489531404 2.9577449489531404" Properties=species:S:1:pos:R:3 n_minim_iter=1 energy=-325.8348263473034 free_energy=-325.8348263473034 pbc="T T T"
Si       0.00000000      -0.00000000      -0.00000000
Si       1.47887247       1.47887247       1.47887247
