2
Lattice="2.8556713505851774 9.157363110044616e-17 2.8556713505851774 2.8556713505851774 2.8556713505851774 1.6316126619122926e-16 5.799393764277815e-17 2.8556713505851774 2.8556713505851774" Properties=species:S:1:pos:R:3 n_minim_iter=1 stress="0.04798387425837343 -1.9673010904521749e-16 -8.859652039791453e-18 -1.9673010904521749e-16 0.04798387425837339 -2.194107527070669e-17 -8.859652039791453e-18 -2.194107527070669e-17 0.04798387425837343" pbc="T T T"
Si       0.00000000      -0.00000000      -0.00000000
Si       1.42783568       1.42783568       1.42783568
