2
Lattice="2.699180444476155 8.655539239322739e-17 2.699180444476155 2.699180444476155 2.699180444476155 1.542200221706493e-16 5.481586750221777e-17 2.699180444476155 2.699180444476155" Properties=species:S:1:pos:R:3 n_minim_iter=1 stress="-0.020378660703335008 -2.135375422793949e-16 5.428201413992121e-18 -2.135375422793949e-16 -0.020378660703334984 4.493369421643947e-18 5.428201413992121e-18 4.493369421643947e-18 -0.02037866070333485" pbc="T T T"
Si       0.00000000      -0.00000000      -0.00000000
Si       1.34959022       1.34959022       1.34959022
