2
Lattice="2.4946587055783334 7.999693521431815e-17 2.4946587055783334 2.4946587055783334 2.4946587055783334 1.4253449474629696e-16 5.0662370997866106e-17 2.4946587055783334 2.4946587055783334" Properties=species:S:1:pos:R:3 n_minim_iter=1 stress="-0.2176063567164975 2.085442305662101e-17 -3.7058618451680774e-17 2.085442305662101e-17 -0.21760635671649745 1.4361352891262569e-18 -3.7058618451680774e-17 1.4361352891262569e-18 -0.21760635671649767" pbc="T T T"
Si      -0.00000000      -0.00000000      -0.00000000
Si       1.24732935       1.24732935       1.24732935
