2
Lattice="2.917770522359278 9.35649830277327e-17 2.917770522359278 2.917770522359278 2.917770522359278 1.667093563781525e-16 5.925506858307258e-17 2.917770522359278 2.917770522359278" Properties=species:S:1:pos:R:3 n_minim_iter=1 stress="0.06397403199182328 -2.244363512009089e-16 3.17503409078862e-17 -2.244363512009089e-16 0.06397403199182325 9.414433006225209e-18 3.17503409078862e-17 9.414433006225209e-18 0.06397403199182303" pbc="T T T"
Si      -0.00000000      -0.00000000      -0.00000000
Si       1.45888526       1.45888526       1.45888526
