2
Lattice="2.745727185547098 8.804802007073836e-17 2.745727185547098 2.745727185547098 2.745727185547098 1.5687951070340857e-16 5.576115443048761e-17 2.745727185547098 2.745727185547098" Properties=species:S:1:pos:R:3 n_minim_iter=1 stress="0.008563154353596107 2.4326626151130534e-17 -1.08700476380349e-17 2.4326626151130534e-17 0.008563154353596107 2.8372457729071205e-17 -1.08700476380349e-17 2.8372457729071205e-17 0.008563154353596192" pbc="T T T"
Si       0.00000000      -0.00000000      -0.00000000
Si       1.37286359       1.37286359       1.37286359
