8
Lattice="-3.4797905070862134 3.480949211166725 3.480589627561067 3.481199817507183 -3.480040980967279 3.481090707782925 3.4804805181411034 3.480730992022215 -3.4796813973611416" Properties=species:S:1:pos:R:3:forces:R:3 cutoff=-1.0 nneightol=1.2 n_minim_iter=1 energy=-1303.502038002393 stress="0.04543049463093933 8.506450713108863e-05 0.0001738556486963385 8.506450713108863e-05 0.04543055069860197 0.00011200813238461655 0.0001738556486963385 0.00011200813238461655 0.04543051703023393" free_energy=-1303.502038002393 pbc="T T T"
Si       2.79134563       0.68960022      -0.68875586       0.04214682      -0.04103527       0.04075737
Si       4.17033470      -0.68891021       0.69016517      -0.04214682       0.04103527      -0.04075737
Si       0.68964688       0.68959369       0.68966563      -0.04458734      -0.04418451      -0.04426715
Si       0.68990150      -0.68897454       2.79147358      -0.03984015       0.04011145       0.04112607
Si      -0.68898529       2.79144916       0.68962995       0.03939535       0.04062816      -0.03980653
Si       0.68967530       4.17023104      -0.68872172      -0.03939535      -0.04062816       0.03980653
Si      -0.68849219       0.68988277       4.17020676       0.03984015      -0.04011145      -0.04112607
Si       2.79224294       2.79204553       2.79233330       0.04458734       0.04418451       0.04426715
8
Lattice="-3.4864539416050038 3.480256144782441 3.4821842364536666 3.4789176191118854 -3.485110094560012 3.4795018635486374 3.482768942048993 3.481425094980171 -3.487038186486713" Properties=species:S:1:pos:R:3:forces:R:3 cutoff=-1.0 nneightol=1.2 n_minim_iter=2 energy=-1303.5030028020299 stress="0.04496041848723779 -0.0004588935090679295 -0.0009352007984370846 -0.0004588935090679295 0.044961823023403534 -0.0006032805288078117 -0.0009352007984370846 -0.0006032805288078117 0.04496101322994274" free_energy=-1303.5030028020299 pbc="T T T"
Si       2.79364639       0.68661597      -0.69112894       0.01225214      -0.01791659       0.01914488
Si       4.16804017      -0.69030097       0.68359262      -0.01225214       0.01791659      -0.01914488
Si       0.68637828       0.68665661       0.68627404       0.00152060      -0.00045734      -0.00000718
Si       0.68499928      -0.68996113       2.79296350      -0.02441796       0.02277972       0.01768240
Si      -0.68989867       2.79309282       0.68645797       0.02665100       0.02035838      -0.02461598
Si       0.68621367       4.16858842      -0.69131192      -0.02665100      -0.02035838       0.02461597
Si      -0.69253561       0.68510718       4.16872259       0.02441796      -0.02277972      -0.01768240
Si       2.78885434       2.78991453       2.78837387      -0.00152060       0.00045734       0.00000718
8
Lattice="-3.479192763318903 3.4809990671710187 3.4804551751428927 3.48139914424184 -3.4795644791377818 3.4812269663351687 3.4802947513846823 3.48066646698164 -3.479020589367591" Properties=species:S:1:pos:R:3:forces:R:3 cutoff=-1.0 nneightol=1.2 n_minim_iter=3 energy=-1303.5034419754004 stress="0.04460155226990945 0.0001377055999768022 0.0002757049288521212 0.0001377055999768022 0.044598857233313326 0.0001792645810792313 0.0002757049288521212 0.0001792645810792313 0.04460044726880104" free_energy=-1303.5034419754004 pbc="T T T"
Si       2.79453157       0.68649342      -0.68516837      -0.00425884       0.00591106      -0.00624555
Si       4.16716232      -0.68539143       0.68737475       0.00425884      -0.00591106       0.00624556
Si       0.68656742       0.68648584       0.68659776       0.00002537       0.00059054       0.00045474
Si       0.68695745      -0.68550056       2.79472293       0.00781610      -0.00735807      -0.00590113
Si      -0.68551872       2.79467827       0.68653754      -0.00848296      -0.00667454       0.00792403
Si       0.68662071       4.16698726      -0.68510296       0.00848296       0.00667454      -0.00792404
Si      -0.68475107       0.68693514       4.16695921      -0.00781610       0.00735807       0.00590113
Si       2.79593372       2.79561521       2.79606379      -0.00002537      -0.00059054      -0.00045474
8
Lattice="-3.480846502600118 3.480844718662085 3.4808360054612115 3.4808450005014238 -3.4808537460572233 3.480843530058779 3.480831952442357 3.480839194957872 -3.4808450306302476" Properties=species:S:1:pos:R:3:forces:R:3 cutoff=-1.0 nneightol=1.2 n_minim_iter=4 energy=-1303.5034887024096 stress="0.04469198054525215 -1.3388748530012157e-06 4.875805754496368e-07 -1.3388748530012157e-06 0.04469256558753086 -6.062586469905357e-07 4.875805754496368e-07 -6.062586469905357e-07 0.04469221416511488" free_energy=-1303.5034887024096 pbc="T T T"
Si       2.79428790       0.68654464      -0.68655377       0.00005843      -0.00007114       0.00008636
Si       4.16738905      -0.68655920       0.68655227      -0.00005843       0.00007114      -0.00008636
Si       0.68655201       0.68655281       0.68655411      -0.00008898      -0.00009186      -0.00009699
Si       0.68654792      -0.68655697       2.79429077      -0.00002979       0.00006661       0.00004339
Si      -0.68655559       2.79429243       0.68654476       0.00003496       0.00002859      -0.00003458
Si       0.68654104       4.16739148      -0.68655379      -0.00003496      -0.00002859       0.00003458
Si      -0.68654942       0.68654794       4.16738877       0.00002979      -0.00006661      -0.00004339
Si       2.79427844       2.79427735       2.79428040       0.00008898       0.00009186       0.00009699
