8
Lattice="-3.50588942479886 3.505887628026299 3.505878852138372 3.505887911893329 -3.505896720368959 3.505886430871596 3.505874769960106 3.5058820645818405 -3.505887942238914" Properties=species:S:1:pos:R:3:forces:R:3 cutoff=-1.0 nneightol=1.2 n_minim_iter=4 energy=-1303.5034887024096 stress="0.04469198054525215 -1.3388748530012157e-06 4.875805754496368e-07 -1.3388748530012157e-06 0.04469256558753086 -6.062586469905357e-07 4.875805754496368e-07 -6.062586469905357e-07 0.04469221416511488" free_energy=-1303.5034887024096 pbc="T T T"
Si       2.81439138       0.69148398      -0.69149318       0.00005843      -0.00007114       0.00008636
Si       4.19737130      -0.69149864       0.69149167      -0.00005843       0.00007114      -0.00008636
Si       0.69149141       0.69149221       0.69149351      -0.00008898      -0.00009186      -0.00009699
Si       0.69148728      -0.69149640       2.81439427      -0.00002979       0.00006661       0.00004339
Si      -0.69149501       2.81439595       0.69148410       0.00003496       0.00002859      -0.00003458
Si       0.69148036       4.19737375      -0.69149319      -0.00003496      -0.00002859       0.00003458
Si      -0.69148879       0.69148730       4.19737101       0.00002979      -0.00006661      -0.00004339
Si       2.81438185       2.81438076       2.81438383       0.00008898       0.00009186       0.00009699
