8
Lattice="-3.3498555383015107 3.3498555306804647 3.3498555330531885 3.349855529047745 -3.34985553666887 3.3498555297878365 3.349855533793099 3.349855532160456 -3.3498555390416" Properties=species:S:1:pos:R:3:forces:R:3 cutoff=-1.0 nneightol=1.2 n_minim_iter=5 energy=-1304.0966010850232 stress="0.0002089080352732261 0.00020890803528461244 0.00020890803530055775 -1.183720065651707e-09 -1.8175016116317107e-09 -8.859551329682149e-10" pbc="T T T"
Si       2.66978343       0.68007210      -0.68007211       0.00017524      -0.00017526       0.00017527
Si       4.02992763      -0.68007211       0.68007210      -0.00017524       0.00017526      -0.00017527
Si       0.68007210       0.68007210       0.68007210      -0.00017523      -0.00017523      -0.00017523
Si       0.68007210      -0.68007211       2.66978343      -0.00017527       0.00017527       0.00017525
Si      -0.68007211       2.66978343       0.68007210       0.00017528       0.00017526      -0.00017527
Si       0.68007210       4.02992763      -0.68007211      -0.00017528      -0.00017526       0.00017527
Si      -0.68007211       0.68007210       4.02992763       0.00017527      -0.00017527      -0.00017525
Si       2.66978342       2.66978342       2.66978342       0.00017523       0.00017523       0.00017523
