14
Lattice="23.620297057637927 0.27814738690840984 -1.7515000504473196e-17 -0.4102434930449348 3.5161190719455804 -2.214107707768497e-16 -3.69692750702326e-27 3.2039116573685144e-15 50.879796153447174" Properties=species:S:1:pos:R:3 unique_starting_index=0 config_type=initial n_minim_iter=1 energy=-2237.53384516745 free_energy=-2237.53384516745 pbc="T T T"
Si       6.29985876       0.98520281      39.26043430
Si       5.30516802       0.91193042      13.82053622
Si      16.91019480       2.80906365      11.61936185
Si      17.90488555       2.88233604      37.05925993
Si      20.20263421       1.16252020      17.70663272
Si      15.02268963       1.01276042      43.14653080
Si       3.00741936       2.63174626      33.17316343
Si       8.18736393       2.78150604       7.73326536
Si       9.31752538       0.99363804      20.02825959
Si       2.28750140       0.90349519      45.46815767
Si      13.89252818       2.80062842      30.85153656
Si      20.92255217       2.89077127       5.41163849
Si      11.81014853       0.13907369       0.00000000
Si      -0.20512175       1.75805954      25.43989808
