8
Lattice="5.684811827861094 -1.0328368410033161e-77 7.43999575373272e-64 2.122725986490275e-80 5.286289011947282 6.863636983500267e-14 5.861780820350738e-64 -7.481866478685583e-14 5.684811827861093" Properties=species:S:1:pos:R:3 unique_starting_index=2 config_type=initial n_minim_iter=12 energy=-1300.3216168113365 free_energy=-1300.3216168113365 pbc="T T T"
Si       2.84211518       1.31901115       4.00308796
Si       2.84276677       1.31901115       1.68080897
Si       4.00358047       3.96727403       2.84227426
Si       1.68130148       3.96727403       2.84162268
Si       5.68517268       3.96727403       1.16068205
Si      -0.00029073       3.96727403       4.52321489
Si       4.52370740       1.31901115       5.68468017
Si       1.16117456       1.31901115      -0.00078324
