22
Lattice="12.837544896121933 1.0725474718615575 -1.5987169904531446 -0.6566146086580479 9.61779452968206 -2.246192021736582 -8.59023445652333 -4.863564606368976 10.091227165548183" Properties=species:S:1:pos:R:3 unique_starting_index=18 config_type=initial n_minim_iter=1 energy=-3752.9426235881083 free_energy=-3752.9426235881083 pbc="T T T"
Si       4.25002114       7.79604289      -0.25223150
Si       0.62115745       0.27377078       6.49335264
Si      -5.88534048      -2.81285217       8.37383903
Si       2.31001870      -0.97408608       8.15885794
Si     -11.20282834      -0.79429930      10.65260119
Si       8.71289477       4.97512143      -0.36001062
Si       5.65752756      -0.13126932       1.80637280
Si      -0.02753502       1.52369986       7.36424181
Si       0.78417897      -1.13524601       8.84724310
Si      -1.15667510       0.66549267       4.46641353
Si       4.61204384       0.93614457       2.89610307
Si      -2.17033408       3.42333847       3.12555250
Si      -7.17662541      -2.09449347       5.95391750
Si       2.53741472       8.48196340      -0.18767789
Si       9.81619847       3.08421189       1.32249210
Si       6.79188356       6.77447233      -4.74637884
Si       1.14204826      -2.07861322       0.54375503
Si       5.28956415      -2.02432643       5.93768600
Si       4.61371573       3.67512959       2.59856118
Si      -0.29885311       2.07198146       4.66555889
Si      -1.52233125       2.18512550       2.23727302
Si      -0.88480678       0.11555412       7.16464356
22
Lattice="12.838340712892249 1.0722901078675486 -1.5989505967436228 -0.656858819186939 9.61792380698628 -2.24651935499257 -8.590877000391298 -4.863895893326508 10.09081302948048" Properties=species:S:1:pos:R:3 unique_starting_index=18 config_type=initial n_minim_iter=2 stress="0.00012351008204101733 8.82399050879948e-05 -0.00024479927083074 8.82399050879948e-05 -0.0001370001500062233 1.6404785377481386e-05 -0.00024479927083074 1.6404785377481386e-05 -0.0005750843786995962" pbc="T T T"
Si       4.25006416       7.79591817      -0.25268007
Si       0.62100043       0.27335979       6.49276010
Si      -5.88580914      -2.81310029       8.37336484
Si       2.30997471      -0.97461667       8.15802782
Si     -11.20379001      -0.79458023      10.65209978
Si       8.71321077       4.97495318      -0.36061981
Si       5.65785942      -0.13147272       1.80606281
Si      -0.02779361       1.52322608       7.36351170
Si       0.78405076      -1.13583437       8.84655248
Si      -1.15696268       0.66526099       4.46594754
Si       4.61230342       0.93595187       2.89577792
Si      -2.17065355       3.42332047       3.12511814
Si      -7.17719318      -2.09461519       5.95370915
Si       2.53737557       8.48182853      -0.18822051
Si       9.81678123       3.08387705       1.32193778
Si       6.79228019       6.77445255      -4.74642047
Si       1.14223537      -2.07865704       0.54383449
Si       5.28984549      -2.02477515       5.93710865
Si       4.61381694       3.67487756       2.59802895
Si      -0.29901638       2.07170467       4.66495677
Si      -1.52260385       2.18496210       2.23703790
Si      -0.88505293       0.11512103       7.16392403
22
Lattice="12.838434981388456 1.0721270970318175 -1.5988483535198785 -0.6570465857389294 9.618081359021259 -2.2467583709017425 -8.590767058502037 -4.864011276744518 10.090983694397398" Properties=species:S:1:pos:R:3 unique_starting_index=18 config_type=initial n_minim_iter=3 stress="0.0002675484245641886 -0.0001037687139381566 8.999109652075193e-05 -0.0001037687139381566 0.00014416137980591316 -0.00022686811620993414 8.999109652075193e-05 -0.00022686811620993414 9.544244934096588e-05" pbc="T T T"
Si       4.24997385       7.79593334      -0.25276260
Si       0.62106777       0.27320842       6.49287712
Si      -5.88571660      -2.81317938       8.37348517
Si       2.31009978      -0.97482829       8.15818036
Si     -11.20378000      -0.79461771      10.65221344
Si       8.71318185       4.97489398      -0.36067514
Si       5.65794993      -0.13158205       1.80615703
Si      -0.02774427       1.52308066       7.36361802
Si       0.78418943      -1.13606043       8.84675141
Si      -1.15696219       0.66518735       4.46597252
Si       4.61239741       0.93586640       2.89590149
Si      -2.17069821       3.42336735       3.12507641
Si      -7.17717676      -2.09463379       5.95378017
Si       2.53727485       8.48185753      -0.18837002
Si       9.81687620       3.08372783       1.32200982
Si       6.79220830       6.77448362      -4.74652866
Si       1.14231483      -2.07870306       0.54391358
Si       5.29002005      -2.02499041       5.93730252
Si       4.61382860       3.67480001       2.59806281
Si      -0.29899741       2.07162933       4.66497086
Si      -1.52264830       2.18493968       2.23702847
Si      -0.88498271       0.11496948       7.16399940
22
Lattice="12.83784166101192 1.0720379428722104 -1.5988526153730864 -0.6570447966600421 9.617886390023646 -2.2465881315799736 -8.590366327294957 -4.863711423130699 10.090970340732488" Properties=species:S:1:pos:R:3 unique_starting_index=18 config_type=initial n_minim_iter=4 stress="-0.00044427268016132413 -0.00019359768346859942 0.00013629105375618735 -0.00019359768346859942 0.00017166077464200472 8.680032220574671e-05 0.00013629105375618735 8.680032220574671e-05 -0.0001971384640047481" pbc="T T T"
Si       4.24974201       7.79578219      -0.25256093
Si       0.62100891       0.27328810       6.49292229
Si      -5.88542749      -2.81290400       8.37347240
Si       2.30994691      -0.97465488       8.15815244
Si     -11.20330291      -0.79436808      10.65236679
Si       8.71269674       4.97482088      -0.36069163
Si       5.65770651      -0.13152337       1.80614844
Si      -0.02777938       1.52318175       7.36373196
Si       0.78417402      -1.13591617       8.84680288
Si      -1.15696557       0.66522972       4.46595750
Si       4.61223859       0.93596913       2.89601499
Si      -2.17061287       3.42344731       3.12517229
Si      -7.17687624      -2.09444542       5.95381223
Si       2.53715893       8.48166016      -0.18822407
Si       9.81644516       3.08367491       1.32206973
Si       6.79194527       6.77423098      -4.74638806
Si       1.14232691      -2.07865228       0.54390731
Si       5.28981447      -2.02483891       5.93727589
Si       4.61358755       3.67479689       2.59816430
Si      -0.29902003       2.07165965       4.66501835
Si      -1.52261257       2.18491485       2.23709881
Si      -0.88495556       0.11504618       7.16398090
22
Lattice="12.83855135976284 1.07259357539855 -1.5995039620663647 -0.6564854572729467 9.617047321331007 -2.246625916354764 -8.591438072266273 -4.863655022791157 10.092017204351052" Properties=species:S:1:pos:R:3 unique_starting_index=18 config_type=initial n_minim_iter=5 stress="0.0002308268173517313 4.2996879396542e-05 -0.00022481675351461846 4.2996879396542e-05 0.0005097110808939246 0.00033977546879237157 -0.00022481675351461846 0.00033977546879237157 0.00019841094002546228" pbc="T T T"
Si       4.25032530       7.79534685      -0.25255986
Si       0.62074737       0.27328468       6.49334140
Si      -5.88615759      -2.81278589       8.37425087
Si       2.30955692      -0.97434164       8.15851274
Si     -11.20434689      -0.79479321      10.65374675
Si       8.71320821       4.97493175      -0.36123483
Si       5.65791933      -0.13111938       1.80601125
Si      -0.02805744       1.52310197       7.36435415
Si       0.78382140      -1.13577302       8.84741277
Si      -1.15726911       0.66506464       4.46620985
Si       4.61250215       0.93631972       2.89620651
Si      -2.17065416       3.42320307       3.12553915
Si      -7.17762942      -2.09454474       5.95457462
Si       2.53777862       8.48099414      -0.18828816
Si       9.81700508       3.08394423       1.32180739
Si       6.79293001       6.77393612      -4.74685754
Si       1.14237322      -2.07839670       0.54394304
Si       5.28977859      -2.02429748       5.93741041
Si       4.61384700       3.67480450       2.59823000
Si      -0.29917261       2.07146014       4.66534512
Si      -1.52267680       2.18463647       2.23734660
Si      -0.88532856       0.11491392       7.16440196
22
Lattice="12.838584071704785 1.0728178558937513 -1.5995494192992779 -0.6562817353233958 9.616221942355931 -2.2469434701914177 -8.591540394990753 -4.863689681609586 10.092317307119833" Properties=species:S:1:pos:R:3 unique_starting_index=18 config_type=initial n_minim_iter=6 stress="-5.299323022983192e-05 0.00012440330977354837 -5.351564932123091e-06 0.00012440330977354837 -0.00017447191833961374 1.1823347620517983e-05 -5.351564932123091e-06 1.1823347620517983e-05 0.00015649201647610547" pbc="T T T"
Si       4.25048651       7.79472627      -0.25272297
Si       0.62073944       0.27304696       6.49342987
Si      -5.88619380      -2.81284253       8.37443979
Si       2.30948875      -0.97441898       8.15862298
Si     -11.20438271      -0.79528802      10.65399896
Si       8.71324341       4.97470702      -0.36147790
Si       5.65794154      -0.13099393       1.80603794
Si      -0.02803990       1.52272507       7.36446476
Si       0.78383048      -1.13594534       8.84759779
Si      -1.15729454       0.66479619       4.46620287
Si       4.61259684       0.93633251       2.89631989
Si      -2.17056881       3.42279396       3.12549313
Si      -7.17770866      -2.09465971       5.95475178
Si       2.53799478       8.48022770      -0.18854956
Si       9.81708144       3.08384481       1.32176708
Si       6.79313930       6.77358762      -4.74709078
Si       1.14239524      -2.07818747       0.54404846
Si       5.28978678      -2.02414819       5.93754696
Si       4.61391691       3.67451667       2.59819017
Si      -0.29915263       2.07109064       4.66534366
Si      -1.52263558       2.18432996       2.23731867
Si      -0.88532988       0.11459821       7.16444730
22
Lattice="12.839405002747949 1.07213978999313 -1.5995067837830068 -0.656879370950779 9.615930835017524 -2.247461447582413 -8.591868707926375 -4.863707500859333 10.091748153286186" Properties=species:S:1:pos:R:3 unique_starting_index=18 config_type=initial n_minim_iter=7 stress="8.503327645010171e-05 -0.0001703278436072888 -5.7873889521401e-05 -0.0001703278436072888 -6.412434631913189e-05 4.3018310528820065e-05 -5.7873889521401e-05 4.3018310528820065e-05 1.07547725766244e-05" pbc="T T T"
Si       4.25031790       7.79406373      -0.25311287
Si       0.62067639       0.27235968       6.49273395
Si      -5.88638272      -2.81281497       8.37379850
Si       2.30950186      -0.97506217       8.15781299
Si     -11.20517078      -0.79541084      10.65319997
Si       8.71333041       4.97405191      -0.36207562
Si       5.65837621      -0.13131761       1.80583638
Si      -0.02823520       1.52203264       7.36374280
Si       0.78398988      -1.13675822       8.84680035
Si      -1.15747195       0.66419839       4.46556720
Si       4.61305721       0.93603845       2.89622720
Si      -2.17088660       3.42255312       3.12497527
Si      -7.17818928      -2.09451351       5.95443526
Si       2.53777337       8.47950797      -0.18921918
Si       9.81752441       3.08308306       1.32145196
Si       6.79330051       6.77330831      -4.74714530
Si       1.14278856      -2.07816255       0.54425804
Si       5.29037796      -2.02472873       5.93705566
Si       4.61396789       3.67394027       2.59771578
Si      -0.29936195       2.07052520       4.66472889
Si      -1.52287149       2.18415409       2.23690476
Si      -0.88539335       0.11384008       7.16358146
22
Lattice="12.839417444086932 1.072641124383257 -1.5993122966281874 -0.6565836417392077 9.616087102483343 -2.2477195703087856 -8.591890899756361 -4.864385795454196 10.09147927542047" Properties=species:S:1:pos:R:3 unique_starting_index=18 config_type=initial n_minim_iter=8 stress="1.2777672716107938e-05 0.00018334029159765506 0.00012401426669186248 0.00018334029159765506 0.00023755735827813812 -4.140972861459938e-05 0.00012401426669186248 -4.140972861459938e-05 -0.00014366175223648177" pbc="T T T"
Si       4.25058221       7.79428983      -0.25324068
Si       0.62075747       0.27212392       6.49250169
Si      -5.88633365      -2.81325841       8.37352963
Si       2.30953347      -0.97525015       8.15759284
Si     -11.20507480      -0.79611704      10.65277462
Si       8.71344802       4.97442205      -0.36216408
Si       5.65840590      -0.13113953       1.80585919
Si      -0.02810919       1.52178201       7.36349368
Si       0.78406210      -1.13709800       8.84655251
Si      -1.15740904       0.66393828       4.46537192
Si       4.61320005       0.93618950       2.89626209
Si      -2.17070525       3.42245005       3.12477358
Si      -7.17820670      -2.09494474       5.95424595
Si       2.53809524       8.47964828      -0.18946742
Si       9.81763594       3.08342078       1.32145210
Si       6.79347152       6.77378996      -4.74716311
Si       1.14279190      -2.07815934       0.54436208
Si       5.29043330      -2.02474168       5.93699640
Si       4.61411331       3.67408217       2.59760295
Si      -0.29922041       2.07033858       4.66451647
Si      -1.52279054       2.18405079       2.23672052
Si      -0.88528189       0.11347829       7.16329882
22
Lattice="12.839543999358563 1.0724078782857744 -1.6002579034949278 -0.6566184735536178 9.614765666582905 -2.248759192232966 -8.592481898834846 -4.864567299973507 10.09255102000372" Properties=species:S:1:pos:R:3 unique_starting_index=18 config_type=initial n_minim_iter=9 stress="-7.78986722289473e-05 -9.139136107644118e-07 -9.40313744888082e-05 -9.139136107644118e-07 6.599244116428093e-05 -6.91415354611307e-05 -9.40313744888082e-05 -6.91415354611307e-05 3.228810541323513e-05" pbc="T T T"
Si       4.25050868       7.79289330      -0.25407291
Si       0.62028904       0.27107497       6.49215878
Si      -5.88669568      -2.81328277       8.37408379
Si       2.30881870      -0.97602052       8.15732097
Si     -11.20601711      -0.79676220      10.65368079
Si       8.71323056       4.97347795      -0.36350636
Si       5.65834254      -0.13118555       1.80547791
Si      -0.02883155       1.52051365       7.36342998
Si       0.78339516      -1.13822816       8.84642271
Si      -1.15780035       0.66301622       4.46532392
Si       4.61338833       0.93603836       2.89632687
Si      -2.17090516       3.42180195       3.12480364
Si      -7.17873550      -2.09494541       5.95505751
Si       2.53816498       8.47800598      -0.19063777
Si       9.81750387       3.08268998       1.32043966
Si       6.79363214       6.77315893      -4.74862034
Si       1.14315471      -2.07788624       0.54471559
Si       5.29032535      -2.02504445       5.93677486
Si       4.61380845       3.67327150       2.59700745
Si      -0.29947136       2.06915149       4.66429375
Si      -1.52316058       2.18339623       2.23639777
Si      -0.88570934       0.11219697       7.16311883
22
Lattice="12.840574453278256 1.0721320834463415 -1.5995137130526114 -0.6568759954000076 9.613493280938991 -2.2485527131866543 -8.592662882515203 -4.863691693795124 10.091685602923329" Properties=species:S:1:pos:R:3 unique_starting_index=18 config_type=initial n_minim_iter=10 stress="9.996871956236965e-05 1.4849946975013743e-05 0.00010045159031153788 1.4849946975013743e-05 -7.725706854521795e-05 9.994785050400782e-05 0.00010045159031153788 9.994785050400782e-05 -2.047629792363904e-05" pbc="T T T"
Si       4.25086075       7.79180999      -0.25354402
Si       0.62066455       0.27102741       6.49189243
Si      -5.88664814      -2.81251917       8.37340541
Si       2.30936794      -0.97577357       8.15708678
Si     -11.20660134      -0.79636925      10.65275583
Si       8.71385562       4.97270735      -0.36293226
Si       5.65892906      -0.13106022       1.80571339
Si      -0.02857814       1.52033024       7.36320225
Si       0.78392280      -1.13799567       8.84602811
Si      -1.15777054       0.66278511       4.46504883
Si       4.61413923       0.93614497       2.89674862
Si      -2.17089000       3.42159998       3.12477310
Si      -7.17910606      -2.09437452       5.95452636
Si       2.53842509       8.47680259      -0.19036581
Si       9.81837121       3.08226837       1.32085985
Si       6.79388201       6.77217366      -4.74809012
Si       1.14348923      -2.07763222       0.54482326
Si       5.29122826      -2.02465207       5.93678960
Si       4.61427142       3.67291639       2.59730653
Si      -0.29917236       2.06885770       4.66416313
Si      -1.52335528       2.18313470       2.23626164
Si      -0.88542767       0.11206476       7.16269151
22
Lattice="12.840670617995269 1.0717370180550116 -1.6007880213293035 -0.6570663152570408 9.613067854475426 -2.2497405844386216 -8.5933793135453 -4.864326300636724 10.092865376606294" Properties=species:S:1:pos:R:3 unique_starting_index=18 config_type=initial n_minim_iter=11 stress="-4.1908155517639354e-05 -1.030511795412834e-05 -5.923158588647124e-05 -1.030511795412834e-05 4.994972513553636e-05 -6.827815438295065e-05 -5.923158588647124e-05 -6.827815438295065e-05 -7.747337086180877e-06" pbc="T T T"
Si       4.25073834       7.79095930      -0.25468824
Si       0.62001489       0.26983820       6.49148355
Si      -5.88707821      -2.81275081       8.37402953
Si       2.30856822      -0.97695054       8.15669036
Si     -11.20785084      -0.79730506      10.65357434
Si       8.71351249       4.97183218      -0.36409817
Si       5.65872108      -0.13127599       1.80518766
Si      -0.02956968       1.51903363       7.36264671
Si       0.78312996      -1.13925756       8.84559994
Si      -1.15842577       0.66179624       4.46475953
Si       4.61423072       0.93589851       2.89663472
Si      -2.17118051       3.42132622       3.12453817
Si      -7.17967128      -2.09438513       5.95546167
Si       2.53836540       8.47593867      -0.19175110
Si       9.81793743       3.08151974       1.31930000
Si       6.79416967       6.77195398      -4.74968175
Si       1.14390195      -2.07765479       0.54518849
Si       5.29099116      -2.02537025       5.93641778
Si       4.61378931       3.67234706       2.59649279
Si      -0.29970895       2.06785961       4.66372896
Si      -1.52391282       2.18270984       2.23608168
Si      -0.88615941       0.11058117       7.16221425
22
Lattice="12.841458467872302 1.071317652966897 -1.6007906253989759 -0.6573349417393878 9.611741191662821 -2.2499448617594857 -8.59380878398397 -4.8636666584842745 10.092833248157682" Properties=species:S:1:pos:R:3 unique_starting_index=18 config_type=initial n_minim_iter=12 stress="5.756925009646883e-05 -2.9438563811907967e-06 1.8832342339839435e-05 -2.9438563811907967e-06 -5.115939331594396e-05 3.7542820834436534e-05 1.8832342339839435e-05 3.7542820834436534e-05 8.903966388852177e-06" pbc="T T T"
Si       4.25106099       7.78962111      -0.25462062
Si       0.61989836       0.26933905       6.49124042
Si      -5.88713781      -2.81194139       8.37393169
Si       2.30874391      -0.97717599       8.15653449
Si     -11.20879276      -0.79702947      10.65349766
Si       8.71389799       4.97062286      -0.36393943
Si       5.65899978      -0.13118928       1.80520665
Si      -0.02985460       1.51845413       7.36235377
Si       0.78295868      -1.13956683       8.84524049
Si      -1.15874132       0.66132196       4.46435344
Si       4.61488361       0.93597102       2.89706294
Si      -2.17138467       3.42095878       3.12442188
Si      -7.18015202      -2.09366565       5.95559602
Si       2.53862523       8.47459339      -0.19194132
Si       9.81827681       3.08104384       1.31908205
Si       6.79455182       6.77082566      -4.74987885
Si       1.14438524      -2.07749864       0.54542358
Si       5.29158136      -2.02519494       5.93640615
Si       4.61390415       3.67193518       2.59655548
Si      -0.29984699       2.06721876       4.66344800
Si      -1.52419886       2.18237515       2.23602240
Si      -0.88625022       0.10990304       7.16165444
22
Lattice="12.840965042163685 1.0712112846569553 -1.6011136955981244 -0.657386760682352 9.611438039782332 -2.2505810046652943 -8.59362360952876 -4.8640537922007585 10.093124837722462" Properties=species:S:1:pos:R:3 unique_starting_index=18 config_type=initial n_minim_iter=13 stress="-4.933895060491305e-05 9.71752121078023e-06 -3.0644545559184735e-05 9.71752121078023e-06 -1.5565340586018607e-05 -4.375444569521359e-05 -3.0644545559184735e-05 -4.375444569521359e-05 1.5041670697268332e-05" pbc="T T T"
Si       4.25103758       7.78908862      -0.25511571
Si       0.61967671       0.26859847       6.49082810
Si      -5.88682801      -2.81192970       8.37405522
Si       2.30838558      -0.97780761       8.15647761
Si     -11.20879497      -0.79762951      10.65355340
Si       8.71353921       4.96998108      -0.36440290
Si       5.65863616      -0.13119020       1.80510120
Si      -0.03022345       1.51767695       7.36201619
Si       0.78261792      -1.14029050       8.84491850
Si      -1.15899631       0.66075257       4.46386557
Si       4.61491077       0.93594386       2.89719885
Si      -2.17146704       3.42076904       3.12415699
Si      -7.17998611      -2.09353057       5.95591995
Si       2.53869106       8.47416429      -0.19257500
Si       9.81766330       3.08083513       1.31860713
Si       6.79423709       6.77062593      -4.75042777
Si       1.14463454      -2.07757799       0.54568367
Si       5.29142343      -2.02546661       5.93635903
Si       4.61354035       3.67177597       2.59629414
Si      -0.29995014       2.06662931       4.66292463
Si      -1.52428932       2.18206420       2.23573733
Si      -0.88650792       0.10899013       7.16116514
22
Lattice="12.8410407350513 1.0708570327971396 -1.6007174666612374 -0.6577087739524543 9.611062055998252 -2.2507000321964075 -8.593323335636256 -4.863821778313901 10.092519653759268" Properties=species:S:1:pos:R:3 unique_starting_index=18 config_type=initial n_minim_iter=14 stress="1.1926995537537206e-05 -4.099829689627424e-06 4.719823699812976e-05 -4.099829689627424e-06 -4.477809398937063e-05 -1.0413568854877832e-05 4.719823699812976e-05 -1.0413568854877832e-05 -4.545870669416066e-05" pbc="T T T"
Si       4.25118897       7.78849679      -0.25502138
Si       0.61979764       0.26824330       6.49026054
Si      -5.88633181      -2.81135853       8.37359934
Si       2.30852648      -0.97804465       8.15638614
Si     -11.20867478      -0.79753836      10.65270550
Si       8.71332945       4.96929486      -0.36417069
Si       5.65862582      -0.13116389       1.80524657
Si      -0.03024490       1.51710817       7.36161898
Si       0.78280940      -1.14072278       8.84430751
Si      -1.15910647       0.66053226       4.46323462
Si       4.61529755       0.93601666       2.89755077
Si      -2.17151029       3.42079532       3.12389130
Si      -7.17982590      -2.09292432       5.95569492
Si       2.53881322       8.47378198      -0.19261110
Si       9.81762846       3.08050652       1.31877768
Si       6.79399080       6.77004328      -4.75028142
Si       1.14499899      -2.07770477       0.54587679
Si       5.29185656      -2.02548250       5.93638083
Si       4.61348894       3.67175847       2.59642728
Si      -0.29997160       2.06623092       4.66238769
Si      -1.52449199       2.18192207       2.23539585
Si      -0.88650707       0.10852538       7.16051575
22
Lattice="12.840594806035313 1.0706135250240547 -1.6013854576927566 -0.6577802871740793 9.611113456125807 -2.2508965379077437 -8.593359648958208 -4.863806069893758 10.093318152049402" Properties=species:S:1:pos:R:3 unique_starting_index=18 config_type=initial n_minim_iter=15 stress="-0.00011243615566849126 5.40628604575634e-05 -6.076738228626883e-05 5.40628604575634e-05 -4.897413109451808e-05 -3.229624168895303e-05 -6.076738228626883e-05 -3.229624168895303e-05 9.84978505958872e-05" pbc="T T T"
Si       4.25129809       7.78826336      -0.25524415
Si       0.61927689       0.26796354       6.49011781
Si      -5.88610037      -2.81078330       8.37428614
Si       2.30810001      -0.97834844       8.15661440
Si     -11.20894838      -0.79755712      10.65351096
Si       8.71266588       4.96884097      -0.36479200
Si       5.65816218      -0.13107790       1.80514595
Si      -0.03075960       1.51647503       7.36183270
Si       0.78219045      -1.14104167       8.84440170
Si      -1.15947408       0.66020771       4.46300963
Si       4.61524373       0.93621191       2.89783173
Si      -2.17153285       3.42084037       3.12397524
Si      -7.17967972      -2.09227996       5.95653617
Si       2.53896607       8.47388751      -0.19275660
Si       9.81701778       3.08031469       1.31839132
Si       6.79374337       6.76977211      -4.75100340
Si       1.14528341      -2.07800863       0.54602458
Si       5.29160500      -2.02547753       5.93656045
Si       4.61302233       3.67205244       2.59651897
Si      -0.30031005       2.06597555       4.66227426
Si      -1.52495092       2.18205447       2.23536317
Si      -0.88695546       0.10805519       7.16051002
22
Lattice="12.84118306994529 1.0697370931282018 -1.6009761220541117 -0.6585342293078975 9.611386179532094 -2.250678366819732 -8.593258413394963 -4.863244903609371 10.092418390804816" Properties=species:S:1:pos:R:3 unique_starting_index=18 config_type=initial n_minim_iter=16 stress="3.76357347367252e-05 -2.2905159882573813e-05 3.0177408246158148e-05 -2.2905159882573813e-05 -2.2033641537124504e-05 -8.722783822805251e-06 3.0177408246158148e-05 -8.722783822805251e-06 -4.7361733479173356e-05" pbc="T T T"
Si       4.25139121       7.78804421      -0.25497802
Si       0.61926937       0.26778983       6.48944480
Si      -5.88572067      -2.80982563       8.37370313
Si       2.30850603      -0.97855965       8.15609943
Si     -11.20952236      -0.79685062      10.65247640
Si       8.71256721       4.96811312      -0.36472762
Si       5.65837368      -0.13125178       1.80526089
Si      -0.03078868       1.51623830       7.36136828
Si       0.78233422      -1.14110348       8.84370578
Si      -1.15964957       0.66021073       4.46245979
Si       4.61572636       0.93624057       2.89811449
Si      -2.17174623       3.42116510       3.12373770
Si      -7.17966519      -2.09123007       5.95624240
Si       2.53890497       8.47409812      -0.19248814
Si       9.81717465       3.07974898       1.31863508
Si       6.79356018       6.76913948      -4.75070589
Si       1.14577049      -2.07840560       0.54612358
Si       5.29234145      -2.02563195       5.93648756
Si       4.61299966       3.67225931       2.59676321
Si      -0.30048765       2.06588383       4.66183534
Si      -1.52535018       2.18229771       2.23502468
Si      -0.88701298       0.10777035       7.15977037
22
Lattice="12.840550415220182 1.069106349975045 -1.601155202105781 -0.6589545073616428 9.611753485496777 -2.2505236713778314 -8.592755649109487 -4.862828601248751 10.092546986497158" Properties=species:S:1:pos:R:3 unique_starting_index=18 config_type=initial n_minim_iter=17 stress="-1.3399207133666207e-05 1.261693437107493e-06 -1.4141405507931901e-05 1.261693437107493e-06 -1.8205750734201604e-05 -4.080507686971005e-06 -1.4141405507931901e-05 -4.080507686971005e-06 2.224974778362811e-05" pbc="T T T"
Si       4.25142445       7.78800280      -0.25481589
Si       0.61880368       0.26755757       6.48928674
Si      -5.88495856      -2.80864554       8.37406797
Si       2.30813715      -0.97856394       8.15587911
Si     -11.20934851      -0.79638929      10.65245866
Si       8.71143911       4.96756166      -0.36507579
Si       5.65788003      -0.13120933       1.80536861
Si      -0.03110330       1.51597091       7.36126781
Si       0.78201406      -1.14123849       8.84344472
Si      -1.15989591       0.66011413       4.46231288
Si       4.61571149       0.93651697       2.89856043
Si      -2.17191239       3.42135418       3.12385297
Si      -7.17905175      -2.08998412       5.95681487
Si       2.53899577       8.47459775      -0.19216398
Si       9.81627832       3.07960524       1.31856226
Si       6.79285091       6.76843567      -4.75092207
Si       1.14619192      -2.07898036       0.54625482
Si       5.29238315      -2.02550495       5.93681707
Si       4.61244856       3.67285762       2.59723562
Si      -0.30056477       2.06581171       4.66172955
Si      -1.52568272       2.18244379       2.23492724
Si      -0.88726933       0.10729156       7.15946170
22
Lattice="12.839257298893234 1.0680285707207884 -1.6006404195782753 -0.6597992295174985 9.612350410096797 -2.250230215984413 -8.591235974846562 -4.86215643142493 10.091724459260973" Properties=species:S:1:pos:R:3 unique_starting_index=18 config_type=initial n_minim_iter=18 stress="-5.598990870533824e-06 -7.874621079414712e-06 1.5652963396130878e-05 -7.874621079414712e-06 -4.262119598184153e-07 -2.09302835456984e-06 1.5652963396130878e-05 -2.09302835456984e-06 -1.4719020229686621e-05" pbc="T T T"
Si       4.25140647       7.78799653      -0.25433266
Si       0.61885995       0.26707410       6.48859800
Si      -5.88314348      -2.80664980       8.37397422
Si       2.30780596      -0.97852655       8.15491716
Si     -11.20828372      -0.79557266      10.65133347
Si       8.70962187       4.96649032      -0.36533749
Si       5.65713704      -0.13114710       1.80579443
Si      -0.03147516       1.51536097       7.36042129
Si       0.78183795      -1.14168253       8.84267981
Si      -1.15980530       0.65986232       4.46163860
Si       4.61575802       0.93693416       2.89932352
Si      -2.17191671       3.42167786       3.12363069
Si      -7.17752812      -2.08788166       5.95706846
Si       2.53911875       8.47542886      -0.19147914
Si       9.81452854       3.07915274       1.31865852
Si       6.79132482       6.76743672      -4.75053906
Si       1.14691424      -2.07997600       0.54651980