22
Lattice="12.843747095666782 1.0788667805833128 -1.5971324996831178 -0.6531506474074243 9.628583816629504 -2.2443929067741943 -8.59525707800723 -4.871254685426945 10.088316203869617" Properties=species:S:1:pos:R:3 unique_starting_index=18 config_type=initial n_minim_iter=1 energy=-3752.9344511483364 free_energy=-3752.9344511483364 pbc="T T T"
Si       4.24515195       7.80119894      -0.25825622
Si       0.62643773       0.28182158       6.49728187
Si      -5.89742483      -2.83545355       8.36283275
Si       2.31528348      -0.96774277       8.16206349
Si     -11.20190078      -0.79304358      10.65387751
Si       8.72535307       4.99214358      -0.35296920
Si       5.65481708      -0.13878922       1.80297812
Si      -0.02095395       1.53251140       7.36812370
Si       0.78953902      -1.12675929       8.85110853
Si      -1.15127140       0.67413878       4.47076817
Si       4.60858748       0.92975855       2.89029642
Si      -2.16555054       3.43116598       3.12988868
Si      -7.18905415      -2.11261916       5.94534318
Si       2.53362068       8.48973298      -0.18942644
Si       9.82698059       3.09845347       1.32851529
Si       6.80230231       6.79083095      -4.73917004
Si       1.13282264      -2.07554254       0.53815758
Si       5.28199754      -2.03779668       5.92957823
Si       4.62158477       3.66964147       2.58711812
Si      -0.29348195       2.08069287       4.66984329
Si      -1.51769407       2.19305991       2.24153664
Si      -0.87932191       0.12497446       7.16938163
22
Lattice="12.843006240199987 1.079203376560427 -1.5981934787574055 -0.6528622630375632 9.629012995283153 -2.2456070353511546 -8.595417797426244 -4.872663229244115 10.089813526864917" Properties=species:S:1:pos:R:3 unique_starting_index=18 config_type=initial n_minim_iter=2 stress="-0.0002617295178325077 2.977715169541419e-05 0.00031423743991436685 2.977715169541419e-05 -0.00015193421584113332 -0.0005961317659479407 0.00031423743991436685 -0.0005961317659479407 0.0004000433950677104" pbc="T T T"
Si       4.24494714       7.80139818      -0.25944817
Si       0.62591744       0.28101657       6.49741431
Si      -5.89761092      -2.83653655       8.36380583
Si       2.31453799      -0.96875073       8.16217222
Si     -11.20192721      -0.79446771      10.65517166
Si       8.72475860       4.99239629      -0.35431810
Si       5.65433661      -0.13891545       1.80264407
Si      -0.02146741       1.53158404       7.36817817
Si       0.78888155      -1.12792718       8.85151501
Si      -1.15156979       0.67359158       4.47086050
Si       4.60816420       0.92954602       2.89004541
Si      -2.16558774       3.43092370       3.12969136
Si      -7.18903197      -2.11343884       5.94629626
Si       2.53357899       8.48986339      -0.19067299
Si       9.82635827       3.09841732       1.32750245
Si       6.80227570       6.79149950      -4.74052789
Si       1.13275820      -2.07561521       0.53838749
Si       5.28126864      -2.03848915       5.92962508
Si       4.62111122       3.66944984       2.58644644
Si      -0.29375643       2.08010488       4.66965425
Si      -1.51778739       2.19275685       2.24148487
Si      -0.87976615       0.12401702       7.16954818
22
Lattice="12.842973328170194 1.0792737795402938 -1.5990413592394626 -0.6526804465261001 9.629261754422954 -2.245606265961309 -8.596018237034428 -4.872896400463206 10.090220690790542" Properties=species:S:1:pos:R:3 unique_starting_index=18 config_type=initial n_minim_iter=3 stress="-0.00023009552937082196 0.00018231916039107617 -0.0003958639418178051 0.00018231916039107617 0.0001085596327580043 -0.0001039837538044575 -0.0003958639418178051 -0.0001039837538044575 -0.00028134416784062936" pbc="T T T"
Si       4.24492868       7.80159515      -0.25976075
Si       0.62545327       0.28094513       6.49722633
Si      -5.89810663      -2.83666401       8.36402622
Si       2.31393841      -0.96885113       8.16178145
Si     -11.20254989      -0.79460873      10.65577233
Si       8.72463929       4.99257065      -0.35502671
Si       5.65416505      -0.13889469       1.80220901
Si      -0.02198264       1.53153175       7.36802045
Si       0.78827878      -1.12808080       8.85130115
Si      -1.15190459       0.67355050       4.47079752
Si       4.60796658       0.92960650       2.88971845
Si      -2.16576998       3.43104058       3.12973240
Si      -7.18938146      -2.11355156       5.94668664
Si       2.53360454       8.49003688      -0.19093502
Si       9.82621499       3.09849174       1.32677744
Si       6.80256151       6.79167781      -4.74089261
Si       1.13274742      -2.07565642       0.53834065
Si       5.28083335      -2.03856698       5.92913696
Si       4.62087806       3.66953812       2.58605205
Si      -0.29406365       2.08008154       4.66949900
Si      -1.51794560       2.19275033       2.24153784
Si      -0.88025616       0.12390430       7.16938481
22
Lattice="12.843463565503043 1.0787075659724767 -1.5989908886690964 -0.6531389927801905 9.629305863977391 -2.245579063690255 -8.596096836483074 -4.872420488836868 10.090502643691156" Properties=species:S:1:pos:R:3 unique_starting_index=18 config_type=initial n_minim_iter=4 stress="0.0003080431269850264 -0.00028725520982752687 -0.0002134405901154633 -0.00028725520982752687 0.0009088767214636424 3.8131462250461957e-06 -0.0002134405901154633 3.8131462250461957e-06 0.0008331519304959195" pbc="T T T"
Si       4.24476776       7.80144661      -0.25955798
Si       0.62549584       0.28096392       6.49749953
Si      -5.89814266      -2.83625610       8.36425048
Si       2.31410010      -0.96884926       8.16203408
Si     -11.20294247      -0.79400147      10.65622358
Si       8.72469711       4.99227030      -0.35503361
Si       5.65445063      -0.13906659       1.80230710
Si      -0.02202425       1.53161313       7.36838756
Si       0.78845842      -1.12806876       8.85168045
Si      -1.15202078       0.67361628       4.47090130
Si       4.60823223       0.92954823       2.88998941
Si      -2.16598575       3.43128847       3.12989321
Si      -7.18958831      -2.11315641       5.94687232
Si       2.53338346       8.48990642      -0.19083309
Si       9.82656884       3.09810022       1.32695548
Si       6.80258057       6.79131508      -4.74086666
Si       1.13296182      -2.07569054       0.53838229
Si       5.28124477      -2.03869753       5.92936129
Si       4.62091490       3.66941836       2.58626497
Si      -0.29414559       2.08011272       4.66966256
Si      -1.51811238       2.19280702       2.24166699
Si      -0.88026378       0.12395838       7.16956074
22
Lattice="12.843735977901215 1.0780706466454826 -1.598196638513607 -0.6536069031743911 9.627874402905428 -2.2452415285706833 -8.595666342431723 -4.871172833132013 10.089313902393203" Properties=species:S:1:pos:R:3 unique_starting_index=18 config_type=initial n_minim_iter=5 stress="-0.0007460094497223704 -0.0005118060184629393 8.401286172488366e-05 -0.0005118060184629393 -5.416422629188336e-05 0.00025270931130514236 8.401286172488366e-05 0.00025270931130514236 -7.885074642048619e-05" pbc="T T T"
Si       4.24460654       7.80016169      -0.25896804
Si       0.62578822       0.28098667       6.49714255
Si      -5.89772877      -2.83531289       8.36328749
Si       2.31452405      -0.96857705       8.16146441
Si     -11.20276305      -0.79327705      10.65518545
Si       8.72457597       4.99133485      -0.35470077
Si       5.65476893      -0.13909746       1.80245031
Si      -0.02175699       1.53151030       7.36805795
Si       0.78903793      -1.12782846       8.85119609
Si      -1.15200119       0.67357211       4.47042348
Si       4.60867140       0.92952597       2.89028940
Si      -2.16599791       3.43110708       3.12967597
Si      -7.18950330      -2.11241587       5.94613568
Si       2.53323421       8.48845989      -0.19052470
Si       9.82692889       3.09735133       1.32747645
Si       6.80244436       6.78989940      -4.73992326
Si       1.13324574      -2.07537943       0.53843557
Si       5.28188975      -2.03837846       5.92914902
Si       4.62101533       3.66884681       2.58648309
Si      -0.29403389       2.07982229       4.66932383
Si      -1.51816483       2.19252429       2.24154610
Si      -0.87996024       0.12398418       7.16884409
22
Lattice="12.84572458791756 1.0787390399412875 -1.5978208411505035 -0.6532112270662966 9.626887435915966 -2.2454144785604586 -8.596991402325498 -4.871401092584737 10.088870839567383" Properties=species:S:1:pos:R:3 unique_starting_index=18 config_type=initial n_minim_iter=6 stress="0.00036531324306613756 7.055638266021129e-05 9.806216496238908e-05 7.055638266021129e-05 -7.423454073606083e-05 5.202825987380192e-05 9.806216496238908e-05 5.202825987380192e-05 -5.360863658331412e-05" pbc="T T T"
Si       4.24569586       7.79960083      -0.25888594
Si       0.62604501       0.28078207       6.49693728
Si      -5.89851416      -2.83544510       8.36286471
Si       2.31494496      -0.96850952       8.16116159
Si     -11.20426255      -0.79411891      10.65472090
Si       8.72601403       4.99139655      -0.35478596
Si       5.65571640      -0.13870927       1.80251931
Si      -0.02151789       1.53112969       7.36786070
Si       0.78936286      -1.12797232       8.85099340
Si      -1.15215419       0.67321268       4.47010250
Si       4.60966896       0.92980138       2.89048750
Si      -2.16602186       3.43067152       3.12944181
Si      -7.19063275      -2.11271228       5.94584690
Si       2.53417448       8.48762391      -0.19068419
Si       9.82868395       3.09756982       1.32765989
Si       6.80385649       6.78964726      -4.73965327
Si       1.13344493      -2.07508025       0.53856559
Si       5.28283296      -2.03794798       5.92908941
Si       4.62196346       3.66872303       2.58648205
Si      -0.29386067       2.07939835       4.66905735
Si      -1.51822000       2.19212723       2.24139855
Si      -0.87994232       0.12359156       7.16840534
22
Lattice="12.844975285440828 1.0793411169986804 -1.5987811739647668 -0.6526307234430175 9.626222520837745 -2.2464810363004384 -8.597224016748024 -4.872408848446399 10.090189258186834" Properties=species:S:1:pos:R:3 unique_starting_index=18 config_type=initial n_minim_iter=7 stress="-0.00022983221887581918 0.00023907885869310565 0.00011832314126496146 0.00023907885869310565 0.00031576895497002896 8.214363412177176e-05 0.00011832314126496146 8.214363412177176e-05 6.807540149914696e-05" pbc="T T T"
Si       4.24573537       7.79907938      -0.25967875
Si       0.62552697       0.27985462       6.49691606
Si      -5.89861356      -2.83606551       8.36360357
Si       2.31389810      -0.96911501       8.16111874
Si     -11.20426259      -0.79569898      10.65598500
Si       8.72526425       4.99144772      -0.35627871
Si       5.65527973      -0.13844045       1.80216223
Si      -0.02209403       1.53009023       7.36807525
Si       0.78877756      -1.12904106       8.85123203
Si      -1.15252380       0.67209567       4.46994895
Si       4.60958443       0.92998884       2.89061185
Si      -2.16586347       3.43003666       3.12936065
Si      -7.19074076      -2.11334260       5.94678102
Si       2.53453446       8.48674049      -0.19184689
Si       9.82798191       3.09763975       1.32688942
Si       6.80418934       6.78995078      -4.74088747
Si       1.13356222      -2.07484009       0.53890060
Si       5.28222876      -2.03806681       5.92900854
Si       4.62152714       3.66842990       2.58596235
Si      -0.29419559       2.07849896       4.66895136
Si      -1.51811192       2.19167367       2.24120712
Si      -0.88032360       0.12233279       7.16831506
22
Lattice="12.845549980957967 1.078734130187138 -1.5994015442769074 -0.6529950851535743 9.625471909932116 -2.2468956214532034 -8.597825780562873 -4.872047328208483 10.090754327246602" Properties=species:S:1:pos:R:3 unique_starting_index=18 config_type=initial n_minim_iter=8 stress="0.00010738649752051706 -0.00012517586383234227 -0.00021631988892831507 -0.00012517586383234227 -0.0002705816753415638 -4.889440148497178e-05 -0.00021631988892831507 -4.889440148497178e-05 0.00017726011543543304" pbc="T T T"
Si       4.24558489       7.79817680      -0.26014650
Si       0.62524001       0.27943399       6.49679297
Si      -5.89907377      -2.83585213       8.36392171
Si       2.31360081      -0.96949922       8.16096560
Si     -11.20522411      -0.79560599      10.65651134
Si       8.72534450       4.99062255      -0.35698519
Si       5.65546366      -0.13870794       1.80189102
Si      -0.02256139       1.52955138       7.36801022
Si       0.78845721      -1.12945843       8.85117684
Si      -1.15284042       0.67176576       4.46991049
Si       4.60971661       0.92966553       2.89046914
Si      -2.16624320       3.42969964       3.12932570
Si      -7.19126037      -2.11306244       5.94720360
Si       2.53431695       8.48579704      -0.19237893
Si       9.82819235       3.09689026       1.32631467
Si       6.80439685       6.78927198      -4.74151573
Si       1.13376860      -2.07471276       0.53899154
Si       5.28234182      -2.03836463       5.92880690
Si       4.62141327       3.66780224       2.58559933
Si      -0.29451583       2.07801594       4.66883587
Si      -1.51838043       2.19143999       2.24112177
Si      -0.88068226       0.12191138       7.16825212
22
Lattice="12.846851453361882 1.0780518855713623 -1.5987869968042736 -0.6537985217716349 9.6249467648293 -2.248202529513587 -8.598098296493204 -4.872846070041625 10.089064731464363" Properties=species:S:1:pos:R:3 unique_starting_index=18 config_type=initial n_minim_iter=9 stress="0.00012731529029012492 -0.00012930961268321734 7.272554179958407e-05 -0.00012930961268321734 0.00023478330116721637 -0.00013521688475123082 7.272554179958407e-05 -0.00013521688475123082 -0.0003219232420382137" pbc="T T T"
Si       4.24562128       7.79709531      -0.26088236
Si       0.62543586       0.27781132       6.49497860
Si      -5.89898512      -2.83623721       8.36213567
Si       2.31386253      -0.97104531       8.15909027
Si     -11.20635747      -0.79644852      10.65404412
Si       8.72565521       4.98958967      -0.35785910
Si       5.65623177      -0.13904287       1.80164340
Si      -0.02277023       1.52773775       7.36625476
Si       0.78873488      -1.13152050       8.84915108
Si      -1.15307151       0.67039486       4.46868224
Si       4.61089066       0.92933307       2.89051246
Si      -2.16649333       3.42923061       3.12829139
Si      -7.19192047      -2.11319569       5.94617121
Si       2.53432044       8.48450313      -0.19391509
Si       9.82912631       3.09585997       1.32569605
Si       6.80443671       6.78913228      -4.74182546
Si       1.13455787      -2.07462205       0.53956305
Si       5.28361433      -2.03941296       5.92786869
Si       4.62159917       3.66689936       2.58468331
Si      -0.29437198       2.07644018       4.66738591
Si      -1.51885232       2.19084801       2.23994252
Si      -0.88045335       0.11990120       7.16626775
22
Lattice="12.846588713716066 1.0787531826478522 -1.5995598386614749 -0.6529571600572278 9.622596403790437 -2.2484455628276434 -8.598621416625202 -4.8722832579642805 10.090844753772144" Properties=species:S:1:pos:R:3 unique_starting_index=18 config_type=initial n_minim_iter=10 stress="-6.40243176927705e-05 0.00010955075837500501 -1.2915921185024287e-05 0.00010955075837500501 -0.00010404881805330862 7.763872872653578e-05 -1.2915921185024287e-05 7.763872872653578e-05 0.0001666780673926871" pbc="T T T"
Si       4.24617793       7.79552335      -0.26076052
Si       0.62513069       0.27763015       6.49567952
Si      -5.89918410      -2.83564358       8.36345023
Si       2.31317270      -0.97059449       8.15997977
Si     -11.20681741      -0.79698469      10.65609042
Si       8.72563557       4.98897919      -0.35828640
Si       5.65598064      -0.13834333       1.80162810
Si      -0.02318506       1.52722155       7.36737042
Si       0.78816097      -1.13129029       8.85016129
Si      -1.15333937       0.66986085       4.46930149
Si       4.61107903       0.92984846       2.89117912
Si      -2.16616877       3.42856509       3.12911006
Si      -7.19221630      -2.11298893       5.94743091
Si       2.53510230       8.48252871      -0.19405081
Si       9.82892578       3.09592510       1.32532696
Si       6.80488148       6.78802916      -4.74292867
Si       1.13465499      -2.07402635       0.53974785
Si       5.28324230      -2.03837271       5.92840803
Si       4.62150697       3.66657601       2.58500581
Si      -0.29427977       2.07563588       4.66806806
Si      -1.51895522       2.19018130       2.24024489
Si      -0.88073356       0.11936087       7.16713344
22
Lattice="12.847942642425961 1.0775228536971169 -1.6001165647485978 -0.6539479634423877 9.621926882490412 -2.2496770321221313 -8.599509972382686 -4.872460708372424 10.090629817119108" Properties=species:S:1:pos:R:3 unique_starting_index=18 config_type=initial n_minim_iter=11 stress="4.527882288570526e-05 -4.743878177118447e-05 6.087196888802333e-06 -4.743878177118447e-05 5.4655562289932014e-05 -6.063193378080422e-05 6.087196888802333e-06 -6.063193378080422e-05 -0.00010705670619582846" pbc="T T T"
Si       4.24612994       7.79410346      -0.26171330
Si       0.62474743       0.27610777       6.49450923
Si      -5.89952051      -2.83542211       8.36285833
Si       2.31297108      -0.97216150       8.15873376
Si     -11.20897139      -0.79754206      10.65521208
Si       8.72578374       4.98725333      -0.35900821
Si       5.65649349      -0.13879451       1.80111960
Si      -0.02411863       1.52553652       7.36584460
Si       0.78789696      -1.13284745       8.84864835
Si      -1.15411804       0.66856509       4.46830662
Si       4.61203464       0.92941744       2.89119852
Si      -2.16666012       3.42836943       3.12837523
Si      -7.19318689      -2.11244637       5.94750471
Si       2.53490938       8.48117617      -0.19556639
Si       9.82930616       3.09445056       1.32376823
Si       6.80525630       6.78727021      -4.74390293
Si       1.13552882      -2.07404329       0.54025287
Si       5.28411119      -2.03943918       5.92761959
Si       4.62129236       3.66565368       2.58410112
Si      -0.29476369       2.07425526       4.66699225
Si      -1.51985688       2.18974746       2.23974862
Si      -0.88129852       0.11737936       7.16562006
22
Lattice="12.848307542615471 1.077203317591299 -1.6008949640220667 -0.6540009197113328 9.620292919240999 -2.2502248917587666 -8.600157260644512 -4.871963036700737 10.091666626456282" Properties=species:S:1:pos:R:3 unique_starting_index=18 config_type=initial n_minim_iter=12 stress="1.704506310317316e-05 2.3890271971382423e-05 -3.506913199999176e-05 2.3890271971382423e-05 -5.9585579124625235e-05 3.416249845380482e-05 -3.506913199999176e-05 3.416249845380482e-05 7.034960021603471e-05" pbc="T T T"
Si       4.24649551       7.79248781      -0.26195078
Si       0.62420493       0.27528272       6.49446302
Si      -5.89962585      -2.83460330       8.36348389
Si       2.31261748      -0.97262362       8.15884592
Si     -11.21014381      -0.79756728      10.65626854
Si       8.72582222       4.98575946      -0.35928556
Si       5.65645300      -0.13854449       1.80091163
Si      -0.02496349       1.52455114       7.36580314
Si       0.78707466      -1.13348409       8.84859800
Si      -1.15482506       0.66780723       4.46804633
Si       4.61261290       0.92959785       2.89173878
Si      -2.16690588       3.42782614       3.12845864
Si      -7.19369631      -2.11168128       5.94842609
Si       2.53530387       8.47955436      -0.19614512
Si       9.82911854       3.09404777       1.32294720
Si       6.80576847       6.78596047      -4.74494278
Si       1.13606672      -2.07380914       0.54059204
Si       5.28428042      -2.03923372       5.92767983
Si       4.62101138       3.66521836       2.58404739
Si      -0.29516798       2.07329736       4.66682861
Si      -1.52022092       2.18923948       2.23981270
Si      -0.88176889       0.11625655       7.16527000
22
Lattice="12.847993099399451 1.0766923452282506 -1.600742457750263 -0.6544357446917202 9.619792251181527 -2.2508936470348506 -8.599680561675342 -4.872100227809222 10.091193442034768" Properties=species:S:1:pos:R:3 unique_starting_index=18 config_type=initial n_minim_iter=13 stress="5.9627306469238335e-06 -1.2170267973627897e-05 5.912148809783172e-06 -1.2170267973627897e-05 -3.0407308376745528e-05 -2.606053143487703e-05 5.912148809783172e-06 -2.606053143487703e-05 -4.6038955751360455e-05" pbc="T T T"
Si       4.24646783       7.79159790      -0.26229793
Si       0.62414875       0.27427800       6.49360305
Si      -5.89890973      -2.83427494       8.36295479
Si       2.31255217      -0.97345648       8.15848644
Si     -11.21014796      -0.79797410      10.65540679
Si       8.72549366       4.98451502      -0.35944762
Si       5.65625166      -0.13859289       1.80087706
Si      -0.02529318       1.52350047       7.36500628
Si       0.78695765      -1.13439335       8.84774651
Si      -1.15514773       0.66704598       4.46708286
Si       4.61301611       0.92952626       2.89205279
Si      -2.16705283       3.42763800       3.12791811
Si      -7.19339553      -2.11115546       5.94829921
Si       2.53531595       8.47888060      -0.19680358
Si       9.82857522       3.09355789       1.32266057
Si       6.80517886       6.78537003      -4.74512927
Si       1.13654528      -2.07389029       0.54095938
Si       5.28457889      -2.03962413       5.92752030
Si       4.62061476       3.66494090       2.58383832
Si      -0.29516250       2.07253377       4.66587824
Si      -1.52037899       2.18884553       2.23927754
Si      -0.88193863       0.11506524       7.16416472
22
Lattice="12.847292834035654 1.076290640289288 -1.6006695916808562 -0.6547342244589646 9.619392970273323 -2.251325895807712 -8.599024726112065 -4.872078751751408 10.09102795299516" Properties=species:S:1:pos:R:3 unique_starting_index=18 config_type=initial n_minim_iter=14 stress="-4.493217594420295e-05 1.2537864626184562e-05 8.559043817624316e-06 1.2537864626184562e-05 -4.4984679986232125e-05 -3.4316969386204996e-05 8.559043817624316e-06 -3.4316969386204996e-05 -3.0078163210954977e-05" pbc="T T T"
Si       4.24651463       7.79087151      -0.26243949
Si       0.62402723       0.27357930       6.49293174
Si      -5.89798689      -2.83367574       8.36277024
Si       2.31230169      -0.97397918       8.15858824
Si     -11.20959944      -0.79816711      10.65488919
Si       8.72461024       4.98354117      -0.35946256
Si       5.65582149      -0.13848913       1.80092574
Si      -0.02558531       1.52247539       7.36463772
Si       0.78684545      -1.13525731       8.84710641
Si      -1.15538197       0.66663857       4.46630060
Si       4.61328222       0.92964976       2.89253624
Si      -2.16699859       3.42766510       3.12762958
Si      -7.19283342      -2.11040429       5.94845680
Si       2.53544163       8.47849425      -0.19713889
Si       9.82777203       3.09311772       1.32260716
Si       6.80450221       6.78472207      -4.74544639
Si       1.13697688      -2.07405616       0.54128231
Si       5.28468282      -2.03974649       5.92761779
Si       4.62008525       3.66497442       2.58392056
Si      -0.29534940       2.07179566       4.66516890
Si      -1.52065344       2.18860352       2.23883058
Si      -0.88222653       0.11414593       7.16341979
22
Lattice="12.847160450518558 1.0754284631076043 -1.6006848690046427 -0.6553446683121812 9.61926981103171 -2.2511959556299677 -8.59870029794614 -4.871346445891968 10.090886011893298" Properties=species:S:1:pos:R:3 unique_starting_index=18 config_type=initial n_minim_iter=15 stress="-1.6895311034526266e-05 2.7166929859803173e-05 2.126720510210577e-05 2.7166929859803173e-05 -9.477332071094419e-05 2.5150909322277816e-05 2.126720510210577e-05 2.5150909322277816e-05 1.2276406092711928e-05" pbc="T T T"
Si       4.24661882       7.79031894      -0.26219108
Si       0.62366183       0.27334314       6.49244996
Si      -5.89725428      -2.83239728       8.36274845
Si       2.31237260      -0.97420161       8.15856813
Si     -11.20983417      -0.79743078      10.65471188
Si       8.72388321       4.98246587      -0.35956646
Si       5.65561612      -0.13845720       1.80098305
Si      -0.02589754       1.52177284       7.36457569
Si       0.78655756      -1.13545150       8.84673786
Si      -1.15568933       0.66635304       4.46568022
Si       4.61365768       0.92985756       2.89308967
Si      -2.16701728       3.42782840       3.12752530
Si      -7.19248208      -2.10901884       5.94877039
Si       2.53549586       8.47848120      -0.19691028
Si       9.82734526       3.09250318       1.32274387
Si       6.80386910       6.78386747      -4.74553059
Si       1.13750634      -2.07439141       0.54146518
Si       5.28504970      -2.03969607       5.92778289
Si       4.61961660       3.66526402       2.58432553
Si      -0.29558979       2.07155708       4.66480971
Si      -1.52134238       2.18887743       2.23864888
Si      -0.88254483       0.11372706       7.16292263
22
Lattice="12.846987669767032 1.0742213152863507 -1.600920638825965 -0.6562522994022009 9.619902605844166 -2.2511919302106804 -8.598374266929461 -4.870871998284538 10.090705955909776" Properties=species:S:1:pos:R:3 unique_starting_index=18 config_type=initial n_minim_iter=16 stress="6.104396929581811e-06 -2.5040429978988735e-05 -1.5058794282463612e-05 -2.5040429978988735e-05 -1.742015016917152e-05 -2.0446498618679898e-05 -1.5058794282463612e-05 -2.0446498618679898e-05 -3.725102325289113e-05" pbc="T T T"
Si       4.24648989       7.79019159      -0.26221071
Si       0.62317650       0.27286059       6.49172708
Si      -5.89653506      -2.83124219       8.36269304
Si       2.31232770      -0.97473340       8.15812482
Si     -11.21034187      -0.79670287      10.65439955
Si       8.72294539       4.98142472      -0.36010613
Si       5.65536335      -0.13867133       1.80089440
Si      -0.02637726       1.52116897       7.36426593
Si       0.78612020      -1.13579631       8.84615401
Si      -1.15614301       0.66623709       4.46515334
Si       4.61390711       0.92991072       2.89342834
Si      -2.16726127       3.42829442       3.12736470
Si      -7.19208854      -2.10759313       5.94912774
Si       2.53529291       8.47904223      -0.19687639
Si       9.82658193       3.09170421       1.32261815
Si       6.80327523       6.78312393      -4.74593478
Si       1.13809147      -2.07496927       0.54165108
Si       5.28537668      -2.04006883       5.92776771
Si       4.61894902       3.66564337       2.58452591
Si      -0.29609787       2.07134759       4.66438482
Si      -1.52197657       2.18920344       2.23825358
Si      -0.88306952       0.11306511       7.16224649
22
Lattice="12.846004201754576 1.0728412796056024 -1.600780695561581 -0.6572541925196246 9.620465340873578 -2.250754534793457 -8.597220839429557 -4.869818741345781 10.090307239742708" Properties=species:S:1:pos:R:3 unique_starting_index=18 config_type=initial n_minim_iter=17 stress="1.0084225255124597e-05 -2.2905809748554764e-05 -1.3477258336330126e-05 -2.2905809748554764e-05 -2.8258845936887586e-05 1.728959459452037e-05 -1.3477258336330126e-05 1.728959459452037e-05 -2.108743374988812e-06" pbc="T T T"
Si       4.24634825       7.79008739      -0.26168857
Si       0.62262080       0.27252459       6.49132109
Si      -5.89496128      -2.82923233       8.36271573
Si       2.31203523      -0.97465983       8.15764610
Si     -11.20979060      -0.79552012      10.65375759
Si       8.72103530       4.98027049      -0.36029133
Si       5.65477881      -0.13868659       1.80108625
Si      -0.02674651       1.52076515       7.36395021
Si       0.78588530      -1.13589829       8.84552511
Si      -1.15651231       0.66617149       4.46478710
Si       4.61406295       0.93026608       2.89416724
Si      -2.16751299       3.42870738       3.12743141
Si      -7.19086487      -2.10538917       5.94956572
Si       2.53519954       8.47982427      -0.19619691
Si       9.82515787       3.09122384       1.32282597
Si       6.80190733       6.78172364      -4.74584154
Si       1.13876596      -2.07572869       0.54184528
Si       5.28571586      -2.03995493       5.92819629
Si       4.61797326       3.66646252       2.58537727
Si      -0.29611750       2.07143752       4.66417735
Si      -1.52254499       2.18943693       2.23801767
Si      -0.88338927       0.11250278       7.16162742
22
Lattice="12.843309419838926 1.0708924347061368 -1.6000379811470284 -0.65873622881581 9.621597760551555 -2.250217139511593 -8.594343869440857 -4.8685824257633605 10.089140457213713" Properties=species:S:1:pos:R:3 unique_starting_index=18 config_type=initial n_minim_iter=18 stress="-1.704989663692356e-05 -1.9162959722124106e-05 4.61465764806027e-06 -1.9162959722124106e-05 1.8928783212024614e-06 8.830211382027977e-06 4.61465764806027e-06 8.830211382027977e-06 -1.5529973878009625e-05" pbc="T T T"
Si       4.24599273       7.79028946      -0.26083180
Si       0.62245572       0.27173756       6.49034737
Si      -5.89157317      -2.82613776       8.36250388
Si       2.31139963      -0.97455635       8.15628518
Si     -11.20758633      -0.79393907      10.65220745
Si       8.71756748       4.97844042      -0.36069462
Si       5.65348529      -0.13857560       1.80162151
Si      -0.02734412       1.51986530       7.36279489
Si       0.78548977      -1.13657315       8.84446443
Si      -1.15633315       0.66597519       4.46379199
Si       4.61405793       0.93093035       2.89538700
Si      -2.16741223       3.42929583       3.12710704
Si      -7.18792559      -2.10194778       5.94997630
Si       2.53511458       8.48139337      -0.19509387
Si       9.82170074       3.09042910       1.32305078
Si       6.79898570       6.78005853      -4.74516270