20
Lattice="10.173710191640334 -1.0664898597187742e-12 -8.630988511172497e-15 5.08685509582109 8.810691476700645 -6.2292782219735056e-15 5.086855095820483 2.936897158899863 8.665743667694002" Properties=species:S:1:pos:R:3 unique_starting_index=8 config_type=initial n_minim_iter=1 energy=-3322.2539519764077 free_energy=-3322.2539519764077 pbc="T T T"
Si      12.65034519       5.54169297       3.59480738
Si       9.22300090       8.18467381       3.59480738
Si       8.64778450       3.89501617       3.59480738
Si       7.75539964       6.11727745       6.98557979
Si      11.17200290       3.65773438       6.98557979
Si      11.59372805       7.84637113       6.98557979
Si      10.88131077       2.79671393       8.52424824
Si      12.48473970       8.02513458       8.52424824
Si       7.15508012       6.79953444       8.52424824
Si       5.95114223       7.37755938      -0.51184375
Si      10.98269543       1.46506066      -0.51184375
Si      13.58729292       8.77876292      -0.51184375
Si      13.13293376       8.83152838       7.03699168
Si      16.30633577       6.95769007       7.03699168
Si      16.34242634      10.64285598       7.03699168
Si      10.38106013       0.95670956       0.97491640
Si      14.32835554       8.51190701       0.97491640
Si       5.81171491       8.15276639       0.97491640
Si      15.26056529       8.81069148      -0.68584312
Si      15.26056529       8.81069148       5.58525318
20
Lattice="10.173898368210574 -1.0670842540992876e-12 -8.667504776521854e-15 5.086949184106211 8.810854442390875 -6.267062911056866e-15 5.086949184105604 2.9369514807966075 8.669031574765732" Properties=species:S:1:pos:R:3 unique_starting_index=8 config_type=initial n_minim_iter=2 stress="0.0008934485558600092 -2.4796946611934355e-15 3.6522776626165136e-16 -2.4796946611934355e-15 0.0008934485558612001 7.64849376262305e-17 3.6522776626165136e-16 7.64849376262305e-17 0.0005543957493162495" pbc="T T T"
Si      12.65058933       5.54187167       3.59619909
Si       9.22310043       8.18479589       3.59619909
Si       8.64800536       3.89504132       3.59619909
Si       7.75550839       6.11741352       6.98824758
Si      11.17220704       3.65776052       6.98824758
Si      11.59397969       7.84653485       6.98824758
Si      10.88149651       2.79677084       8.52748730
Si      12.48497389       8.02526699       8.52748730
Si       7.15522471       6.79967106       8.52748730
Si       5.95120345       7.37774777      -0.51211199
Si      10.98287803       1.46501949      -0.51211199
Si      13.58761364       8.77894164      -0.51211199
Si      13.13313810       8.83166043       7.03970318
Si      16.30668377       6.95780101       7.03970318
Si      16.34272079      10.64310189       7.03970318
Si      10.38121364       0.95674511       0.97526581
Si      14.32862435       8.51202218       0.97526581
Si       5.81185713       8.15294159       0.97526581
Si      15.26084756       8.81085444      -0.68612288
Si      15.26084756       8.81085444       5.58740078
20
Lattice="10.1721999662396 -1.0683606981246918e-12 -8.86604002293103e-15 5.086099983120726 8.809383583138167 -6.064512372821846e-15 5.086099983120119 2.93646119437904 8.670638880257853" Properties=species:S:1:pos:R:3 unique_starting_index=8 config_type=initial n_minim_iter=3 stress="-0.001182476879039536 -1.3427852340032188e-15 -8.148567023469714e-17 -1.3427852340032188e-15 -0.001182476879047069 1.57819061342836e-15 -8.148567023469714e-17 1.57819061342836e-15 0.0006015527989829213" pbc="T T T"
Si      12.64849344       5.54107426       3.59691257
Si       9.22144215       8.18337950       3.59691257
Si       8.64666432       3.89431341       3.59691257
Si       7.75415263       6.11642866       6.98957797
Si      11.17034102       3.65707882       6.98957797
Si      11.59210626       7.84525968       6.98957797
Si      10.87966032       2.79631126       8.52906441
Si      12.48289319       8.02390659       8.52906441
Si       7.15404640       6.79854932       8.52906441
Si       5.95012663       7.37662173      -0.51227483
Si      10.98099481       1.46464995      -0.51227483
Si      13.58547847       8.77749548      -0.51227483
Si      13.13087709       8.83013432       7.04108528
Si      16.30404072       6.95660597       7.04108528
Si      16.33998205      10.64141046       7.04108528
Si      10.37943030       0.95662144       0.97534871
Si      14.32622632       8.51053960       0.97534871
Si       5.81094329       8.15160613       0.97534871
Si      15.25829995       8.80938358      -0.68626694
Si      15.25829995       8.80938358       5.58848792
20
Lattice="10.173509720419718 -1.0785565352456598e-12 -8.87835488672852e-15 5.086754860210798 8.81051786353086 -6.0430452168999316e-15 5.086754860210183 2.936839287843268 8.674664608103644" Properties=species:S:1:pos:R:3 unique_starting_index=8 config_type=initial n_minim_iter=4 stress="-2.5325363953421873e-05 -7.72568042753225e-15 6.371413568541512e-17 -7.72568042753225e-15 -2.5325363946191197e-05 -3.797770054405529e-16 6.371413568541512e-17 -3.797770054405529e-16 -9.658981350046632e-07" pbc="T T T"
Si      12.65028640       5.54306645       3.59905355
Si       9.22143989       8.18393616       3.59905355
Si       8.64880288       3.89403312       3.59905355
Si       7.75459400       6.11759266       6.99317669
Si      11.17173179       3.65687907       6.99317669
Si      11.59420338       7.84656400       6.99317669
Si      10.88086244       2.79674097       8.53294543
Si      12.48453950       8.02473280       8.53294543
Si       7.15512724       6.79956196       8.53294543
Si       5.95017066       7.37854401      -0.51294106
Si      10.98192756       1.46372695      -0.51294106
Si      13.58843095       8.77876478      -0.51294106
Si      13.13193409       8.83074195       7.04513581
Si      16.30691526       6.95721754       7.04513581
Si      16.34194440      10.64359410       7.04513581
Si      10.38039338       0.95734581       0.97458980
Si      14.32773697       8.51101147       0.97458980
Si       5.81239882       8.15267846       0.97458980
Si      15.26026458       8.81051786      -0.68676492
Si      15.26026458       8.81051786       5.59160179
20
Lattice="10.177518666658665 -1.1163424407125509e-12 -8.888172568029758e-15 5.088759333330304 8.813989712816173 -6.0422564837794124e-15 5.0887593333296675 2.9379965709383615 8.681023952012815" Properties=species:S:1:pos:R:3 unique_starting_index=8 config_type=initial n_minim_iter=5 stress="0.00017175729369121718 -8.034478007652967e-15 -2.3778736849864524e-16 -8.034478007652967e-15 0.000171757293694632 -5.25239456922026e-16 -2.3778736849864524e-16 -5.25239456922026e-16 -0.00012496897367274997" pbc="T T T"
Si      12.65591442       5.55079030       3.60374251
Si       9.21995471       8.18494825       3.60374251
Si       8.65668687       3.89224088       3.60374251
Si       7.75570169       6.12099760       6.99996385
Si      11.17624708       3.65613588       6.99996385
Si      11.60060724       7.85084595       6.99996385
Si      10.88506272       2.79824330       8.53884243
Si      12.48915620       8.02761919       8.53884243
Si       7.15833709       6.80211694       8.53884243
Si       5.95233254       7.38100847      -0.51585511
Si      10.98673023       1.46436695      -0.51585511
Si      13.59349324       8.78260401      -0.51585511
Si      13.13480540       8.83255861       7.05371577
Si      16.31593317       6.95879584       7.05371577
Si      16.34809544      10.65061469       7.05371577
Si      10.38216298       0.95726273       0.97082261
Si      14.33494201       8.51258552       0.97082261
Si       5.81545103       8.15813118       0.97082261
Si      15.26627800       8.81398971      -0.68890368
Si      15.26627800       8.81398971       5.59809187
20
Lattice="10.174208115568053 -1.2010599123548981e-12 -8.856051474071114e-15 5.087104057785071 8.811122691471134 -6.0582122886964e-15 5.087104057784386 2.937040897156652 8.714740665696903" Properties=species:S:1:pos:R:3 unique_starting_index=8 config_type=initial n_minim_iter=6 stress="-0.0002669750122361106 -8.132386040040305e-15 9.917352641849727e-16 -8.132386040040305e-15 -0.0002669750122279819 -2.3039070044839526e-15 9.917352641849727e-16 -2.3039070044839526e-15 0.0012013696368889772" pbc="T T T"
Si      12.65310089       5.56502794       3.62356680
Si       9.20241022       8.17539284       3.62356680
Si       8.66711324       3.88182461       3.62356680
Si       7.75390891       6.11828232       7.02980031
Si      11.17287386       3.65594093       7.02980031
Si      11.59584158       7.84802213       7.02980031
Si      10.88174829       2.79959564       8.57529413
Si      12.48302115       8.02407263       8.57529413
Si       7.15785492       6.79857711       8.57529413
Si       5.95163324       7.37737202      -0.52288776
Si      10.98360804       1.46557957      -0.52288776
Si      13.58738308       8.77929380      -0.52288776
Si      13.13063302       8.82915673       7.08763845
Si      16.31103382       6.95688340       7.08763845
Si      16.34226969      10.64732795       7.08763845
Si      10.37462409       0.95957757       0.96111620
Si      14.33008564       8.50489923       0.96111620
Si       5.81791462       8.15776858       0.96111620
Si      15.26131218       8.81112269      -0.69845114
Si      15.26131218       8.81112269       5.62735484
20
Lattice="10.178521627540382 -1.2508366020591086e-12 -8.818968070939732e-15 5.089260813771281 8.814858302418672 -6.001540133365882e-15 5.089260813770566 2.9382861008058163 8.723374670956012" Properties=species:S:1:pos:R:3 unique_starting_index=8 config_type=initial n_minim_iter=7 stress="0.00021215741060850074 -3.551475166586099e-15 3.408753518111257e-16 -3.551475166586099e-15 0.00021215741061678017 5.886281902154659e-17 3.408753518111257e-16 5.886281902154659e-17 0.0014152719544439666" pbc="T T T"
Si      12.65920821       5.57804744       3.63095955
Si       9.19670837       8.17417218       3.63095955
Si       8.67964831       3.87749699       3.63095955
Si       7.75892424       6.12055343       7.03832183
Si      11.17702638       3.65914878       7.03832183
Si      11.59961427       7.85001439       7.03832183
Si      10.88616508       2.80241809       8.58586561
Si      12.48699547       8.02648646       8.58586561
Si       7.16240435       6.80081206       8.58586561
Si       5.95368773       7.38152783      -0.52755631
Si      10.98760877       1.46528090      -0.52755631
Si      13.59426839       8.78290787      -0.52755631
Si      13.13793422       8.83252721       7.09847912
Si      16.31740484       6.96152118       7.09847912
Si      16.34800828      10.65052652       7.09847912
Si      10.37571337       0.95877384       0.95465503
Si      14.33886407       8.50624444       0.95465503
Si       5.82098745       8.16469833       0.95465503
Si      15.26778244       8.81485830      -0.70353556
Si      15.26778244       8.81485830       5.63825239
20
Lattice="10.179860603902393 -1.2979913082454217e-12 -8.799954600467889e-15 5.089930301952326 8.81601788996322 -6.0397625753309134e-15 5.0899303019515845 2.938672629987316 8.712626570736866" Properties=species:S:1:pos:R:3 unique_starting_index=8 config_type=initial n_minim_iter=8 stress="0.0002857287794500835 -7.401426546684046e-15 1.7653544713609194e-16 -7.401426546684046e-15 0.00028572877945879575 1.0107437035907122e-16 1.7653544713609194e-16 1.0107437035907122e-16 0.0007520710643325103" pbc="T T T"
Si      12.66142769       5.59031609       3.63029279
Si       9.18765162       8.16995998       3.63029279
Si       8.69050251       3.87175971       3.63029279
Si       7.76174029       6.12168224       7.03160224
Si      11.17731874       3.66102315       7.03160224
Si      11.60052279       7.84933040       7.03160224
Si      10.88789180       2.80469472       8.57640522
Si      12.48683843       8.02684353       8.57640522
Si       7.16485159       6.80049753       8.57640522
Si       5.95429169       7.38313376      -0.53386454
Si      10.98859397       1.46500098      -0.53386454
Si      13.59669616       8.78390104      -0.53386454
Si      13.14229219       8.83264228       7.09350529
Si      16.31914312       6.96523776       7.09350529
Si      16.34793742      10.65017363       7.09350529
Si      10.37465872       0.96020463       0.94969523
Si      14.34083025       8.50461569       0.94969523
Si       5.82409285       8.16721546       0.94969523
Si      15.26979091       8.81601789      -0.70865091
Si      15.26979091       8.81601789       5.63756358
20
Lattice="10.178663159458038 -1.32907477811282e-12 -8.812402988494382e-15 5.0893315797301755 8.814980872654774 -5.98306844513797e-15 5.089331579729417 2.9383269575511566 8.709628423123398" Properties=species:S:1:pos:R:3 unique_starting_index=8 config_type=initial n_minim_iter=9 stress="0.00014668906198592047 -5.6874124249675465e-15 -2.357138586994366e-15 -5.6874124249675465e-15 0.00014668906199434459 -7.192947147482984e-16 -2.357138586994366e-15 -7.192947147482984e-16 -0.00012986639523929062" pbc="T T T"
Si      12.66015358       5.60071131       3.63111623
Si       9.17689126       8.16365896       3.63111623
Si       8.69894465       3.86559148       3.63111623
Si       7.76028394       6.12423491       7.02899760
Si      11.17344134       3.65848557       7.02899760
Si      11.60226421       7.84724126       7.02899760
Si      10.88801879       2.80651265       8.57529861
Si      12.48280568       8.02604455       8.57529861
Si       7.16516502       6.79740456       8.57529861
Si       5.95417388       7.38269300      -0.53505028
Si      10.98663970       1.46511933      -0.53505028
Si      13.59517591       8.78214941      -0.53505028
Si      13.14363632       8.82786123       7.09083100
Si      16.31901924       6.96879234       7.09083100
Si      16.34132867      10.64828906       7.09083100
Si      10.37445560       0.95948028       0.94805077
Si      14.33916423       8.50480196       0.94805077
Si       5.82236966       8.16567951       0.94805077
Si      15.26799474       8.81498087      -0.71691690
Si      15.26799474       8.81498087       5.64169758
20
Lattice="10.178538439345157 -1.3570808381499828e-12 -8.837752066325252e-15 5.08926921967376 8.814872861868642 -5.9766150470082046e-15 5.089269219672985 2.93829095395577 8.707752883982419" Properties=species:S:1:pos:R:3 unique_starting_index=8 config_type=initial n_minim_iter=10 stress="-7.974589185500565e-05 -3.183384131791646e-15 -2.1936969864076378e-15 -3.183384131791646e-15 -7.974589185614248e-05 8.536236285194669e-16 -2.1936969864076378e-15 8.536236285194669e-16 -0.0002799003898174279" pbc="T T T"
Si      12.66056621       5.61008236       3.63154465
Si       9.16831994       8.15933078       3.63154465
Si       8.70672918       3.86033258       3.63154465
Si       7.75972917       6.12550459       7.02564792
Si      11.17236972       3.65737029       7.02564792
Si      11.60351644       7.84687085       7.02564792
Si      10.88901467       2.80660147       8.57563510
Si      12.48198137       8.02686259       8.57563510
Si       7.16461928       6.79628166       8.57563510
Si       5.95347298       7.38196185      -0.53685982
Si      10.98737390       1.46487791      -0.53685982
Si      13.59476845       8.78290596      -0.53685982
Si      13.14436823       8.82556528       7.08966653
Si      16.32026747       6.97057416       7.08966653
Si      16.33878728      10.64847914       7.08966653
Si      10.37618212       0.95906524       0.94648067
Si      14.33841096       8.50650469       0.94648067
Si       5.82102225       8.16417580       0.94648067
Si      15.26780766       8.81487286      -0.71682329
Si      15.26780766       8.81487286       5.64465598
20
Lattice="10.179230596498602 -1.397355424078015e-12 -8.870417432718487e-15 5.089615298250516 8.815472287546918 -5.972302052127861e-15 5.0896152982497185 2.9384907625151806 8.712528297127493" Properties=species:S:1:pos:R:3 unique_starting_index=8 config_type=initial n_minim_iter=11 stress="-0.00015406117286937952 -2.8174794437087864e-15 -1.963919074949261e-15 -2.8174794437087864e-15 -0.00015406117285930054 4.214787658257186e-15 -1.963919074949261e-15 4.214787658257186e-15 1.7372581244100423e-05" pbc="T T T"
Si      12.66329642       5.62509118       3.63387856
Si       9.15534113       8.15419081       3.63387856
Si       8.71905425       3.85166259       3.63387856
Si       7.75938883       6.12547464       7.02895638
Si      11.17395014       3.65709052       7.02895638
Si      11.60435283       7.84837942       7.02895638
Si      10.89078216       2.80750121       8.58032703
Si      12.48170275       8.02794341       8.58032703
Si       7.16520689       6.79549996       8.58032703
Si       5.95296612       7.38198157      -0.53832891
Si      10.98899457       1.46442910      -0.53832891
Si      13.59573111       8.78453391      -0.53832891
Si      13.14544776       8.82557388       7.09401482
Si      16.32179673       6.97150477       7.09401482
Si      16.33929320      10.64933822       7.09401482
Si      10.38073382       0.95820203       0.94585391
Si      14.33826699       8.51087818       0.94585391
Si       5.81869099       8.16186437       0.94585391
Si      15.26884590       8.81547229      -0.71521209
Si      15.26884590       8.81547229       5.65196744
20
Lattice="10.180379835561721 -1.3973853964488588e-12 -8.906762824585108e-15 5.0901899177820775 8.816467557770597 -5.9904996535543365e-15 5.090189917781279 2.938822519256407 8.711305610486553" Properties=species:S:1:pos:R:3 unique_starting_index=8 config_type=initial n_minim_iter=12 stress="2.5366265758853384e-05 1.5446401639063762e-17 -2.105854782160124e-15 1.5446401639063762e-17 2.536626576924049e-05 7.027965890990135e-15 -2.105854782160124e-15 7.027965890990135e-15 -9.971421741981355e-05" pbc="T T T"
Si      12.66584469       5.62884695       3.63271327
Si       9.15311288       8.15451978       3.63271327
Si       8.72218195       3.84956838       3.63271327
Si       7.76064111       6.12324456       7.02729542
Si      11.17755378       3.65929007       7.02729542
Si      11.60294463       7.85040049       7.02729542
Si      10.89017953       2.80744227       8.57698583
Si      12.48435358       8.02745099       8.57698583
Si       7.16660640       6.79804186       8.57698583
Si       5.95291529       7.38269074      -0.53641211
Si      10.99070430       1.46403050      -0.53641211
Si      13.59751992       8.78621388      -0.53641211
Si      13.14478120       8.82866714       7.09237330
Si      16.32289889       6.96938087       7.09237330
Si      16.34402918      10.65135467       7.09237330
Si      10.38300344       0.95787498       0.94807464
Si      14.33971389       8.51300726       0.94807464
Si       5.81842218       8.16205288       0.94807464
Si      15.27056976       8.81646756      -0.71388056
Si      15.27056976       8.81646756       5.64969764
20
Lattice="10.180645448956128 -1.3968248932663341e-12 -8.88083695414621e-15 5.090322724479281 8.816697585717739 -6.005021618769402e-15 5.090322724478483 2.9388991952387875 8.711747349582048" Properties=species:S:1:pos:R:3 unique_starting_index=8 config_type=initial n_minim_iter=13 stress="4.024116644495171e-05 -5.718528055700396e-16 -2.7801989271627315e-15 -5.718528055700396e-16 4.0241166458136435e-05 6.122423711751848e-15 -2.7801989271627315e-15 6.122423711751848e-15 -3.332568260672016e-05" pbc="T T T"
Si      12.66630249       5.62882578       3.63328059
Si       9.15343354       8.15492684       3.63328059
Si       8.72220033       3.84964255       3.63328059
Si       7.76076400       6.12272473       7.02803854
Si      11.17847375       3.65965641       7.02803854
Si      11.60269861       7.85101403       7.02803854
Si      10.89052701       2.80807420       8.57681963
Si      12.48416381       8.02743595       8.57681963
Si       7.16724554       6.79788503       8.57681963
Si       5.95296478       7.38286118      -0.53597813
Si      10.99106318       1.46398813      -0.53597813
Si      13.59790840       8.78654586      -0.53597813
Si      13.14477417       8.82906857       7.09171731
Si      16.32335160       6.96917407       7.09171731
Si      16.34477877      10.65185012       7.09171731
Si      10.38266473       0.95805151       0.94840439
Si      14.34026160       8.51262566       0.94840439
Si       5.81901003       8.16271801       0.94840439
Si      15.27096818       8.81669759      -0.71310828
Si      15.27096818       8.81669759       5.64948767
20
Lattice="10.180698332981303 -1.4012638420775244e-12 -8.854367517213738e-15 5.09034916649187 8.816743384626992 -5.976173505802965e-15 5.090349166491069 2.9389144615418705 8.712216514537138" Properties=species:S:1:pos:R:3 unique_starting_index=8 config_type=initial n_minim_iter=14 stress="1.466483407190669e-05 -1.9277791472055834e-15 -1.6105996744719559e-15 -1.9277791472055834e-15 1.4664834084490888e-05 7.830398925794812e-15 -1.6105996744719559e-15 7.830398925794812e-15 1.0472963779319018e-05" pbc="T T T"
Si      12.66650481       5.62928186       3.63431163
Si       9.15304317       8.15487401       3.63431163
Si       8.72254703       3.84933090       3.63431163
Si       7.76116122       6.12210754       7.02829339
Si      11.17891541       3.66030901       7.02829339
Si      11.60201838       7.85107022       7.02829339
Si      10.89081459       2.80824934       8.57681795
Si      12.48397411       8.02759742       8.57681795
Si       7.16730632       6.79764000       8.57681795
Si       5.95324576       7.38307965      -0.53568322
Si      10.99083926       1.46412224      -0.53568322
Si      13.59800999       8.78628489      -0.53568322
Si      13.14422407       8.82867278       7.09124327
Si      16.32412806       6.96889556       7.09124327
Si      16.34479038      10.65266181       7.09124327
Si      10.38209124       0.95821285       0.94863970
Si      14.34051439       8.51204833       0.94863970
Si       5.81948939       8.16322559       0.94863970
Si      15.27104750       8.81674339      -0.71280643
Si      15.27104750       8.81674339       5.64975110
20
Lattice="10.18073110636945 -1.4057491076413956e-12 -8.825752859694548e-15 5.090365553185947 8.816771767213696 -5.957305765919073e-15 5.090365553185145 2.938923922404104 8.711743986736746" Properties=species:S:1:pos:R:3 unique_starting_index=8 config_type=initial n_minim_iter=15 stress="-1.5037331539308482e-05 -1.0884972815950398e-15 -2.3751366942562028e-15 -1.0884972815950398e-15 -1.5037331532246001e-05 7.33498982762132e-15 -2.3751366942562028e-15 7.33498982762132e-15 -2.3643592204681578e-05" pbc="T T T"
Si      12.66674504       5.62998247       3.63489282
Si       9.15238185       8.15473175       3.63489282
Si       8.72306643       3.84882931       3.63489282
Si       7.76152427       6.12159401       7.02782419
Si      11.17924416       3.66088018       7.02782419
Si      11.60142490       7.85106934       7.02782419
Si      10.89084550       2.80818979       8.57622947
Si      12.48407578       8.02765397       8.57622947
Si       7.16727206       6.79769978       8.57622947
Si       5.95306045       7.38295774      -0.53556604
Si      10.99110304       1.46402271      -0.53556604
Si      13.59802984       8.78656309      -0.53556604
Si      13.14370126       8.82819581       7.08998697
Si      16.32490085       6.96868129       7.08998697
Si      16.34468788      10.65343821       7.08998697
Si      10.38193556       0.95827699       0.94870239
Si      14.34060223       8.51188144       0.94870239
Si       5.81965554       8.16338511       0.94870239
Si      15.27109666       8.81677177      -0.71273654
Si      15.27109666       8.81677177       5.64972069
20
Lattice="10.18063532349182 -1.4136098983293733e-12 -8.853553545503202e-15 5.090317661747138 8.81668881680842 -5.930365083089922e-15 5.090317661746335 2.9388962722690106 8.711941846704978" Properties=species:S:1:pos:R:3 unique_starting_index=8 config_type=initial n_minim_iter=16 stress="-1.4285338050567666e-05 4.785190519683302e-15 -3.0098339312113463e-15 4.785190519683302e-15 -1.4285338045174851e-05 9.010835938964747e-15 -3.0098339312113463e-15 9.010835938964747e-15 9.885487114389506e-05" pbc="T T T"
Si      12.66711737       5.63044556       3.63609715
Si       9.15160307       8.15482265       3.63609715
Si       8.72318553       3.84810942       3.63609715
Si       7.76256682       6.12072542       7.02849247
Si      11.17928354       3.66221735       7.02849247
Si      11.60005562       7.85043486       7.02849247
Si      10.89071121       2.80756483       8.57629324
Si      12.48449258       8.02785016       8.57629324
Si       7.16670219       6.79796265       8.57629324
Si       5.95291335       7.38281726      -0.53565597
Si      10.99110668       1.46396556      -0.53565597
Si      13.59788595       8.78659482      -0.53565597
Si      13.14225192       8.82707772       7.08847822
Si      16.32630647       6.96798516       7.08847822
Si      16.34430058      10.65500357       7.08847822
Si      10.38223417       0.95817038       0.94870622
Si      14.34035367       8.51219335       0.94870622
Si       5.81931813       8.16301390       0.94870622
Si      15.27095299       8.81668882      -0.71278243
Si      15.27095299       8.81668882       5.65067618
20
Lattice="10.180578323199287 -1.4162873965064622e-12 -8.844372186756387e-15 5.0902891616008725 8.816639453107063 -5.912014005046077e-15 5.09028916160007 2.9388798177018893 8.712030164009168" Properties=species:S:1:pos:R:3 unique_starting_index=8 config_type=initial n_minim_iter=17 stress="-7.854124704340036e-08 4.0564930681069484e-15 -3.929184403939933e-15 4.0564930681069484e-15 -7.854124408121042e-08 7.494773556046193e-15 -3.929184403939933e-15 7.494773556046193e-15 -2.83683641598577e-05" pbc="T T T"
Si      12.66738643       5.63043549       3.63613284
Si       9.15136327       8.15506070       3.63613284
Si       8.72298528       3.84778271       3.63613284
Si       7.76350110       6.12061025       7.02972592
Si      11.17880214       3.66308405       7.02972592
Si      11.59943174       7.84958461       7.02972592
Si      10.89067895       2.80687243       8.57634015
Si      12.48499435       8.02816842       8.57634015
Si       7.16606168       6.79823806       8.57634015
Si       5.95240244       7.38250366      -0.53589604
Si      10.99151972       1.46367990      -0.53589604
Si      13.59781282       8.78709535      -0.53589604
Si      13.14154325       8.82673030       7.08772662
Si      16.32679068       6.96754515       7.08772662
Si      16.34426853      10.65564292       7.08772662
Si      10.38283687       0.95800739       0.94850087
Si      14.34007949       8.51279680       0.94850087
Si       5.81881863       8.16247473       0.94850087
Si      15.27086749       8.81663945      -0.71319218
Si      15.27086749       8.81663945       5.65159223
20
Lattice="10.180637232635837 -1.4172344550674758e-12 -8.873190984132647e-15 5.09031861631915 8.816690470175637 -5.898964195284617e-15 5.090318616318345 2.9388968233914134 8.711758034864626" Properties=species:S:1:pos:R:3 unique_starting_index=8 config_type=initial n_minim_iter=18 stress="1.8419654831733094e-06 7.560487464744891e-15 -2.5355156020596896e-15 7.560487464744891e-15 1.8419654958151125e-06 1.0606703681746478e-14 -2.5355156020596896e-15 1.0606703681746478e-14 -2.3465993707771152e-05" pbc="T T T"
Si      12.66744016       5.63035297       3.63579378
Si       9.15152568       8.15514849       3.63579378
Si       8.72294586       3.84787948       3.63579378
Si       7.76368487       6.12068022       7.02981403
Si      11.17876748       3.66320822       7.02981403
Si      11.59945936       7.84949251       7.02981403
Si      10.89065393       2.80674292       8.57621285
Si      12.48523684       8.02821150       8.57621285
Si       7.16602094       6.79842652       8.57621285
Si       5.95257625       7.38263079      -0.53595034
Si      10.99144053       1.46376685      -0.53595034
Si      13.59789493       8.78698330      -0.53595034
Si      13.14142228       8.82680768       7.08727211
Si      16.32696088       6.96740169       7.08727211
Si      16.34448440      10.65586204       7.08727211
Si      10.38290892       0.95799735       0.94846843
Si      14.34016997       8.51286422       0.94846843
Si       5.81883281       8.16251938       0.94846843
Si      15.27095585       8.81669047      -0.71310130
Si      15.27095585       8.81669047       5.65159960
