22
Lattice="11.525542277594118 2.202742412283568 -0.5402191866871973 0.3144369769528069 11.741924537937226 -1.1902885080848624 -7.383277098201985 -5.647499029436743 9.312457974976686" Properties=species:S:1:pos:R:3 unique_starting_index=18 config_type=initial n_minim_iter=1 energy=-3710.0882307306993 free_energy=-3710.0882307306993 pbc="T T T"
Si       4.83407641      11.06036357       0.90019396
Si       1.79440635       1.71186783       6.96928532
Si      -5.68001164      -4.93453376       7.86634349
Si       2.13991220       0.22970490       7.86639583
Si      -8.67399684      -1.23886282       9.90216877
Si       8.81758918       6.91693241       0.87448619
Si       5.72591065       0.71289253       1.57440859
Si       0.46983776       2.04103184       7.89803288
Si       1.63934543      -0.23978319       9.54420483
Si      -0.24871371       2.03824856       5.21144289
Si       5.08363012       1.68922920       3.05396434
Si      -1.59709756       4.49710815       3.83989690
Si      -5.80893280      -2.73851875       4.97508545
Si       2.93469365      10.69396964       0.83373593
Si       9.27088072       5.17955058       2.97255121
Si       6.09518632       8.65478651      -3.25050348
Si      -1.12306383      -2.06629829       2.02281989
Si       5.68034141      -1.35795369       6.09498493
Si       4.47728268       4.21759383       2.92174279
Si       0.22492572       3.56474340       5.60239106
Si      -0.76118736       3.37496644       2.94647442
Si       0.49383627       0.52863041       7.24235881
22
Lattice="11.518863160406127 2.1951147363862824 -0.561060264288386 0.30391981166628834 11.771931201157162 -1.1685607022182447 -7.394138459312596 -5.6384722762152775 9.305777593238785" Properties=species:S:1:pos:R:3 unique_starting_index=18 config_type=initial n_minim_iter=2 stress="0.00975954284528707 0.00886124169789331 -0.008802416055746103 0.00886124169789331 0.00673632227973037 0.014872770151627548 -0.008802416055746103 0.014872770151627548 -0.011982660966216717" pbc="T T T"
Si       4.81736117      11.08736332       0.90800191
Si       1.77633154       1.72670134       6.95873411
Si      -5.68920166      -4.92797129       7.85914807
Si       2.12137660       0.24175412       7.85148040
Si      -8.69207753      -1.21490317       9.90530240
Si       8.80462667       6.92705056       0.86557014
Si       5.71889746       0.71119003       1.56081029
Si       0.44995849       2.06124956       7.88963377
Si       1.61856638      -0.22468512       9.52700002
Si      -0.26225463       2.05189373       5.20791739
Si       5.07256492       1.69355234       3.04140770
Si      -1.61017173       4.51785047       3.84595878
Si      -5.81415213      -2.73102043       4.97605655
Si       2.91991342      10.72183327       0.84502815
Si       9.25340287       5.18913322       2.95763972
Si       6.08925618       8.66645107      -3.24366325
Si      -1.12468231      -2.06709206       2.01874079
Si       5.66568569      -1.35725104       6.07138179
Si       4.46396605       4.22957515       2.91515837
Si       0.20898037       3.58544187       5.60060666
Si      -0.77034630       3.39053685       2.94912670
Si       0.47714665       0.54115417       7.23179855
22
Lattice="11.463264576197725 2.1468820445531556 -0.5752529734546442 0.24802482663873834 11.800930423970104 -1.1933816183744277 -7.34552857012524 -5.6350629000586325 9.337321241976904" Properties=species:S:1:pos:R:3 unique_starting_index=18 config_type=initial n_minim_iter=3 stress="0.0011887065637177492 -0.003222632687484191 0.006424932334836172 -0.003222632687484191 0.02292708230929671 0.0017002481107593122 0.006424932334836172 0.0017002481107593122 0.019588706767950995" pbc="T T T"
Si       4.74438332      11.09007283       0.88506384
Si       1.75528326       1.70807077       6.96623137
Si      -5.64929479      -4.92809560       7.88555834
Si       2.10608701       0.21655876       7.86359651
Si      -8.66659511      -1.19464237       9.93024128
Si       8.73984132       6.89572920       0.84436316
Si       5.69143019       0.68228750       1.55752033
Si       0.43350670       2.05101906       7.89674385
Si       1.60896647      -0.24747808       9.54260684
Si      -0.27511661       2.04456834       5.21214004
Si       5.04188008       1.66710853       3.03880011
Si      -1.62893107       4.52664604       3.84376362
Si      -5.78207582      -2.72033730       4.99350532
Si       2.85818690      10.73233819       0.82358656
Si       9.18713642       5.15345199       2.94730107
Si       6.02507657       8.66472994      -3.26933417
Si      -1.11189667      -2.07022406       2.02650197
Si       5.64480194      -1.39927585       6.07883220
Si       4.42368578       4.21329540       2.90791929
Si       0.18825559       3.58527634       5.60312473
Si      -0.78385058       3.39817106       2.94533204
Si       0.46753641       0.52301265       7.24165791
22
Lattice="11.444511522526438 2.129321682222553 -0.5891318821038702 0.23506494220830343 11.778250306334506 -1.200339822858699 -7.338836015265878 -5.622285477867007 9.331576030226952" Properties=species:S:1:pos:R:3 unique_starting_index=18 config_type=initial n_minim_iter=4 stress="-0.01773897326213112 6.628605680800487e-05 -0.001072664287018634 6.628605680800487e-05 -0.008078853452766833 -0.00013673677432558365 -0.001072664287018634 -0.00013673677432558365 -0.01469617046987552" pbc="T T T"
Si       4.72284899      11.06219828       0.86969754
Si       1.74253768       1.69678432       6.94957607
Si      -5.64411698      -4.91757459       7.88009355
Si       2.09383874       0.20740186       7.84623605
Si      -8.66695517      -1.18895198       9.92110258
Si       8.71889269       6.86901446       0.82639810
Si       5.68035531       0.67269148       1.54730267
Si       0.42211379       2.04081725       7.87798845
Si       1.59766956      -0.25439350       9.52230083
Si      -0.28360518       2.03620291       5.20073171
Si       5.02887971       1.65512623       3.02543847
Si      -1.63635108       4.51534138       3.83390556
Si      -5.77609842      -2.71220821       4.99221130
Si       2.84091055      10.70727634       0.81049516
Si       9.16245943       5.13062682       2.92787885
Si       6.00912129       8.64242666      -3.27627045
Si      -1.11006045      -2.06610660       2.02515575
Si       5.63108977      -1.40802829       6.06097206
Si       4.40866139       4.19764483       2.89359368
Si       0.17809470       3.57479147       5.58921039
Si      -0.78927212       3.39132987       2.93675387
Si       0.45806548       0.51500418       7.22635351
22
Lattice="11.478922173240987 2.117129414873721 -0.6052018086998355 0.22692410406389105 11.767273746177025 -1.209212620620506 -7.368151248009894 -5.616182375710909 9.350878704540884" Properties=species:S:1:pos:R:3 unique_starting_index=18 config_type=initial n_minim_iter=5 stress="0.012094721456483382 -0.0016611297742953278 -0.009421802887310008 -0.0016611297742953278 -0.011200272036443413 -0.007071440073531613 -0.009421802887310008 -0.007071440073531613 0.0002619419746778231" pbc="T T T"
Si       4.72604847      11.04707806       0.85795142
Si       1.73835732       1.68798540       6.95196222
Si      -5.66675117      -4.91259914       7.89560217
Si       2.09084837       0.19983373       7.85061114
Si      -8.70827400      -1.18533657       9.93793438
Si       8.73836665       6.85277671       0.81200718
Si       5.69543238       0.66548469       1.54094897
Si       0.41326076       2.03327238       7.87997811
Si       1.59435833      -0.26104327       9.52676427
Si      -0.29431081       2.03105557       5.20410113
Si       5.03916605       1.64637222       3.01993603
Si      -1.64935219       4.50787368       3.83472225
Si      -5.79775233      -2.70818552       5.00437928
Si       2.84031706      10.69398854       0.80070822
Si       9.17956633       5.11563157       2.91680321
Si       6.02339235       8.62898989      -3.29178107
Si      -1.11398137      -2.06386958       2.02894140
Si       5.64231555      -1.41595438       6.05872814
Si       4.41482719       4.18794740       2.88710031
Si       0.17054356       3.56918101       5.59092589
Si      -0.79697916       3.38909927       2.93635324
Si       0.45038763       0.50849691       7.23080024
22
Lattice="11.47405274227009 2.1106135074168724 -0.5863861628915562 0.21751054035357306 11.775186406708892 -1.1918685565096827 -7.350208364447975 -5.60312009488379 9.327931450314582" Properties=species:S:1:pos:R:3 unique_starting_index=18 config_type=initial n_minim_iter=6 stress="0.0005993154029385267 0.004112181493190291 0.0013353556534378358 0.004112181493190291 0.00030931160088972605 -0.0049528938247533905 0.0013353556534378358 -0.0049528938247533905 -0.00557585092984319" pbc="T T T"
Si       4.71717183      11.05572809       0.88114254
Si       1.74638436       1.69580335       6.95520712
Si      -5.65101410      -4.90162928       7.87619598
Si       2.10135575       0.20885838       7.85331947
Si      -8.69910346      -1.16386706       9.91537966
Si       8.73074600       6.85414434       0.83473258
Si       5.69555980       0.66376447       1.54898407
Si       0.42651548       2.04523447       7.87480597
Si       1.61431672      -0.25013168       9.52148113
Si      -0.29337367       2.04135332       5.20573219
Si       5.04055514       1.64741054       3.02680862
Si      -1.64414645       4.51396539       3.83482604
Si      -5.78785328      -2.70130966       4.98943560
Si       2.83601102      10.70296955       0.81958138
Si       9.17310352       5.11844227       2.93702800
Si       6.01162718       8.62353732      -3.27075196
Si      -1.10912933      -2.06073704       2.02256685
Si       5.64984819      -1.41275242       6.06024053
Si       4.41419344       4.19341470       2.89673498
Si       0.17921125       3.58324669       5.59438339
Si      -0.79535674       3.40115982       2.93741587
Si       0.46013965       0.51671146       7.22884671
22
Lattice="11.461213488118391 2.0770637574621063 -0.5893035410672315 0.1878483148423084 11.755996576953873 -1.1726915983916892 -7.3358445381736175 -5.559608182762996 9.335884576715005" Properties=species:S:1:pos:R:3 unique_starting_index=18 config_type=initial n_minim_iter=7 stress="-0.001651514563436857 -0.007933390126686335 -0.0017828479150197244 -0.007933390126686335 -0.006443579879847921 -0.000735023267601444 -0.0017828479150197244 -0.000735023267601444 0.0008764565596022511" pbc="T T T"
Si       4.68398321      11.03064560       0.90135298
Si       1.73908614       1.69940562       6.96774783
Si      -5.63835519      -4.86575652       7.88192851
Si       2.09567153       0.21672372       7.86740208
Si      -8.69870782      -1.11863397       9.93007476
Si       8.70446629       6.82259708       0.84480103
Si       5.68909619       0.65044762       1.54984621
Si       0.41807436       2.05513628       7.88890511
Si       1.61294963      -0.23741552       9.53438702
Si      -0.30350625       2.05104864       5.21875243
Si       5.03101952       1.63664228       3.03139670
Si      -1.65500432       4.51740397       3.84929865
Si      -5.77964064      -2.67484547       4.99468125
Si       2.80795711      10.68282787       0.83907473
Si       9.15138639       5.09319770       2.94638282
Si       5.98752838       8.58800093      -3.26368995
Si      -1.10376306      -2.05031989       2.02185185
Si       5.64623230      -1.41469801       6.06356946
Si       4.39838600       4.18200287       2.90600907
Si       0.16799040       3.58828681       5.60990898
Si      -0.80753665       3.40525147       2.94838005
Si       0.45503338       0.52663855       7.24125452
22
Lattice="11.457830671106068 2.0860168856303494 -0.6051316555502625 0.19733067721064151 11.766990385391434 -1.1530651182549894 -7.351073013312855 -5.552366653173998 9.360726249980422" Properties=species:S:1:pos:R:3 unique_starting_index=18 config_type=initial n_minim_iter=8 stress="-0.003387356528499852 0.004654344554233653 -0.003813472287988299 0.004654344554233653 -0.0017710141021716225 -0.001813970088745623 -0.003813472287988299 -0.001813970088745623 0.0016888551074656958" pbc="T T T"
Si       4.68267110      11.05113699       0.92320719
Si       1.73516340       1.70887318       6.98254476
Si      -5.64970018      -4.85839594       7.90032951
Si       2.08343765       0.23190307       7.89502238
Si      -8.72001085      -1.08656215       9.95874865
Si       8.69679065       6.82647978       0.84472674
Si       5.68402388       0.65663239       1.54675512
Si       0.41145510       2.07087177       7.90853341
Si       1.60557004      -0.21844599       9.55908075
Si      -0.31735698       2.07034609       5.23964130
Si       5.02351173       1.64422252       3.03222759
Si      -1.65110322       4.52957865       3.87100499
Si      -5.78663200      -2.67652641       5.00951169
Si       2.81840061      10.70116969       0.85962214
Si       9.14287320       5.10813956       2.94883734
Si       5.99558774       8.58921434      -3.26460768
Si      -1.10609004      -2.04492705       2.02212313
Si       5.63155403      -1.40117584       6.06519803
Si       4.39192017       4.19780774       2.91279306
Si       0.16409548       3.60652231       5.63272702
Si      -0.81998386       3.41788501       2.96346571
Si       0.44464798       0.53770392       7.26306886
22
Lattice="11.50109617548312 2.00894282525439 -0.5744962921864648 0.11721112641389389 11.777289751460303 -1.1028558171494924 -7.334267136137089 -5.474174122323621 9.295585735962947" Properties=species:S:1:pos:R:3 unique_starting_index=18 config_type=initial n_minim_iter=9 stress="0.0035474759749202626 -0.0036860499663237335 -0.003845622371075697 -0.0036860499663237335 2.2226955891383815e-05 0.0034642256743140183 -0.003845622371075697 0.0034642256743140183 -0.005223113608832332" pbc="T T T"
Si       4.62640142      11.04332375       0.98180406
Si       1.74921999       1.71554441       6.96344468
Si      -5.62788205      -4.79453607       7.84336767
Si       2.10986036       0.24416765       7.89316104
Si      -8.74982876      -0.95272780       9.89834805
Si       8.68276289       6.76271011       0.88320841
Si       5.71120126       0.62271913       1.55634330
Si       0.43301842       2.08800029       7.87853183
Si       1.64695865      -0.20068456       9.53478318
Si      -0.32566153       2.10298999       5.23138625
Si       5.04160451       1.61710176       3.03334907
Si      -1.67714239       4.56620520       3.87570623
Si      -5.78910023      -2.63059919       4.96880908
Si       2.77275877      10.70542556       0.90806469
Si       9.15465736       5.06096487       2.97610834
Si       5.95817392       8.54625042      -3.20551765
Si      -1.09093059      -2.02369048       2.00058547
Si       5.67823740      -1.41880591       6.04644051
Si       4.38691548       4.18917270       2.92432085
Si       0.15156826       3.63406236       5.63103896
Si      -0.85398914       3.44158812       2.96122985
Si       0.45816259       0.56162701       7.24943257
22
Lattice="11.542826780985196 1.9738293182550688 -0.5108141568112549 0.08392427069885533 11.74725337386438 -1.05626888935785 -7.308337749967014 -5.411050956075902 9.211660967405823" Properties=species:S:1:pos:R:3 unique_starting_index=18 config_type=initial n_minim_iter=10 stress="0.013058945055020685 -0.005765833190379684 6.528363091996787e-05 -0.005765833190379684 0.002232314434264808 0.007278110529558501 6.528363091996787e-05 0.007278110529558501 -0.0032094010874482177" pbc="T T T"
Si       4.61816510      11.01446917       1.05067769
Si       1.79226568       1.72008140       6.93082437
Si      -5.59880146      -4.74032664       7.77253962
Si       2.15984094       0.26003998       7.90006726
Si      -8.74694305      -0.85528277       9.83096686
Si       8.69085961       6.71413628       0.94812168
Si       5.74210072       0.61147036       1.58317624
Si       0.48092041       2.10846649       7.85934173
Si       1.71614144      -0.18323329       9.50976060
Si      -0.30750717       2.12286796       5.22154690
Si       5.07154367       1.60433969       3.04744101
Si      -1.67461893       4.57061097       3.86880182
Si      -5.78449228      -2.60277571       4.91106930
Si       2.77155802      10.68504419       0.96277361
Si       9.18718124       5.03795610       3.03759688
Si       5.95162903       8.50204963      -3.13153263
Si      -1.07696311      -1.99831171       1.97588568
Si       5.73045278      -1.40868698       6.04666254
Si       4.40389299       4.18277248       2.94703251
Si       0.16222754       3.64816093       5.62672610
Si      -0.85758231       3.45314157       2.95462160
Si       0.49499804       0.57361802       7.23247642
22
Lattice="11.517721858546095 1.9681189219554278 -0.5069546742556026 0.08801906183903555 11.694562391345938 -1.0365197156655326 -7.293240129836068 -5.371673374182017 9.224988156549017" Properties=species:S:1:pos:R:3 unique_starting_index=18 config_type=initial n_minim_iter=11 stress="0.007444654069398827 -0.004031146207317591 -0.006491180374240415 -0.004031146207317591 0.0032530757291055223 0.008204647541913341 -0.006491180374240415 0.008204647541913341 0.009022734003590197" pbc="T T T"
Si       4.60633962      10.97298500       1.08664566
Si       1.79178792       1.71419566       6.92042230
Si      -5.58189710      -4.70425106       7.78168927
Si       2.16086598       0.26821101       7.94680377
Si      -8.73286451      -0.79635460       9.86545523
Si       8.64566702       6.67311172       0.97374132
Si       5.73122696       0.61307272       1.59152202
Si       0.49968581       2.10964652       7.87508558
Si       1.73523717      -0.17132360       9.52969607
Si      -0.30834079       2.12188908       5.23757985
Si       5.05837640       1.59784757       3.05205399
Si      -1.67061748       4.55749932       3.88461887
Si      -5.77284740      -2.59520721       4.91109697
Si       2.77754309      10.65027399       0.99350849
Si       9.16666982       5.02616687       3.07001054
Si       5.94608758       8.45951772      -3.11385651
Si      -1.06982796      -1.97210212       1.96995577
Si       5.71158747      -1.38833557       6.05934863
Si       4.38896260       4.17520589       2.95858536
Si       0.15773025       3.65752904       5.64594520
Si      -0.86133899       3.44583494       2.96269136
Si       0.49754295       0.57660601       7.25623675
22
Lattice="11.541323770295458 1.9595940466994166 -0.4735098993745215 0.08078675107191587 11.676376668758694 -1.0197278399996843 -7.283304389631619 -5.349418397117399 9.184632212718755" Properties=species:S:1:pos:R:3 unique_starting_index=18 config_type=initial n_minim_iter=12 stress="0.012127927675646001 -0.005390417947050154 -0.0002043468288940576 -0.005390417947050154 0.010195384560941677 0.013353164910291175 -0.0002043468288940576 0.013353164910291175 0.005652943689870101" pbc="T T T"
Si       4.61365546      10.95645967       1.11576462
Si       1.81433319       1.71235889       6.90239876
Si      -5.56938892      -4.68491240       7.74844928
Si       2.18971287       0.27310862       7.95176763
Si      -8.73241289      -0.76464995       9.83262690
Si       8.65205227       6.65282826       1.00723109
Si       5.74928503       0.61132070       1.60536696
Si       0.52863675       2.11656859       7.86263719
Si       1.77495098      -0.15996442       9.51574268
Si      -0.29812053       2.12806445       5.23141321
Si       5.07561550       1.59477423       3.05948171
Si      -1.66899318       4.56111954       3.87984808
Si      -5.77214069      -2.58836473       4.88117441
Si       2.78409441      10.63885562       1.01637788
Si       9.19412083       5.01666434       3.10156592
Si       5.94901588       8.43810830      -3.07809563
Si      -1.06368022      -1.95943807       1.95804951
Si       5.73738795      -1.38093388       6.06300555
Si       4.40137214       4.17182902       2.96845035
Si       0.17026448       3.66406988       5.63781628
Si      -0.85870753       3.44172520       2.95794538
Si       0.51887044       0.57829141       7.24756814
22
Lattice="11.557376333879715 1.980975935265123 -0.4930500608625961 0.10676878411355167 11.66152327902133 -1.0431102796106106 -7.313994056310058 -5.373699608443107 9.210624158641671" Properties=species:S:1:pos:R:3 unique_starting_index=18 config_type=initial n_minim_iter=13 stress="0.01160938627204255 -0.005973347742579472 -0.010636591998833912 -0.005973347742579472 0.02025570433926288 0.004721946421373751 -0.010636591998833912 0.004721946421373751 0.019572091928944886" pbc="T T T"
Si       4.64038667      10.94395003       1.09765112
Si       1.81115392       1.68118449       6.87506129
Si      -5.58794119      -4.70385863       7.77026165
Si       2.19773648       0.26019504       7.95489729
Si      -8.78150951      -0.77483352       9.87160606
Si       8.64585588       6.65315943       0.99479167
Si       5.75927607       0.61835045       1.59686725
Si       0.54374915       2.10327935       7.85178579
Si       1.78429154      -0.18027665       9.52762897
Si      -0.29836578       2.12275787       5.23117254
Si       5.07643182       1.59607665       3.04582207
Si      -1.67238306       4.55358532       3.86870531
Si      -5.78994979      -2.61804132       4.88712158
Si       2.80703140      10.63625644       1.00115353
Si       9.21487725       5.01370009       3.09543338
Si       5.97638338       8.44054985      -3.08968488
Si      -1.06504175      -1.94535225       1.95603958
Si       5.72277237      -1.37626452       6.06395100
Si       4.40211612       4.16965515       2.95093382
Si       0.16629943       3.65367733       5.61647097
Si      -0.86068942       3.42415316       2.95687977
Si       0.51544459       0.55164066       7.25145603
22
Lattice="11.652346033201283 1.991358385780378 -0.4148137812690814 0.13142643949292793 11.573913981203656 -0.982831149915867 -7.333006114613387 -5.306037325532754 9.138743553438257" Properties=species:S:1:pos:R:3 unique_starting_index=18 config_type=initial n_minim_iter=14 stress="0.02229920047928258 -0.0033382902743738043 0.0035995843482466328 -0.0033382902743738043 0.029305204669927948 0.010867005107005405 0.0035995843482466328 0.010867005107005405 0.03798973812786257" pbc="T T T"
Si       4.71447420      10.87755657       1.18773732
Si       1.87632641       1.68499269       6.86904998
Si      -5.59207180      -4.64453032       7.71312124
Si       2.28128251       0.30368160       7.96408086
Si      -8.82637817      -0.71909435       9.83311230
Si       8.71018707       6.62303461       1.08746852
Si       5.82230646       0.63401032       1.63210623
Si       0.61695435       2.13140641       7.85654486
Si       1.86864242      -0.12578653       9.54717705
Si      -0.26249792       2.12836192       5.23746534
Si       5.13527640       1.61351864       3.07851303
Si      -1.65792696       4.54327454       3.87281918
Si      -5.81447066      -2.60121628       4.82885413
Si       2.85958978      10.58180914       1.08052982
Si       9.32839069       5.00939971       3.18612919
Si       6.03039893       8.38025012      -2.99733957
Si      -1.06042293      -1.90664952       1.93068455
Si       5.79027901      -1.31935004       6.09262131
Si       4.45650477       4.16524364       2.99203337
Si       0.20443645       3.66906849       5.62173547
Si      -0.84801793       3.40909990       2.97468695
Si       0.56843885       0.57735063       7.25895035
22
Lattice="11.707540380615917 1.9879244605000859 -0.36480024696976227 0.12533817584946677 11.569081777602394 -0.9797182596412833 -7.329974429175296 -5.3051333928674484 9.063415026967062" Properties=species:S:1:pos:R:3 unique_starting_index=18 config_type=initial n_minim_iter=15 stress="0.025557141330679656 -0.004596407879038797 0.00653687191853251 -0.004596407879038797 0.04372858557036955 0.00525313252000375 0.00653687191853251 0.00525313252000375 0.042200578357513334" pbc="T T T"
Si       4.74316304      10.86299439       1.20444089
Si       1.92292344       1.65416503       6.82036481
Si      -5.57676860      -4.64590698       7.65489569
Si       2.34892468       0.30111826       7.92853538
Si      -8.86109112      -0.70141164       9.75766143
Si       8.71781993       6.61089219       1.12685138
Si       5.86507855       0.62888523       1.64502212
Si       0.67064268       2.12860560       7.81235792
Si       1.92445829      -0.12358566       9.51643130
Si      -0.24095619       2.11857971       5.21941279
Si       5.16899099       1.61551584       3.07940480
Si      -1.66181842       4.55076858       3.83674120
Si      -5.82099232      -2.61578399       4.76922859
Si       2.87134773      10.58675241       1.09481576
Si       9.39218301       4.99544330       3.22128873
Si       6.06550879       8.37835436      -2.95269016
Si      -1.04912702      -1.88599551       1.90629828
Si       5.83156246      -1.31686883       6.09052629
Si       4.47967090       4.16104966       2.98807169
Si       0.21193629       3.67655963       5.58159234
Si      -0.83883231       3.40215001       2.95404358
Si       0.61283829       0.56631319       7.23407405
22
Lattice="11.754612274071135 2.0305222191293053 -0.3266387056267581 0.1754692118163286 11.527501431983799 -0.9489177679545113 -7.3536274399563935 -5.294812026129844 9.031686090838706" Properties=species:S:1:pos:R:3 unique_starting_index=18 config_type=initial n_minim_iter=16 stress="0.02089445327695601 0.0009115310733994863 0.007216099564595209 0.0009115310733994863 0.03867264386048643 0.002159399438637128 0.007216099564595209 0.002159399438637128 0.04280967268405527" pbc="T T T"
Si       4.81281711      10.83872052       1.24892044
Si       1.95928353       1.65070216       6.81801158
Si      -5.58367508      -4.63781173       7.63400528
Si       2.40319444       0.32972012       7.94548544
Si      -8.90274321      -0.69208975       9.73849766
Si       8.74352069       6.62013341       1.18300251
Si       5.90021132       0.65097183       1.65968841
Si       0.72463156       2.14995615       7.81526765
Si       1.94748973      -0.07916565       9.51961099
Si      -0.20430200       2.11787339       5.23435259
Si       5.19848726       1.64909692       3.09543128
Si      -1.64523450       4.53923180       3.83169964
Si      -5.83551033      -2.63626769       4.73396667
Si       2.92853167      10.57723955       1.14234109
Si       9.46506454       5.02143286       3.27603180
Si       6.12461388       8.37624527      -2.90190264
Si      -1.04706801      -1.85817694       1.88656731
Si       5.84685092      -1.26439505       6.11245513
Si       4.51074394       4.17330860       3.00572271
Si       0.23499239       3.68089915       5.57844149
Si      -0.82007016       3.39695786       2.96005615
Si       0.65709455       0.57189158       7.25459820
22
Lattice="11.781089725858664 2.053184485894192 -0.2967486929835308 0.2042161148579422 11.493905907020963 -0.9147187214208339 -7.3632065409878615 -5.27229008719834 9.00268249773281" Properties=species:S:1:pos:R:3 unique_starting_index=18 config_type=initial n_minim_iter=17 stress="0.008573412910289638 0.0026668578999699743 0.004772043900301946 0.0026668578999699743 0.02997528750904672 0.0019007289204386543 0.004772043900301946 0.0019007289204386543 0.037870668542455944" pbc="T T T"
Si       4.85156173      10.81574731       1.28885551
Si       1.98499679       1.65419941       6.81536084
Si      -5.57926970      -4.62143250       7.61552685
Si       2.44673516       0.35496223       7.96235391
Si      -8.93631549      -0.66788268       9.73409835
Si       8.76052120       6.62549989       1.23320968
Si       5.92145676       0.66179347       1.67146723
Si       0.75270911       2.16492688       7.81948799
Si       1.95524274      -0.04345035       9.52797639
Si      -0.18633929       2.12672814       5.24624830
Si       5.21717617       1.67469030       3.10686232
Si      -1.64190821       4.53253059       3.83293330
Si      -5.83830817      -2.64549630       4.70315672
Si       2.96450536      10.56917043       1.18918410
Si       9.51373292       5.03984844       3.32135183
Si       6.15833499       8.36168385      -2.86215277
Si      -1.04211978      -1.83281925       1.86723611
Si       5.85239961      -1.22112730       6.12943043
Si       4.52670907       4.18194334       3.02152286
Si       0.26038233       3.69169931       5.57609334
Si      -0.80676554       3.39277731       2.95348620
Si       0.69448973       0.59210273       7.27517414
22
Lattice="11.848715670856524 2.027606420594669 -0.24218344347331958 0.17075837339966943 11.51185481837179 -0.9185352854313493 -7.354830480638739 -5.27483801766992 8.887245283836144" Properties=species:S:1:pos:R:3 unique_starting_index=18 config_type=initial n_minim_iter=18 stress="0.0021358650041855202 0.0003226011485157144 0.009507207245495591 0.0003226011485157144 0.02010643828364502 -0.013288102105201732 0.009507207245495591 -0.013288102105201732 0.010669213703023143" pbc="T T T"
Si       4.85642203      10.80889976       1.28111121
Si       2.02118796       1.62931169       6.74704376
Si      -5.55194877      -4.63182579       7.52778921
Si       2.52728294       0.33400678       7.91291053
Si      -8.97561195      -0.64697334       9.61118553
Si       8.76891599       6.60797262       1.27230812
Si       5.96827199       0.63561054       1.68087453
Si       0.78994852       2.15797861       7.73951164
Si       1.99727417      -0.05358891       9.46570369
Si      -0.16974637       2.12281851       5.18819004
Si       5.25994620       1.66762366       3.09041649
Si      -1.65405420       4.52823350       3.76767012
Si      -5.83825051      -2.66212887       4.61945221
Si       2.96467218      10.58797827       1.18972287
Si       9.59032407       5.01601735       3.33542178
Si       6.16956998       8.36744525      -2.81609609
Si      -1.02569373      -1.81575554       1.83072286
Si       5.90244942      -1.23588047       6.10784784
Si       4.54701369       4.17380859       3.00010658
Si       0.28342960       3.69376862       5.49949858