22
Lattice="11.904757863641693 2.1912624863343653 -0.4764024465811285 0.12958480631615618 12.592089006048582 -1.4981465525021973 -7.4808306104873985 -6.233010323627551 8.806445736351487" Properties=species:S:1:pos:R:3 unique_starting_index=18 config_type=initial n_minim_iter=1 energy=-3702.648731734746 free_energy=-3702.648731734746 pbc="T T T"
Si       4.82335508      11.80977540       0.55704377
Si       1.77499711       1.44476528       6.28298334
Si      -5.81503465      -5.48971425       7.45657316
Si       2.20906352      -0.08730715       7.12157839
Si      -8.76461547      -1.80844598       8.91346227
Si       9.43674474       7.27709847       0.60825616
Si       5.81837812       0.65141833       1.44539487
Si       0.60089810       1.87576787       7.34728846
Si       1.70711517      -0.48168932       8.85934937
Si      -0.32405822       2.19579715       4.82473458
Si       5.15187461       1.60710282       2.90979990
Si      -1.55299996       4.73827711       3.58290532
Si      -5.96613918      -2.95655217       4.73070377
Si       3.09829995      11.20818282       0.09999099
Si       9.55208118       5.48432538       2.78214479
Si       6.08562791       9.25783643      -3.02800463
Si      -1.07961682      -2.30561997       2.11934410
Si       6.05700286      -1.79912188       5.82341092
Si       4.48621770       4.24440384       2.73369783
Si       0.11849852       3.70310168       5.34960049
Si      -0.84346019       3.57330241       2.59023868
Si       0.50641839       0.35455751       6.63151386
22
Lattice="11.872130079509365 2.1721626869654176 -0.4680290255034345 0.12361791221880526 12.518914800172968 -1.443779222705045 -7.459108923665173 -6.160032829999535 8.767890130112955" Properties=species:S:1:pos:R:3 unique_starting_index=18 config_type=initial n_minim_iter=2 stress="-0.010075430275128496 0.011030743382048997 -0.02363446609806888 0.011030743382048997 -0.005980783853820163 0.0007941357119909505 -0.02363446609806888 0.0007941357119909505 -0.04573491299750148" pbc="T T T"
Si       4.80515371      11.74725079       0.60450650
Si       1.77125193       1.46144177       6.27935380
Si      -5.79786036      -5.42675219       7.42274105
Si       2.20120384      -0.05842827       7.10952824
Si      -8.74187991      -1.75707667       8.89424512
Si       9.40771551       7.23758478       0.63542245
Si       5.80245494       0.65125172       1.44527031
Si       0.59616487       1.89483646       7.34423530
Si       1.70186998      -0.44410715       8.84283557
Si      -0.32422836       2.20302616       4.82466710
Si       5.13713780       1.60839860       2.91119460
Si      -1.55125022       4.72711681       3.59683892
Si      -5.94931201      -2.91875506       4.71195693
Si       3.08453749      11.14766134       0.14608559
Si       9.52556464       5.46303085       2.79839738
Si       6.06591245       9.19410168      -2.98504400
Si      -1.07600318      -2.28417083       2.10655939
Si       6.04091381      -1.76836791       5.80621191
Si       4.47208590       4.23099706       2.74644574
Si       0.11590987       3.70499362       5.35655243
Si      -0.84525849       3.56593229       2.60279965
Si       0.50404957       0.38157111       6.62260319
22
Lattice="11.847855183669527 2.129939843104212 -0.4144345906811773 0.08759256360584539 12.445191778726183 -1.391948590562345 -7.399431575138363 -6.0672523719273155 8.761598041974938" Properties=species:S:1:pos:R:3 unique_starting_index=18 config_type=initial n_minim_iter=3 stress="-0.007201865295098992 -0.007963108926996617 0.00015769316804924171 -0.007963108926996617 -0.007524045823754615 0.001793824579936433 0.00015769316804924171 0.001793824579936433 0.0020630108320522506" pbc="T T T"
Si       4.77240461      11.67655410       0.68313297
Si       1.79443932       1.47809404       6.33154929
Si      -5.74743729      -5.34781763       7.41793479
Si       2.22331817      -0.02930570       7.15922662
Si      -8.69122448      -1.68214667       8.90690589
Si       9.37797399       7.18236805       0.70872148
Si       5.79818720       0.64092690       1.47970659
Si       0.61639733       1.91654068       7.40065805
Si       1.73501437      -0.40550774       8.89856366
Si      -0.30951343       2.21242530       4.85907632
Si       5.13722789       1.60193725       2.95583878
Si      -1.54585228       4.72053031       3.63437076
Si      -5.91502006      -2.86674586       4.70310473
Si       3.05292364      11.08190455       0.21288225
Si       9.51203836       5.42561547       2.87629825
Si       6.02424109       9.11796090      -2.93391462
Si      -1.06089240      -2.25943664       2.10376540
Si       6.05871051      -1.74564963       5.85567748
Si       4.46622005       4.21087744       2.80029531
Si       0.12778666       3.71031827       5.40649101
Si      -0.84606948       3.56276506       2.63522507
Si       0.52793935       0.41347069       6.66572569
22
Lattice="11.8834369499244 2.169283372295535 -0.3953881498645191 0.12816560089740067 12.445958762673442 -1.3642427507549504 -7.427779168794243 -6.074464477490115 8.741454332267582" Properties=species:S:1:pos:R:3 unique_starting_index=18 config_type=initial n_minim_iter=4 stress="0.008954178256981039 0.010160984232068656 -0.0028910721761920147 0.010160984232068656 0.019244478067188948 0.016899225578548664 -0.0028910721761920147 0.016899225578548664 0.0007649567077646354" pbc="T T T"
Si       4.82449766      11.69749485       0.71605051
Si       1.81856368       1.49808867       6.34285948
Si      -5.77060967      -5.35169004       7.40044171
Si       2.23385987      -0.00574566       7.16480323
Si      -8.71087002      -1.68949192       8.89704165
Si       9.42357049       7.22178403       0.73346521
Si       5.81670249       0.66442979       1.48914305
Si       0.63044235       1.93085422       7.40817229
Si       1.74925322      -0.38378558       8.90094064
Si      -0.29690437       2.21823679       4.86136256
Si       5.15901064       1.62658177       2.96585158
Si      -1.52734427       4.72374613       3.64272925
Si      -5.93304385      -2.87772157       4.69083847
Si       3.09643060      11.09598285       0.24275788
Si       9.55367043       5.46259463       2.90003993
Si       6.06943214       9.13527177      -2.90631673
Si      -1.06886910      -2.25906918       2.09756107
Si       6.07395444      -1.71298795       5.86069948
Si       4.49499064       4.23294971       2.81585003
Si       0.14744064       3.72372806       5.41553304
Si      -0.83286343       3.57023062       2.64490673
Si       0.53729052       0.43356990       6.67006171
22
Lattice="11.884686579237409 2.1703140106817638 -0.3873938063763851 0.13362047780530356 12.41233988962935 -1.385006522581789 -7.422982254076508 -6.075683285353307 8.741046847060286" Properties=species:S:1:pos:R:3 unique_starting_index=18 config_type=initial n_minim_iter=5 stress="0.004017802684886013 0.01343848137601108 0.007419791796729906 0.01343848137601108 -0.005755193780037039 -0.0021452038792746314 0.007419791796729906 -0.0021452038792746314 -0.005018166623543273" pbc="T T T"
Si       4.83188123      11.66529622       0.70085951
Si       1.83061595       1.48418238       6.34316684
Si      -5.76640316      -5.35143658       7.40052471
Si       2.23855739      -0.01615479       7.16508700
Si      -8.70619141      -1.70248109       8.88884205
Si       9.42626823       7.20693799       0.72722588
Si       5.81914157       0.66383417       1.49350100
Si       0.63707787       1.90964460       7.40203426
Si       1.75893215      -0.39783564       8.89942636
Si      -0.29060981       2.20121395       4.85335152
Si       5.16330965       1.62015077       2.96625341
Si      -1.52017351       4.70233896       3.63020376
Si      -5.92983823      -2.88113159       4.68800973
Si       3.10158235      11.06546263       0.22755048
Si       9.55737758       5.44542491       2.89825268
Si       6.07484416       9.11768201      -2.91489416
Si      -1.06830658      -2.25669974       2.09917318
Si       6.07852303      -1.71440357       5.86706138
Si       4.50052535       4.21833908       2.81164465
Si       0.15467497       3.70295985       5.40558702
Si      -0.82810063       3.55767677       2.63793747
Si       0.54333522       0.42396830       6.66777624
22
Lattice="11.862290613352213 2.11446723508119 -0.42908027445135277 0.07823705433236947 12.418162530642379 -1.3910728301126978 -7.414603652689124 -6.045844522683276 8.775902766014292" Properties=species:S:1:pos:R:3 unique_starting_index=18 config_type=initial n_minim_iter=6 stress="0.018950169353567095 -0.001709473025159122 -0.012834307766895 -0.001709473025159122 -0.009861671734199842 -0.0013403652278711827 -0.012834307766895 -0.0013403652278711827 0.004931162118059404" pbc="T T T"
Si       4.76805693      11.64772549       0.68221896
Si       1.81066935       1.47456963       6.35076697
Si      -5.75826198      -5.32799787       7.42737935
Si       2.20757109      -0.02888963       7.16646829
Si      -8.72288791      -1.66127470       8.92723303
Si       9.37143312       7.16890720       0.68911949
Si       5.80561681       0.63711657       1.47568126
Si       0.59883138       1.90092404       7.40536839
Si       1.73286843      -0.41078384       8.90176526
Si      -0.31489044       2.19748110       4.85428590
Si       5.14077152       1.59608410       2.94923876
Si      -1.55270734       4.71074181       3.63455790
Si      -5.92375179      -2.85696047       4.71291648
Si       3.04115621      11.05651080       0.21574756
Si       9.50632087       5.39748163       2.86504165
Si       6.04082240       9.09514167      -2.94147745
Si      -1.06369241      -2.25348482       2.10444532
Si       6.05958376      -1.74606042       5.85164803
Si       4.46669145       4.19753467       2.79684921
Si       0.11850245       3.69883125       5.40406319
Si      -0.85192372       3.56645510       2.64200519
Si       0.51746915       0.42151222       6.67143668
22
Lattice="11.79802543831481 2.092187793632065 -0.42124341625633993 0.04676387183666009 12.453286347336327 -1.3849894290107354 -7.357938485219686 -6.042590672813293 8.761367562699993" Properties=species:S:1:pos:R:3 unique_starting_index=18 config_type=initial n_minim_iter=7 stress="-0.008814413440884869 -0.00549435762895449 -0.004677239103890282 -0.00549435762895449 -0.0017776787764625826 0.002473322917310194 -0.004677239103890282 0.002473322917310194 -0.0043317717486421915" pbc="T T T"
Si       4.71650709      11.67026215       0.68986439
Si       1.80793155       1.47794163       6.35466838
Si      -5.71186291      -5.32648423       7.41454225
Si       2.19726290      -0.03169431       7.16345255
Si      -8.67443570      -1.63963269       8.91449778
Si       9.30291534       7.16955860       0.69399419
Si       5.77705684       0.62679904       1.47865327
Si       0.59397762       1.90604547       7.39867942
Si       1.73346444      -0.41366634       8.89515516
Si      -0.31469902       2.20295566       4.84862055
Si       5.11385009       1.59020149       2.94896744
Si      -1.55429405       4.72959534       3.63045996
Si      -5.88364113      -2.85056438       4.70395881
Si       2.99692750      11.08174347       0.22355304
Si       9.44547941       5.38868120       2.86844828
Si       5.99250455       9.10603511      -2.93277018
Si      -1.05204208      -2.25682169       2.10027377
Si       6.03652050      -1.76327292       5.84880308
Si       4.43664484       4.19969571       2.79816357
Si       0.11285183       3.70875841       5.39720821
Si      -0.85503529       3.58232999       2.64086360
Si       0.51712027       0.42350454       6.66475871
22
Lattice="11.82516358236771 2.0675471471291 -0.40733878017729563 0.02432415587172271 12.434857288176252 -1.3428624112906151 -7.361520248864785 -5.991641342049341 8.752936371494805" Properties=species:S:1:pos:R:3 unique_starting_index=18 config_type=initial n_minim_iter=8 stress="0.004520365727007952 -0.007808255245708569 -0.00035255994552805934 -0.007808255245708569 -0.009301425951991515 0.004263056109538344 -0.00035255994552805934 0.004263056109538344 0.00045311620011525964" pbc="T T T"
Si       4.70982397      11.65211347       0.74140860
Si       1.83345294       1.50469506       6.40826775
Si      -5.71113977      -5.28117671       7.40365599
Si       2.19151626      -0.01196838       7.18657074
Si      -8.69759077      -1.57717200       8.92732608
Si       9.29537362       7.14331066       0.72315653
Si       5.79644693       0.62646587       1.49094652
Si       0.58987291       1.93275390       7.41371995
Si       1.75206343      -0.37986005       8.92074945
Si      -0.31186666       2.21001244       4.86202052
Si       5.12953668       1.59351224       2.95922056
Si      -1.56886090       4.73978798       3.64717103
Si      -5.88679947      -2.82508506       4.69887579
Si       2.97472448      11.06764088       0.27488676
Si       9.45902531       5.36996776       2.89375884
Si       6.00345820       9.06802722      -2.90718615
Si      -1.05120938      -2.24546842       2.09228322
Si       6.05608352      -1.75038044       5.85729567
Si       4.44593743       4.19593806       2.82057411
Si       0.12664739       3.71460441       5.40343093
Si      -0.86461070       3.59808456       2.66009539
Si       0.51868081       0.43810635       6.67100592
22
Lattice="11.78867351310844 2.073342189958016 -0.4623583664263598 0.03348144480189607 12.450944774973078 -1.3563034133782452 -7.376710806780544 -6.004798317142204 8.832703459050846" Properties=species:S:1:pos:R:3 unique_starting_index=18 config_type=initial n_minim_iter=9 stress="-0.00494394005367302 -0.0014773911553462723 -0.002057276147710436 -0.0014773911553462723 0.000839469577877592 0.0009273591872754417 -0.002057276147710436 0.0009273591872754417 -0.0020430082928574777" pbc="T T T"
Si       4.69485133      11.66764965       0.72442178
Si       1.81508454       1.51783591       6.46698647
Si      -5.72329903      -5.28920410       7.46534594
Si       2.13553631      -0.01784610       7.22286800
Si      -8.71049062      -1.56628800       9.01846265
Si       9.24441207       7.15853312       0.68841057
Si       5.77662718       0.63433647       1.47677214
Si       0.54837602       1.92819587       7.43501568
Si       1.70856958      -0.39376461       8.96308822
Si      -0.32488102       2.20482683       4.88495679
Si       5.10441481       1.59967125       2.94507250
Si      -1.58839459       4.74125949       3.66264897
Si      -5.88315338      -2.83781848       4.74873994
Si       2.95412765      11.08519996       0.26885921
Si       9.42089465       5.37467352       2.85913868
Si       6.01200145       9.07183780      -2.96379027
Si      -1.05935336      -2.24995471       2.10434296
Si       6.00709830      -1.75257394       5.86039075
Si       4.42446088       4.19931753       2.81156265
Si       0.12592256       3.70531721       5.40320325
Si      -0.87767801       3.60731930       2.67768308
Si       0.48738084       0.43360595       6.69650338
22
Lattice="11.714407272393176 2.0519366011975655 -0.51319956300348 0.01516154525859945 12.45935362455581 -1.3493149512942186 -7.357091332439764 -5.983850942743587 8.912892181110585" Properties=species:S:1:pos:R:3 unique_starting_index=18 config_type=initial n_minim_iter=10 stress="-0.011758880299194968 0.0006257035814029123 -0.0059038433915085285 0.0006257035814029123 0.006745705068661321 0.001630331666797644 -0.0059038433915085285 0.001630331666797644 -5.6119902482052274e-05" pbc="T T T"
Si       4.64082686      11.66956672       0.73089651
Si       1.78760340       1.54731073       6.52791326
Si      -5.70619055      -5.26842468       7.52618381
Si       2.07177353      -0.01848479       7.27581369
Si      -8.70084210      -1.51122596       9.13613808
Si       9.15907211       7.13683181       0.66629570
Si       5.74081949       0.63324655       1.46765800
Si       0.49452660       1.92918251       7.47645569
Si       1.65960352      -0.39117039       9.01560342
Si      -0.34060870       2.19837760       4.91143267
Si       5.06323827       1.60047253       2.93574333
Si      -1.62149862       4.75783559       3.69731247
Si      -5.85476240      -2.82998056       4.79940290
Si       2.89732422      11.09398984       0.28831548
Si       9.34243252       5.35843216       2.84140764
Si       5.98796654       9.05547657      -3.02530619
Si      -1.06015015      -2.24766029       2.11335224
Si       5.94460221      -1.75603379       5.86796029
Si       4.38322887       4.19577509       2.81338064
Si       0.12236378       3.70929750       5.41214791
Si      -0.88616228       3.61430988       2.70158967
Si       0.45646076       0.44349256       6.73622246
22
Lattice="11.718632056402795 1.9858256394120057 -0.5011906374742138 -0.05370203019418866 12.452580453431764 -1.3172563618304565 -7.329007690864364 -5.920987124937276 8.883208693319466" Properties=species:S:1:pos:R:3 unique_starting_index=18 config_type=initial n_minim_iter=11 stress="-0.0009205730149605934 -0.005662106315837941 -0.002372311932152975 -0.005662106315837941 0.01083227540659588 0.004592328976879137 -0.002372311932152975 0.004592328976879137 -0.012084842716711824" pbc="T T T"
Si       4.58393759      11.64291553       0.76769292
Si       1.79143037       1.58156395       6.54225622
Si      -5.67729317      -5.21368029       7.49656521
Si       2.06098771      -0.01974813       7.28750365
Si      -8.70046891      -1.41920600       9.14152011
Si       9.11340354       7.07958461       0.69812113
Si       5.75294422       0.61184024       1.47631626
Si       0.47850897       1.93738272       7.47467958
Si       1.66548891      -0.38714569       9.00365959
Si      -0.33801932       2.19819247       4.89911795
Si       5.06892254       1.58414932       2.92979880
Si      -1.65884688       4.77397277       3.69601068
Si      -5.83742389      -2.79347782       4.78284640
Si       2.82386222      11.08128211       0.33422231
Si       9.32398368       5.30115591       2.85239312
Si       5.96149783       9.01128512      -3.03318845
Si      -1.05112766      -2.23709047       2.09809678
Si       5.96106948      -1.77255143       5.85716005
Si       4.37418849       4.17470860       2.81963929
Si       0.12735561       3.70690435       5.38535957
Si      -0.90111524       3.62975391       2.71712009
Si       0.46038167       0.45185126       6.72779138
22
Lattice="11.614946311864784 1.9920744672070745 -0.5753852431329339 -0.03276927784792689 12.418035056412258 -1.32334947873378 -7.319456806225501 -5.9035550596034225 9.027169929321417" Properties=species:S:1:pos:R:3 unique_starting_index=18 config_type=initial n_minim_iter=12 stress="-0.007316121157547967 -0.0007430775779695269 -0.004935225101779842 -0.0007430775779695269 0.021906212668768563 0.001891293731930092 -0.004935225101779842 0.001891293731930092 0.0053450035109364954" pbc="T T T"
Si       4.54817853      11.61754243       0.76472490
Si       1.73798806       1.62088903       6.62536463
Si      -5.67046732      -5.19334166       7.61070028
Si       1.98132281      -0.01582774       7.38400793
Si      -8.67541262      -1.39341178       9.32499917
Si       9.00579373       7.06142245       0.66628356
Si       5.69952773       0.62459327       1.46581489
Si       0.42282294       1.93494014       7.56465736
Si       1.59328761      -0.37887441       9.10130616
Si      -0.34494820       2.17482371       4.94544151
Si       5.01286596       1.59400106       2.92535920
Si      -1.66666186       4.76189753       3.74470332
Si      -5.80704967      -2.79499722       4.87105245
Si       2.78895793      11.06191972       0.35004766
Si       9.22144545       5.28310615       2.82877465
Si       5.94958014       8.99089112      -3.13549635
Si      -1.05952282      -2.23093586       2.11974265
Si       5.86450470      -1.75337554       5.88679008
Si       4.32877763       4.16854391       2.82612323
Si       0.12323481       3.69162706       5.42178685
Si      -0.90472998       3.63245506       2.77180769
Si       0.41968493       0.45148608       6.80383403
22
Lattice="11.59359134459702 1.9617783805008235 -0.5788153805044659 -0.04444764093131756 12.315583649367673 -1.2906178217263984 -7.306746863663711 -5.818107819885348 9.06949700879173" Properties=species:S:1:pos:R:3 unique_starting_index=18 config_type=initial n_minim_iter=13 stress="-0.005461432247692187 -0.003429193399455385 -0.00023601874152720452 -0.003429193399455385 0.014021353118799235 0.004203998148264599 -0.00023601874152720452 0.004203998148264599 0.012910147407661785" pbc="T T T"
Si       4.52774811      11.52275684       0.80767023
Si       1.72587350       1.64818096       6.67693433
Si      -5.65773939      -5.11800976       7.64399827
Si       1.96924799       0.01034791       7.44550363
Si      -8.67256841      -1.33368734       9.40422244
Si       8.96448847       7.00089257       0.69534221
Si       5.69384078       0.62094756       1.47737467
Si       0.40613056       1.94548372       7.61194862
Si       1.58808938      -0.35360650       9.15977583
Si      -0.33945782       2.16119905       4.98631837
Si       5.00553506       1.58957014       2.94031271
Si      -1.67445816       4.74270693       3.78436530
Si      -5.79333559      -2.75430583       4.89610715
Si       2.76147856      10.97850355       0.40259590
Si       9.19161547       5.22797325       2.84643478
Si       5.94206291       8.90040250      -3.15295551
Si      -1.05947508      -2.20567347       2.12044132
Si       5.84929576      -1.72339636       5.91279533
Si       4.32166937       4.13988089       2.85185881
Si       0.13662548       3.67105436       5.45961331
Si      -0.90820947       3.61773334       2.80310332
Si       0.41809477       0.46799574       6.85316618
22
Lattice="11.59712585130736 1.9378454688915558 -0.6032239136072733 -0.06195752550661879 12.285119302091298 -1.3134274073070424 -7.3157849248487885 -5.805335415452355 9.095968627378225" Properties=species:S:1:pos:R:3 unique_starting_index=18 config_type=initial n_minim_iter=14 stress="0.0023637558342145576 -0.005617391045467035 -0.0015280219695943985 -0.005617391045467035 0.02043146439652924 0.0017721351028351642 -0.0015280219695943985 0.0017721351028351642 0.012588216329505568" pbc="T T T"
Si       4.50984342      11.48155252       0.77933591
Si       1.71419700       1.64141961       6.67500108
Si      -5.66239248      -5.10646955       7.66550051
Si       1.95747652       0.00012642       7.45653754
Si      -8.69856357      -1.32345849       9.44137394
Si       8.94249606       6.96831410       0.66822088
Si       5.69813512       0.60851569       1.46889150
Si       0.38124203       1.93092582       7.61003338
Si       1.57582294      -0.37787994       9.16510516
Si      -0.34526408       2.13427899       4.98132769
Si       5.00484047       1.57456307       2.92426457
Si      -1.69278411       4.72530053       3.77530241
Si      -5.79679705      -2.74838986       4.91270746
Si       2.73554291      10.94921097       0.39098359
Si       9.18309015       5.18657544       2.80851580
Si       5.93980805       8.87071119      -3.19915243
Si      -1.06222133      -2.20199836       2.12146318
Si       5.84245277      -1.73597823       5.90459782
Si       4.31823054       4.11684289       2.83365420
Si       0.14070365       3.64861787       5.44818714
Si      -0.92284340       3.60647283       2.80351431
Si       0.41185775       0.44831164       6.85962957
22
Lattice="11.600335242177051 1.9185828179597935 -0.6236702849079804 -0.05913492814682139 12.174333784043053 -1.3084911303020619 -7.332340623294198 -5.742295731428704 9.148548920323417" Properties=species:S:1:pos:R:3 unique_starting_index=18 config_type=initial n_minim_iter=15 stress="0.00936200769567549 -0.004617976805860081 0.002702063769065219 -0.004617976805860081 0.017172039403449888 0.002665772994188224 0.002702063769065219 0.002665772994188224 0.01542664206479136" pbc="T T T"
Si       4.50931177      11.37585489       0.78468664
Si       1.69898731       1.64419030       6.72123116
Si      -5.67256770      -5.05060960       7.70936512
Si       1.94837837       0.02174860       7.50517954
Si      -8.72627900      -1.28467878       9.52204085
Si       8.92298439       6.90898379       0.66207739
Si       5.70435111       0.60412000       1.46961450
Si       0.36714414       1.92825612       7.64901322
Si       1.55681353      -0.37661045       9.21742509
Si      -0.35006624       2.10824951       4.99395039
Si       5.00713154       1.56720280       2.92607308
Si      -1.70726500       4.68532310       3.79772602
Si      -5.80262833      -2.72090957       4.94377375
Si       2.72314808      10.86029587       0.41886247
Si       9.17720768       5.13336484       2.79828581
Si       5.95266157       8.78997826      -3.24198877
Si      -1.06929081      -2.18006478       2.12288556
Si       5.82942219      -1.71023320       5.91894564
Si       4.32318539       4.08443349       2.83800588
Si       0.14846451       3.61681185       5.47066363
Si      -0.92198625       3.57257046       2.82724063
Si       0.41186317       0.44019493       6.90560340
22
Lattice="11.593817851898818 1.9330535912649989 -0.6339670905617069 -0.035577980278509225 12.136109033430554 -1.308742044774522 -7.343748900439491 -5.733581205392294 9.180879325005126" Properties=species:S:1:pos:R:3 unique_starting_index=18 config_type=initial n_minim_iter=16 stress="0.0088372110502208 -0.0008214157788049517 0.002280104702711507 -0.0008214157788049517 0.01216686341212311 0.0005502452977227166 0.002280104702711507 0.0005502452977227166 0.01816512988310159" pbc="T T T"
Si       4.52545690      11.34642789       0.78506897
Si       1.69694834       1.64488120       6.74460941
Si      -5.68141215      -5.04156915       7.73682165
Si       1.94364647       0.03345409       7.53065939
Si      -8.73117864      -1.28604049       9.56549227
Si       8.92031100       6.90212848       0.66361381
Si       5.70231283       0.61212692       1.47031050
Si       0.35972144       1.93087562       7.67363258
Si       1.54498014      -0.37197997       9.24781758
Si      -0.35032004       2.10062749       5.00906822
Si       5.00559196       1.57396721       2.93030598
Si      -1.70190367       4.66953075       3.80771239
Si      -5.80560386      -2.72133522       4.96210159
Si       2.73529509      10.83555836       0.42998319
Si       9.17546404       5.12947290       2.79653072
Si       5.97101103       8.77262094      -3.26364555
Si      -1.07515198      -2.17387078       2.12550488
Si       5.81421366      -1.69019772       5.93082271
Si       4.32776834       4.08242046       2.84172337
Si       0.15039393       3.60617597       5.48422662
Si      -0.91621427       3.55970904       2.83991636
Si       0.41108076       0.43935857       6.93107821
22
Lattice="11.608411852946816 1.9334014125617123 -0.6334596333520518 -0.026271016739319565 12.090428925710093 -1.297849303268019 -7.357153702156457 -5.707794158461638 9.188854932752676" Properties=species:S:1:pos:R:3 unique_starting_index=18 config_type=initial n_minim_iter=17 stress="0.011994251546684608 1.0695276215967574e-06 0.0036318615652782714 1.0695276215967574e-06 0.007941186908218625 0.0016847041476010954 0.0036318615652782714 0.0016847041476010954 0.008953764260274931" pbc="T T T"
Si       4.53956562      11.30216562       0.79187150
Si       1.69951800       1.64458804       6.76573385
Si      -5.68875647      -5.01861088       7.74513848
Si       1.95632463       0.05158003       7.54852380
Si      -8.74706993      -1.26629011       9.59464679
Si       8.92149539       6.87765795       0.68347582
Si       5.71583830       0.61217155       1.47306903
Si       0.35783729       1.93691451       7.68132870
Si       1.54295971      -0.36311886       9.26548365
Si      -0.34581969       2.08542835       5.01681102
Si       5.01762468       1.57709225       2.93417115
Si      -1.70423721       4.65584374       3.80523328
Si      -5.81378033      -2.71062020       4.96490546
Si       2.73636775      10.80661088       0.46016057
Si       9.19049848       5.10849166       2.79740391
Si       5.98607250       8.74649498      -3.27164260
Si      -1.08005584      -2.16271593       2.11720497
Si       5.81481051      -1.66981842       5.93464409
Si       4.34205011       4.07859018       2.84334877
Si       0.14967984       3.59960449       5.48558687
Si      -0.91462741       3.54582100       2.85090314
Si       0.41772558       0.44633644       6.95096205
22
Lattice="11.598176416899145 1.9709125385050446 -0.6393301476777196 0.030826431045749066 12.002350327051479 -1.283332184229572 -7.377435089839156 -5.681466470289359 9.24171340133361" Properties=species:S:1:pos:R:3 unique_starting_index=18 config_type=initial n_minim_iter=18 stress="0.00899417865494288 0.003582346406511659 0.0061592581889969135 0.003582346406511659 -0.0013204579392875073 -0.003059232552461745 0.0061592581889969135 -0.003059232552461745 0.0037151366070861088" pbc="T T T"
Si       4.58614798      11.23062436       0.80243527
Si       1.70095397       1.64873755       6.82227753
Si      -5.70092348      -4.99189951       7.79259698
Si       1.97284614       0.08773795       7.61174905
Si      -8.75834401      -1.25876275       9.69291277
Si       8.90815908       6.86716105       0.70154504
Si       5.71956185       0.62846221       1.48163177
Si       0.36310856       1.95095003       7.74024029
Si       1.53559107      -0.34138834       9.31982301
Si      -0.33131749       2.06724543       5.06499896
Si       5.02489971       1.59644185       2.95200946
Si      -1.69117863       4.62143395       3.81784697
Si      -5.82006255      -2.70685332       4.98956521
Si       2.76362216      10.75963949       0.51706733
Si       9.20182613       5.10082926       2.81762880
Si       6.00921143       8.70952269      -3.29420837
Si      -1.09224836      -2.14346698       2.10912892
Si       5.78490389      -1.61313902       5.96366969
Si       4.36256547       4.08745946       2.85491234