14
Lattice="6.347926494869938 -1.6144300427463016 -4.856423518425748e-14 -1.436138798809559 5.189281945715877 2.715334577547745e-14 1.1250570563228074e-13 -5.5460734950607524e-14 16.549533278036154" Properties=species:S:1:pos:R:3 unique_starting_index=0 config_type=initial n_minim_iter=1 energy=-2303.9711639283614 free_energy=-2303.9711639283614 pbc="T T T"
Si       3.18530623      -0.87429815      13.71740604
Si      -0.72941238       2.66172410       5.44263940
Si       1.72648147       4.44915005       2.83212724
Si       5.64120008       0.91312780      11.10689388
Si       3.97093104       1.23151265       6.16607205
Si       4.83288931      -1.05851674      14.44083869
Si       0.94085666       2.34333925      10.38346123
Si       0.07889839       4.63336864       2.10869459
Si       0.90810165       2.39028258       6.16559512
Si       1.54779220      -0.60285663      14.44036176
Si       4.00368605       1.18456932      10.38393815
Si       3.36399550       4.17770853       2.10917151
Si       3.17396325      -0.80721502      -0.00000000
Si      -0.71806940       2.59464097       8.27476664
14
Lattice="6.33524282558608 -1.6182989982889564 -4.849097571376177e-14 -1.4349713629632026 5.195025389699826 2.7164656815352602e-14 1.1245114576881544e-13 -5.543383915799337e-14 16.54150754928765" Properties=species:S:1:pos:R:3 unique_starting_index=0 config_type=initial n_minim_iter=2 stress="-0.0017739933719908008 0.001627150189737048 3.96808334813179e-16 0.001627150189737048 -0.0031169205122486623 -1.5545408084884564e-16 3.96808334813179e-16 -1.5545408084884564e-16 -0.005798355856909721" pbc="T T T"
Si       3.17896976      -0.87616886      13.71073349
Si      -0.72883403       2.66453206       5.43997972
Si       1.72130171       4.45289526       2.83077406
Si       5.62910549       0.91219433      11.10152783
Si       3.96247085       1.23116065       6.16314937
Si       4.82290771      -1.06109645      14.43390314
Si       0.93780062       2.34556575      10.37835818
Si       0.07736375       4.63782284       2.10760441
Si       0.90536646       2.39249122       6.16237480
Si       1.54476927      -0.60412802      14.43312857
Si       3.99490500       1.18423517      10.37913275
Si       3.35550219       4.18085441       2.10837898
Si       3.16762141      -0.80914950      -0.00000000
Si      -0.71748568       2.59751269       8.27075377
14
Lattice="6.332534753830082 -1.622523165631751 -4.8486721932265746e-14 -1.436405141931249 5.2005565707813535 2.719293988984078e-14 1.1254211784998277e-13 -5.547868469229904e-14 16.55488949712921" Properties=species:S:1:pos:R:3 unique_starting_index=0 config_type=initial n_minim_iter=3 stress="-0.00016196079313781045 0.001311395293278465 5.354821415855991e-16 0.001311395293278465 0.0025564749567383808 -2.643991012167077e-16 5.354821415855991e-16 -2.643991012167077e-16 -8.971650983700469e-05" pbc="T T T"
Si       3.17764005      -0.87820457      13.72173103
Si      -0.72957525       2.66722127       5.44428628
Si       1.71848956       4.45623797       2.83315847
Si       5.62570486       0.91081213      11.11060321
Si       3.96004126       1.23045348       6.16820132
Si       4.82055830      -1.06395994      14.44564607
Si       0.93608836       2.34757993      10.38668818
Si       0.07557131       4.64199335       2.10924343
Si       0.90394193       2.39447588       6.16710092
Si       1.54412288      -0.60545918      14.44454567
Si       3.99218768       1.18355752      10.38778858
Si       3.35200673       4.18349258       2.11034383
Si       3.16626738      -0.81126158      -0.00000000
Si      -0.71820257       2.60027829       8.27744475
14
Lattice="6.3297137904850755 -1.6330786544407023 -4.8502918201423995e-14 -1.445230315024791 5.197275265696979 2.7241938174022953e-14 1.1266052841466885e-13 -5.5537056282490815e-14 16.572307632233816" Properties=species:S:1:pos:R:3 unique_starting_index=0 config_type=initial n_minim_iter=4 stress="-0.0016053828039579252 -0.0015743829543001643 2.669321884814861e-16 -0.0015743829543001643 -0.002105462911464188 -1.982658437149316e-16 2.669321884814861e-16 -1.982658437149316e-16 0.0011504965173128017" pbc="T T T"
Si       3.17632032      -0.88267438      13.73564837
Si      -0.73407859       2.66477269       5.44949456
Si       1.70816315       4.44687099       2.83665926
Si       5.61856206       0.89942393      11.12281307
Si       3.95485105       1.22035343       6.17512430
Si       4.81710448      -1.07133378      14.46127812
Si       0.92963242       2.34384318      10.39718333
Si       0.06737900       4.63553039       2.11102952
Si       0.89887606       2.39028774       6.17234136
Si       1.54336568      -0.60818943      14.45849518
Si       3.98560742       1.17390888      10.39996627
Si       3.34111780       4.17238604       2.11381245
Si       3.16485690      -0.81653933      -0.00000000
Si      -0.72261516       2.59863763       8.28615382
14
Lattice="6.363986998117951 -1.6476473256949908 -4.878473404152533e-14 -1.4615892287580388 5.210268609158217 2.739669126994028e-14 1.1207093874501199e-13 -5.5246412566114884e-14 16.485579285404327" Properties=species:S:1:pos:R:3 unique_starting_index=0 config_type=initial n_minim_iter=5 stress="0.0044090444991845565 -0.004524048692824555 7.215531484643692e-16 -0.004524048692824555 0.005731603598850135 -7.851479416457909e-17 7.215531484643692e-16 -7.851479416457909e-17 -0.005636084238444786" pbc="T T T"
Si       3.19239565      -0.88110370      13.65886612
Si      -0.74119676       2.66241434       5.41607647
Si       1.71000212       4.44372498       2.82671317
Si       5.64359453       0.90020694      11.06950281
Si       3.98330749       1.20601690       6.14797536
Si       4.83187839      -1.07235359      14.39076500
Si       0.91909028       2.35660438      10.33760392
Si       0.07051938       4.63497487       2.09481428
Si       0.90365353       2.39787305       6.12619415
Si       1.54754536      -0.61656241      14.36898379
Si       3.99874424       1.16474823      10.35938514
Si       3.35485241       4.17918370       2.11659549
Si       3.18199350      -0.82382366      -0.00000000
Si      -0.73079461       2.60513430       8.24278964
14
Lattice="6.353802654368778 -1.6259484100569643 -4.8642782329090264e-14 -1.4451603886656035 5.196059970536118 2.7237390113608127e-14 1.1226478103626214e-13 -5.5341968928139586e-14 16.51409338992646" Properties=species:S:1:pos:R:3 unique_starting_index=0 config_type=initial n_minim_iter=6 stress="0.0009763197257144146 -0.00024662871147959956 -4.746469126527303e-17 -0.00024662871147959956 0.0027398605907436807 -1.6489321440135556e-16 -4.746469126527303e-17 -1.6489321440135556e-16 -0.0008348779235791397" pbc="T T T"
Si       3.18610047      -0.86595591      13.68045492
Si      -0.73177934       2.65101169       5.42340822
Si       1.72254179       4.43606747       2.83363847
Si       5.64042160       0.91909987      11.09068517
Si       3.98816397       1.21095989       6.16060395
Si       4.81995982      -1.05185252      14.41765064
Si       0.92047830       2.35915167      10.35348944
Si       0.08868245       4.62196408       2.09644275
Si       0.91111142       2.39794712       6.13090639
Si       1.54320972      -0.61289134      14.38795308
Si       3.99753085       1.17216444      10.38318700
Si       3.36543255       4.18300290       2.12614031
Si       3.17690133      -0.81297420      -0.00000000
Si      -0.72258019       2.59802999       8.25704669
14
Lattice="6.354035284706865 -1.624118497426893 -4.863823138147404e-14 -1.4452949219099713 5.189856016199005 2.7217514017767753e-14 1.1236056741845153e-13 -5.538918771695236e-14 16.528183519051176" Properties=species:S:1:pos:R:3 unique_starting_index=0 config_type=initial n_minim_iter=7 stress="4.3292400865645784e-05 -0.000311079653145358 5.987587781246659e-16 -0.000311079653145358 0.0001452554636521853 -1.932629514595227e-16 5.987587781246659e-16 -1.932629514595227e-16 0.0004199142113200136" pbc="T T T"
Si       3.18190974      -0.86146048      13.69224074
Si      -0.72753956       2.64432924       5.42814898
Si       1.72683062       4.42719800       2.83594278
Si       5.63627992       0.92140828      11.10003454
Si       3.98608740       1.20557036       6.16383890
Si       4.82231807      -1.04682009      14.42793066
Si       0.92265296       2.36016716      10.36434462
Si       0.08642230       4.61255761       2.10025286
Si       0.90672620       2.39730456       6.13837002
Si       1.54764398      -0.61443580      14.40246178
Si       4.00201417       1.16843296      10.38981350
Si       3.36109638       4.18017332       2.12572174
Si       3.17701764      -0.81205925      -0.00000000
Si      -0.72264746       2.59492801       8.26409176
14
Lattice="6.3560437980312186 -1.6155630363509343 -4.8623214465521765e-14 -1.4414183645006233 5.179385389506806 2.7156071591481623e-14 1.124701814738123e-13 -5.544322298598216e-14 16.544307692014133" Properties=species:S:1:pos:R:3 unique_starting_index=0 config_type=initial n_minim_iter=8 stress="-0.0010993185135488267 0.0004978430056745015 4.844503836498445e-16 0.0004978430056745015 -0.002816365670250804 -1.4982308988200253e-16 4.844503836498445e-16 -1.4982308988200253e-16 0.0017075242166633253" pbc="T T T"
Si       3.18513318      -0.85227874      13.70614521
Si      -0.72782047       2.63418991       5.43399136
Si       1.72949225       4.41610109       2.83816248
Si       5.64244590       0.92963244      11.11031633
Si       3.99040581       1.19950999       6.16451655
Si       4.82295071      -1.03316185      14.43667039
Si       0.92421962       2.36431237      10.37979115
Si       0.09167473       4.59698420       2.10763730
Si       0.90680540       2.39698565       6.15098559
Si       1.55050732      -0.61507448      14.42313943
Si       4.00782003       1.16683670      10.39332210
Si       3.36411812       4.17889683       2.12116826
Si       3.17802190      -0.80778152      -0.00000000
Si      -0.72070918       2.58969269       8.27215385
14
Lattice="6.390130785152789 -1.600580612736817 -4.880473283607287e-14 -1.4420863784319753 5.158923134665285 2.709203979700529e-14 1.123077923283836e-13 -5.5363171744999665e-14 16.520420329580734" Properties=species:S:1:pos:R:3 unique_starting_index=0 config_type=initial n_minim_iter=9 stress="0.0005281830144665634 0.000176131116442027 1.0620898334037982e-15 0.000176131116442027 -0.0031420571338486255 -4.2486881370309315e-16 1.0620898334037982e-15 -4.2486881370309315e-16 0.0015398375549602944" pbc="T T T"
Si       3.20202308      -0.81624938      13.68183849
Si      -0.72800087       2.59542064       5.42162832
Si       1.74602133       4.37459190       2.83858184
Si       5.67604528       0.96292188      11.09879201
Si       4.02792751       1.16329436       6.14650153
Si       4.83622548      -0.98470371      14.40671170
Si       0.92011690       2.39504816      10.37391879
Si       0.11181893       4.54304624       2.11370863
Si       0.91058760       2.40667767       6.14716923
Si       1.56343461      -0.62750641      14.40737940
Si       4.03745681       1.15166485      10.37325110
Si       3.38460980       4.18584893       2.11304093
Si       3.19506539      -0.80029031      -0.00000000
Si      -0.72104319       2.57946157       8.26021016
14
Lattice="6.390944154417001 -1.5998355696992521 -4.8807765432082286e-14 -1.4411450790215872 5.160953059873745 2.7092443408966234e-14 1.1222363236114035e-13 -5.53216843056694e-14 16.50804044030541" Properties=species:S:1:pos:R:3 unique_starting_index=0 config_type=initial n_minim_iter=10 stress="5.451602872984883e-05 2.9981253639367256e-06 -1.3520729066083517e-16 2.9981253639367256e-06 -0.000731792353021895 -2.8998045191993465e-16 -1.3520729066083517e-16 -2.8998045191993465e-16 0.0008822443476063048" pbc="T T T"
Si       3.20016911      -0.81172367      13.67068293
Si      -0.72526957       2.59228241       5.41666271
Si       1.74962997       4.37284116       2.83735751
Si       5.67506864       0.96883508      11.09137773
Si       4.02948334       1.15967764       6.14292801
Si       4.83636036      -0.97895446      14.39694823
Si       0.92031574       2.40143985      10.36511243
Si       0.11343872       4.54007195       2.11109221
Si       0.91290361       2.41018367       6.14011894
Si       1.56199593      -0.62962492      14.39413916
Si       4.03689547       1.15093382      10.36792150
Si       3.38780314       4.19074241       2.11390128
Si       3.19547208      -0.79991778      -0.00000000
Si      -0.72057254       2.58047653       8.25402022
14
Lattice="6.3918514050683175 -1.5961169493030611 -4.880147120349509e-14 -1.4384728420396717 5.160314526236899 2.707213737094018e-14 1.1214065225464541e-13 -5.5280778489678785e-14 16.49583410795866" Properties=species:S:1:pos:R:3 unique_starting_index=0 config_type=initial n_minim_iter=11 stress="1.966015884442696e-06 -7.333096419522585e-05 9.656103128224612e-16 -7.333096419522585e-05 0.00029695540774329356 -4.087817803488375e-16 9.656103128224612e-16 -4.087817803488375e-16 5.885983040959632e-06" pbc="T T T"
Si       3.19876766      -0.80474704      13.66017438
Si      -0.72207838       2.58684583       5.41225733
Si       1.75461090       4.36894462       2.83565973
Si       5.67545694       0.97735175      11.08357678
Si       4.03125313       1.15565432       6.13844615
Si       4.83728756      -0.96967248      14.38636321
Si       0.92212543       2.40854326      10.35738796
Si       0.11609101       4.53387005       2.10947090
Si       0.91707827       2.41346919       6.13407436
Si       1.55961101      -0.63137040      14.38199142
Si       4.03630029       1.15072839      10.36175974
Si       3.39376755       4.19556798       2.11384269
Si       3.19592570      -0.79805847      -0.00000000
Si      -0.71923642       2.58015726       8.24791705
14
Lattice="6.391331133885523 -1.5942053181054618 -4.879152808637214e-14 -1.4370335335546085 5.159366482416445 2.7059175698838702e-14 1.1213218546040552e-13 -5.5276604704637557e-14 16.494588646741885" Properties=species:S:1:pos:R:3 unique_starting_index=0 config_type=initial n_minim_iter=12 stress="-3.2174499908618794e-05 -2.8737123253404878e-05 1.1592254737621334e-15 -2.8737123253404878e-05 0.0002086094183512895 -2.7151496792628046e-16 1.1592254737621334e-15 -2.7151496792628046e-16 -0.0001958734409070523" pbc="T T T"
Si       3.19814314      -0.80210017      13.65946875
Si      -0.72099434       2.58468075       5.41217443
Si       1.75615446       4.36726133       2.83511990
Si       5.67529194       0.98048041      11.08241422
Si       4.03111812       1.15455785       6.13737015
Si       4.83736181      -0.96618258      14.38466447
Si       0.92317948       2.41060332      10.35721850
Si       0.11693579       4.53134375       2.10992418
Si       0.91873985       2.41409174       6.13388450
Si       1.55840895      -0.63151116      14.38117883
Si       4.03555775       1.15106942      10.36070414
Si       3.39588865       4.19667232       2.11340982
Si       3.19566557      -0.79710266      -0.00000000
Si      -0.71851677       2.57968324       8.24729432
14
Lattice="6.390149210691984 -1.5934083470031621 -4.878082242458799e-14 -1.4362173393870208 5.158962641488467 2.705227376308575e-14 1.1214408826403578e-13 -5.5282472302494913e-14 16.49633954322908" Properties=species:S:1:pos:R:3 unique_starting_index=0 config_type=initial n_minim_iter=13 stress="-4.711428512650404e-05 2.786039006624997e-05 8.707009237104753e-16 2.786039006624997e-05 4.031851210604444e-05 -2.9900650983128655e-16 8.707009237104753e-16 -2.9900650983128655e-16 -7.054783328583809e-05" pbc="T T T"
Si       3.19738833      -0.80113917      13.66140578
Si      -0.72042240       2.58391631       5.41323601
Si       1.75654354       4.36669346       2.83493377
Si       5.67435427       0.98163798      11.08310354
Si       4.03024941       1.15460946       6.13767036
Si       4.83686574      -0.96524066      14.38584014
Si       0.92368246       2.41094484      10.35866918
Si       0.11706614       4.53079495       2.11049941
Si       0.91967404       2.41383672       6.13492796
Si       1.55729190      -0.63105957      14.38309773
Si       4.03425783       1.15171758      10.36141159
Si       3.39663997       4.19661386       2.11324182
Si       3.19507461      -0.79670417      -0.00000000
Si      -0.71810867       2.57948132       8.24816977
14
Lattice="6.388724568779332 -1.5935519053463014 -4.8771618630748115e-14 -1.4359920923843692 5.15904244216458 2.705100993476645e-14 1.1216673797465285e-13 -5.529363768819852e-14 16.499671304382773" Properties=species:S:1:pos:R:3 unique_starting_index=0 config_type=initial n_minim_iter=14 stress="2.508164115464232e-05 3.549560650690506e-05 1.378972423367113e-15 3.549560650690506e-05 -0.00020320947422863573 -2.800844382830375e-16 1.378972423367113e-15 -2.800844382830375e-16 0.0001346577420232624" pbc="T T T"
Si       3.19613889      -0.80035318      13.66489892
Si      -0.71977265       2.58309845       5.41506326
Si       1.75659358       4.36584372       2.83477239
Si       5.67250513       0.98239208      11.08460804
Si       4.02926998       1.15488298       6.13857751
Si       4.83582083      -0.96568962      14.38841317
Si       0.92346250       2.41060755      10.36109379
Si       0.11691165       4.53118016       2.11125814
Si       0.92060047       2.41255861       6.13699310
Si       1.55576577      -0.62981335      14.38682876
Si       4.03213200       1.15293192      10.36267820
Si       3.39696671       4.19530388       2.11284255
Si       3.19436228      -0.79677595      -0.00000000
Si      -0.71799605       2.57952122       8.24983565
14
Lattice="6.388742297057777 -1.5958920056346486 -4.8779581285169356e-14 -1.437474383973684 5.160751666051642 2.7066814674983956e-14 1.1217164820726633e-13 -5.529605823307658e-14 16.500393597155238" Properties=species:S:1:pos:R:3 unique_starting_index=0 config_type=initial n_minim_iter=15 stress="7.657008161202915e-05 -3.323402019295919e-05 4.418031677481186e-16 -3.323402019295919e-05 2.9795595679000536e-05 -1.2166236436280868e-16 4.418031677481186e-16 -1.2166236436280868e-16 6.699953201030223e-05" pbc="T T T"
Si       3.19445183      -0.79922155      13.66536231
Si      -0.71881787       2.58165138       5.41516551
Si       1.75681609       4.36408121       2.83503129
Si       5.67008578       0.98320828      11.08522809
Si       4.03030521       1.15481558       6.13875074
Si       4.83407104      -0.96827776      14.38894754
Si       0.92096270       2.41004408      10.36164286
Si       0.11719687       4.53313742       2.11144606
Si       0.92074553       2.41010052       6.13829600
Si       1.55488843      -0.62767069      14.38849279
Si       4.03052238       1.15475914      10.36209760
Si       3.39637949       4.19253035       2.11190080
Si       3.19437115      -0.79794600      -0.00000000
Si      -0.71873719       2.58037583       8.25019680
14
Lattice="6.388633889354088 -1.5953533564506623 -4.877703919747919e-14 -1.4370722771491422 5.160504924837043 2.706325422647167e-14 1.1216299117223842e-13 -5.5291790667067884e-14 16.499120151613273" Properties=species:S:1:pos:R:3 unique_starting_index=0 config_type=initial n_minim_iter=16 stress="-3.350185120050934e-05 1.5073631111966874e-05 7.455671732246501e-16 1.5073631111966874e-05 1.1974625230620372e-06 -1.8531257378651857e-16 7.455671732246501e-16 -1.8531257378651857e-16 -9.72931601822994e-06" pbc="T T T"
Si       3.19411745      -0.79789935      13.66406237
Si      -0.71833664       2.58047514       5.41450230
Si       1.75744416       4.36305092       2.83505778
Si       5.66989826       0.98467643      11.08461785
Si       4.03061264       1.15451973       6.13773447
Si       4.83380205      -0.96729731      14.38729454
Si       0.92094897       2.41063184      10.36138568
Si       0.11775956       4.53244887       2.11182561
Si       0.92116968       2.41012042       6.13779304
Si       1.55461112      -0.62754464      14.38735312
Si       4.03039193       1.15503115      10.36132711
Si       3.39695049       4.19269620       2.11176703
Si       3.19431694      -0.79767668      -0.00000000
Si      -0.71853614       2.58025246       8.24956008
