22
Lattice="7.998607273106569 0.4785354327243623 -0.32639859407399435 -1.4385813490166448 11.898280762966847 -1.6920951993201465 -4.322866842659948 -5.011436610617461 8.95836753963406" Properties=species:S:1:pos:R:3 unique_starting_index=18 config_type=initial n_minim_iter=1 energy=-3641.0726305525063 free_energy=-3641.0726305525063 pbc="T T T"
Si       2.45522243      10.37232612       0.71709112
Si       1.79052412       0.54373073       6.49233242
Si      -3.46347275      -4.44432579       7.72498602
Si       1.77541763      -1.10692900       7.00811370
Si      -5.15224863      -0.49320050       8.21084530
Si       6.03503325       5.17394011       0.33058538
Si       4.01738733      -0.03782948       1.24915178
Si       0.31202604       1.27980062       7.24794450
Si       0.91750924      -1.11857904       8.54898773
Si      -1.16002985       2.49664250       5.22086258
Si       3.59451067       0.99161781       2.95016389
Si      -1.81599580       5.28182938       3.37847129
Si      -3.78514469      -2.07581091       4.99023271
Si       1.01997146      10.02699100      -0.62715616
Si       5.73975582       4.12374112       2.81414458
Si       2.34942626       7.95296136      -2.08955728
Si      -0.19444848      -1.50746016       2.70856657
Si       4.63300517      -2.88216873       5.89998663
Si       2.32209642       3.03557130       3.04187688
Si      -0.49031035       3.76963281       6.27395873
Si      -0.54373324       4.15833536       2.90797869
Si       0.16218106      -0.35103767       6.55233450
22
Lattice="7.9685988347179775 0.5423855772990918 -0.35917929792114933 -1.3241396822450981 11.794066756909908 -1.6701611115646555 -4.383907674071677 -4.9993502048563325 8.962847330377409" Properties=species:S:1:pos:R:3 unique_starting_index=18 config_type=initial n_minim_iter=2 stress="-0.01984589695086166 -0.010018063914873521 -0.004934157923813641 -0.010018063914873521 -0.012685870604649508 0.01616772202382498 -0.004934157923813641 0.01616772202382498 -0.056521306971991855" pbc="T T T"
Si       2.52863419      10.31588111       0.71862852
Si       1.75948581       0.56404736       6.47965377
Si      -3.51840572      -4.43083678       7.72804009
Si       1.72795546      -1.07423629       6.99355264
Si      -5.16821135      -0.52301710       8.22610529
Si       6.04848480       5.18753049       0.30771606
Si       3.99394330      -0.00172155       1.23149065
Si       0.29183247       1.28021610       7.24263865
Si       0.86669941      -1.09222768       8.53583671
Si      -1.15438289       2.47444712       5.22571083
Si       3.57468120       1.01749224       2.93299259
Si      -1.77716137       5.23155898       3.38990027
Si      -3.80696039      -2.08574300       4.99859146
Si       1.10342855       9.95910131      -0.61821274
Si       5.73766157       4.14392156       2.79405001
Si       2.41684195       7.90970454      -2.08904020
Si      -0.21775351      -1.49484194       2.70476974
Si       4.56348865      -2.81417108       5.87219279
Si       2.32440125       3.03617847       3.03325842
Si      -0.48216189       3.74427387       6.27526750
Si      -0.51769301       4.12474348       2.91348990
Si       0.13133746      -0.33892716       6.54600120
22
Lattice="7.985519132623272 0.6072443205937511 -0.37928980260164274 -1.2265971374904503 11.760716291802344 -1.722704451958312 -4.447791794114826 -5.049041552656412 9.09634640402376" Properties=species:S:1:pos:R:3 unique_starting_index=18 config_type=initial n_minim_iter=3 stress="-0.006375575490158254 0.003342912498614927 -0.0005838176503299304 0.003342912498614927 -0.0053434703963683595 0.004034849115321575 -0.0005838176503299304 0.004034849115321575 0.02704716781381451" pbc="T T T"
Si       2.61396031      10.31111571       0.69320833
Si       1.75398741       0.56138163       6.55419430
Si      -3.57422666      -4.47160873       7.84398103
Si       1.70812738      -1.07671561       7.08089611
Si      -5.19519358      -0.58730730       8.34169308
Si       6.09503302       5.22591509       0.27967094
Si       3.99744895       0.02800364       1.24031510
Si       0.29106894       1.25615389       7.32953820
Si       0.84089823      -1.10813526       8.64226476
Si      -1.14336713       2.44543145       5.28770589
Si       3.58312524       1.03454051       2.95860372
Si      -1.74298951       5.19744242       3.42078129
Si      -3.83884605      -2.12513288       5.07146654
Si       1.18805061       9.94693469      -0.65558501
Si       5.77522548       4.17177563       2.80956549
Si       2.49144306       7.91685236      -2.14464396
Si      -0.23521792      -1.50175239       2.74198783
Si       4.53713290      -2.78784333       5.94570991
Si       2.34645389       3.03986071       3.05815472
Si      -0.46365875       3.71428142       6.34270322
Si      -0.48850317       4.10034120       2.94049349
Si       0.11716104      -0.35524629       6.62846463
22
Lattice="8.074243992169555 0.6631278919487177 -0.3870095769387911 -1.165311702800601 11.823954477571048 -1.8142589233389688 -4.532824626188218 -5.181941588511057 9.062699505006979" Properties=species:S:1:pos:R:3 unique_starting_index=18 config_type=initial n_minim_iter=4 stress="0.0031680567112051783 0.006301830901157088 0.0017660536834410488 0.006301830901157088 -0.007961032612466588 -0.022333341563005298 0.0017660536834410488 -0.022333341563005298 -0.009043799984777666" pbc="T T T"
Si       2.69849469      10.37242271       0.58985650
Si       1.76851009       0.52626651       6.48444267
Si      -3.64564808      -4.58603281       7.81839469
Si       1.71412418      -1.13208080       7.03079627
Si      -5.26055814      -0.69806910       8.28697943
Si       6.17404350       5.28632890       0.20614960
Si       4.03835367       0.04363964       1.22917962
Si       0.30519288       1.18575400       7.25615496
Si       0.82953276      -1.18960653       8.56871264
Si      -1.13571346       2.40891761       5.22717586
Si       3.62610885       1.02868939       2.91354022
Si      -1.73170453       5.18998810       3.34217771
Si      -3.89609753      -2.20005828       5.03918681
Si       1.26461964      10.00789717      -0.73689644
Si       5.86321697       4.19800264       2.74897926
Si       2.57891348       7.99096570      -2.21271199
Si      -0.24875116      -1.53907672       2.72642425
Si       4.56646989      -2.83019639       5.91692047
Si       2.38563154       3.04301767       3.00143649
Si      -0.45229806       3.67530600       6.24787128
Si      -0.46629167       4.07983725       2.88058028
Si       0.11314113      -0.41303319       6.57267423
22
Lattice="8.123226289449258 0.6737773359366921 -0.40162658408383634 -1.1553050352429928 11.919046384701431 -1.677720872061473 -4.587117423821729 -5.136582704293221 9.012137252489172" Properties=species:S:1:pos:R:3 unique_starting_index=18 config_type=initial n_minim_iter=5 stress="0.01416616994713684 0.009918783865279055 -0.013075184253822132 0.009918783865279055 0.018828792053409715 0.014552675163706874 -0.013075184253822132 0.014552675163706874 -0.012869247688227886" pbc="T T T"
Si       2.71417559      10.48890337       0.69697357
Si       1.75866502       0.61770300       6.47645226
Si      -3.69091580      -4.54892825       7.77557661
Si       1.70581916      -1.06209209       7.01223537
Si      -5.31406127      -0.61951522       8.30456757
Si       6.19374404       5.34733946       0.24121700
Si       4.05779649       0.06326532       1.22312505
Si       0.29586940       1.26945560       7.26523765
Si       0.80109117      -1.11215681       8.54275743
Si      -1.13975954       2.49735630       5.26532136
Si       3.64211216       1.06616007       2.90549049
Si      -1.74472823       5.28984022       3.40228165
Si      -3.93248586      -2.16481777       5.01262674
Si       1.28654654      10.10112867      -0.62101814
Si       5.90201458       4.27242686       2.78646521
Si       2.62391224       8.05125401      -2.14571242
Si      -0.25845830      -1.53058770       2.70133530
Si       4.57949825      -2.79259274       5.87283581
Si       2.39233645       3.11181426       3.02832220
Si      -0.46992046       3.78309577       6.28456936
Si      -0.47050000       4.13650535       2.92981168
Si       0.10249060      -0.33897802       6.56584116
22
Lattice="8.049537264508059 0.625551611758475 -0.3486529719551559 -1.2182652736713424 11.82038364961118 -1.657426334596424 -4.4637985947530465 -5.043683568236402 9.000033406588722" Properties=species:S:1:pos:R:3 unique_starting_index=18 config_type=initial n_minim_iter=6 stress="-0.017731282469393227 -0.0006229876873394192 0.005808518793175847 -0.0006229876873394192 -0.008362487563774319 0.01132416110149636 0.005808518793175847 0.01132416110149636 -0.009388675221599712" pbc="T T T"
Si       2.62483101      10.39759500       0.74371363
Si       1.77278771       0.64177959       6.50299386
Si      -3.58630724      -4.47108739       7.77238782
Si       1.74433596      -1.03845104       7.04933395
Si      -5.21799373      -0.56694200       8.32370516
Si       6.08307409       5.26025147       0.29915672
Si       4.02950338       0.04780251       1.26327331
Si       0.33575794       1.27111531       7.28808180
Si       0.84077408      -1.09074398       8.56962541
Si      -1.08370751       2.51071510       5.30088038
Si       3.62604901       1.03054379       2.92818767
Si      -1.73512554       5.28435797       3.41461578
Si      -3.85396584      -2.10404056       4.98270349
Si       1.22396694      10.01123385      -0.57338385
Si       5.86345699       4.21158612       2.85958576
Si       2.57510191       7.97026708      -2.14152215
Si      -0.23142873      -1.52024506       2.69251060
Si       4.60023911      -2.78292215       5.92083970
Si       2.37117311       3.08800225       3.06467501
Si      -0.45048979       3.77467220       6.31151633
Si      -0.47243410       4.08657890       2.95417905
Si       0.15784895      -0.30645285       6.59094683
22
Lattice="8.167170969804612 0.6579392643371154 -0.43580059057916176 -1.1751845741441158 11.821987249461708 -1.7133114416356827 -4.638394199660627 -5.11386562516962 9.065651439406752" Properties=species:S:1:pos:R:3 unique_starting_index=18 config_type=initial n_minim_iter=7 stress="-0.004571834988560857 -0.0032036435919624777 -0.012704143443584245 -0.0032036435919624777 0.00441345615860074 0.0016749064583015715 -0.012704143443584245 0.0016749064583015715 -0.0039701155659727545" pbc="T T T"
Si       2.66993192      10.40574284       0.65166066
Si       1.72599088       0.62960801       6.46549560
Si      -3.73458342      -4.53368405       7.83601329
Si       1.69573295      -1.07168247       7.03335038
Si      -5.39217948      -0.64309859       8.39654732
Si       6.15848927       5.25933889       0.22997986
Si       4.07048107       0.06012810       1.22806545
Si       0.26013014       1.23017424       7.25479129
Si       0.74128340      -1.15401054       8.55326251
Si      -1.11016148       2.48706485       5.29837818
Si       3.64958098       1.00651622       2.86370202
Si      -1.77468875       5.27448285       3.38715751
Si      -3.96387555      -2.14136379       5.01223930
Si       1.28785069      10.01954239      -0.62934767
Si       5.94403157       4.21272343       2.78351936
Si       2.68909585       7.99692322      -2.23990102
Si      -0.26997101      -1.55190629       2.68598003
Si       4.59897250      -2.80601261       5.88454600
Si       2.37615945       3.08412253       3.01872188
Si      -0.50916629       3.74020290       6.28195031
Si      -0.50554416       4.03720503       2.93057168
Si       0.10214165      -0.33367440       6.58479464
22
Lattice="8.318131870893273 0.7507115432672018 -0.34662188133015714 -1.077720436485975 11.749451975847757 -1.6854178086165832 -4.681960690956169 -5.116564089081594 8.970210005131307" Properties=species:S:1:pos:R:3 unique_starting_index=18 config_type=initial n_minim_iter=8 stress="0.007962482618509566 0.010099756060435743 0.007294068824042157 0.010099756060435743 -0.004381622824306238 0.0015374567369718056 0.007294068824042157 0.0015374567369718056 -0.01314968679792013" pbc="T T T"
Si       2.82790499      10.39616437       0.70713939
Si       1.83230660       0.68225637       6.46467958
Si      -3.76962241      -4.53448545       7.76468025
Si       1.79453790      -1.01842949       7.02839678
Si      -5.42696160      -0.68165601       8.33153506
Si       6.32074744       5.29114296       0.32765699
Si       4.15807524       0.11632507       1.27184332
Si       0.35836481       1.24989065       7.23634633
Si       0.82029538      -1.12893867       8.52132644
Si      -1.00562239       2.49559401       5.26325319
Si       3.75616873       1.03827245       2.88162252
Si      -1.70296350       5.25045845       3.36262782
Si      -4.00096016      -2.15916886       4.93553550
Si       1.42304756       9.99085406      -0.57030417
Si       6.14360203       4.27607519       2.86085951
Si       2.82412773       7.99392373      -2.20080875
Si      -0.26670729      -1.55486290       2.65395526
Si       4.71999389      -2.72045452       5.90331474
Si       2.48299902       3.11539126       3.04238270
Si      -0.40060761       3.74957976       6.26054891
Si      -0.45378172       3.99841951       2.92739581
Si       0.18746466      -0.29589549       6.56307019
22
Lattice="8.394564853049207 0.7775650360804692 -0.36803050220594163 -1.0437498325118595 11.70737678073528 -1.6676411103186277 -4.763606830363352 -5.103284347347491 9.001061541361773" Properties=species:S:1:pos:R:3 unique_starting_index=18 config_type=initial n_minim_iter=9 stress="0.0008198612763166927 0.004088293607454839 -0.0001201761240622222 0.004088293607454839 -0.017974648806601434 -0.010058598284177192 -0.0001201761240622222 -0.010058598284177192 -0.013497587764375377" pbc="T T T"
Si       2.85046191      10.37704156       0.71957802
Si       1.82750322       0.71600997       6.49221348
Si      -3.83971938      -4.52620014       7.80690304
Si       1.79622781      -0.98592852       7.05388199
Si      -5.54960669      -0.69662177       8.40502190
Si       6.36895840       5.26477926       0.33445846
Si       4.19325718       0.13923225       1.26701870
Si       0.35176039       1.25512302       7.27779064
Si       0.78000938      -1.13483524       8.53889668
Si      -0.94723262       2.51985921       5.25246718
Si       3.77587528       1.02762716       2.86457344
Si      -1.70004813       5.24288075       3.37268493
Si      -4.04747423      -2.15436496       4.93993702
Si       1.47320778       9.97098292      -0.53115600
Si       6.22388776       4.29811579       2.88705259
Si       2.90646885       7.99285256      -2.23411931
Si      -0.28953555      -1.57572344       2.63284995
Si       4.74656948      -2.68419592       5.90110458
Si       2.49935313       3.13305939       3.04978745
Si      -0.39788487       3.77256762       6.27708349
Si      -0.49292749       3.94762834       2.94521566
Si       0.20278608      -0.25807887       6.58302814
22
Lattice="8.42132425405436 0.8539831581521397 -0.3366740553642778 -0.9460303056994973 11.802396784739516 -1.6388421100528447 -4.788175170369542 -5.163377232830739 8.97799235018822" Properties=species:S:1:pos:R:3 unique_starting_index=18 config_type=initial n_minim_iter=10 stress="-0.007340169877081596 0.009716846541936077 0.002362331918831171 0.009716846541936077 0.017076427515626103 -0.00806852710029112 0.002362331918831171 -0.00806852710029112 -0.007340971428219809" pbc="T T T"
Si       2.92378010      10.49821120       0.76170044
Si       1.85650541       0.77462364       6.52201366
Si      -3.86233686      -4.57972030       7.80202482
Si       1.82479957      -0.95175277       7.07484138
Si      -5.58814233      -0.73517742       8.42304761
Si       6.41116169       5.33449218       0.37570892
Si       4.21388762       0.18381160       1.27900545
Si       0.39482001       1.31851214       7.30916343
Si       0.79136993      -1.13357692       8.54655877
Si      -0.82695026       2.57212210       5.24082638
Si       3.79241280       1.05575329       2.87212489
Si      -1.63523390       5.28811327       3.37343192
Si      -4.05094804      -2.18883350       4.90899778
Si       1.56513131      10.08033581      -0.47123410
Si       6.29686486       4.40934349       2.94705501
Si       3.00447664       8.09922100      -2.23860886
Si      -0.30428668      -1.61185425       2.60557696
Si       4.76447254      -2.64898478       5.91443172
Si       2.54138789       3.20492483       3.06874013
Si      -0.33053589       3.84663991       6.28400930
Si      -0.48490659       3.95135746       2.95680619
Si       0.25226232      -0.23333964       6.57888302
22
Lattice="8.643316422841101 0.8330743379305422 -0.33438699027243896 -1.0008856129791122 11.578430762969917 -1.558998009984333 -4.9022192843357795 -5.003325074299549 8.974216410122128" Properties=species:S:1:pos:R:3 unique_starting_index=18 config_type=initial n_minim_iter=11 stress="0.010518030548142479 0.0035065201586094203 0.0006088663042098482 0.0035065201586094203 -0.0014232104354880981 0.007949246968801126 0.0006088663042098482 0.007949246968801126 -0.0006763012203385849" pbc="T T T"
Si       2.95003018      10.31276821       0.84206296
Si       1.89638444       0.81838015       6.56948435
Si      -3.95331449      -4.43981644       7.80859106
Si       1.88233322      -0.88069752       7.09954720
Si      -5.78006634      -0.66735453       8.47507640
Si       6.54665256       5.21882586       0.41520364
Si       4.33158881       0.18787868       1.27352687
Si       0.40621561       1.36632635       7.35943511
Si       0.80930257      -1.06578384       8.57056438
Si      -0.76982359       2.57714750       5.26789451
Si       3.87454049       1.04037620       2.88538021
Si      -1.68620722       5.20813046       3.41459827
Si      -4.14569449      -2.10954662       4.90027596
Si       1.57499105       9.90078828      -0.37656828
Si       6.44682002       4.36203834       3.00627953
Si       3.08741365       7.94980413      -2.22703432
Si      -0.31908430      -1.58844365       2.58242410
Si       4.90530553      -2.55691753       5.91566488
Si       2.60058753       3.18008676       3.09967285
Si      -0.33760241       3.84523325       6.32801761
Si      -0.53995646       3.87009774       2.99102533
Si       0.28442332      -0.17011930       6.59208301
22
Lattice="8.768758477543175 0.8823752084404188 -0.31501464278331326 -0.9511856720801517 11.530102289419222 -1.5557924844694138 -4.978848972416238 -5.007501921427103 8.976861420529458" Properties=species:S:1:pos:R:3 unique_starting_index=18 config_type=initial n_minim_iter=12 stress="0.006138457148997306 0.000875348156455177 0.004734416209093527 0.000875348156455177 0.010128499818967159 0.0018425712473330747 0.004734416209093527 0.0018425712473330747 0.014198299868908255" pbc="T T T"
Si       3.01799340      10.29062479       0.86468216
Si       1.92067660       0.84996430       6.62297891
Si      -4.01507446      -4.43980780       7.82585958
Si       1.91544707      -0.87175742       7.12057854
Si      -5.91401634      -0.70226494       8.51420302
Si       6.65332208       5.23527514       0.45860009
Si       4.41017275       0.21238908       1.26360876
Si       0.44971839       1.37506993       7.39179947
Si       0.83294717      -1.07535412       8.58924250
Si      -0.62204773       2.58077602       5.27029616
Si       3.91149470       1.04446363       2.90419210
Si      -1.66075731       5.15400331       3.40888327
Si      -4.19407058      -2.11935258       4.88379282
Si       1.63471868       9.88360483      -0.32952027
Si       6.54216311       4.40346358       3.05937643
Si       3.21971733       7.96046561      -2.29203580
Si      -0.34557036      -1.61875095       2.55429087
Si       4.98146744      -2.50619609       5.94129830
Si       2.67279983       3.20494394       3.10494639
Si      -0.29213735       3.87770618       6.33237706
Si      -0.57663656       3.81448196       2.97217629
Si       0.35157798      -0.12953110       6.59846074
22
Lattice="8.998119107552615 0.9126308602017468 -0.32271450084927283 -0.9369069530346807 11.414609031173754 -1.5071493765537023 -5.134690009993899 -4.949075359070991 8.957087516834465" Properties=species:S:1:pos:R:3 unique_starting_index=18 config_type=initial n_minim_iter=13 stress="-0.006313420741857716 -0.002454265596665124 0.014332629760823048 -0.002454265596665124 0.001014450310760087 0.00013706411157435344 0.014332629760823048 0.00013706411157435344 -0.00022834161990536707" pbc="T T T"
Si       3.10140233      10.21382796       0.90535409
Si       1.94637489       0.90153844       6.65988474
Si      -4.13932026      -4.38106428       7.81891899
Si       1.93581109      -0.85258938       7.12659894
Si      -6.15210884      -0.70310175       8.54733189
Si       6.83189305       5.21660121       0.47369105
Si       4.53656327       0.22714326       1.24304875
Si       0.45574366       1.41003582       7.39366051
Si       0.86708539      -1.04607579       8.58804211
Si      -0.54442385       2.58039196       5.23701945
Si       3.98042863       1.04813443       2.91136884
Si      -1.67678297       5.06862819       3.44674280
Si      -4.30539592      -2.09868967       4.87071658
Si       1.67208182       9.80906081      -0.25365477
Si       6.69690560       4.40902084       3.12738885
Si       3.40726639       7.91243842      -2.36131374
Si      -0.38733193      -1.63265666       2.51499975
Si       5.09522493      -2.42463828       5.93095820
Si       2.78258632       3.22032100       3.09315907
Si      -0.28678351       3.91018764       6.33494691
Si      -0.64343704       3.74723764       2.95256790
Si       0.39173153      -0.05724532       6.58881063
22
Lattice="9.17462765243901 0.9421963950795542 -0.3424011517315662 -0.9143452946011589 11.322478994963642 -1.4912009721394155 -5.2718549023761385 -4.921460543717151 8.968225910565959" Properties=species:S:1:pos:R:3 unique_starting_index=18 config_type=initial n_minim_iter=14 stress="0.0057357871939230755 -0.013299610424219923 -0.003361724023721938 -0.013299610424219923 -0.0159583933614603 0.0015304686588915274 -0.003361724023721938 0.0015304686588915274 0.01629363428456896" pbc="T T T"
Si       3.17634663      10.14975235       0.91227630
Si       1.95517834       0.92454861       6.68822187
Si      -4.25054218      -4.35024240       7.83422439
Si       1.93590829      -0.84241593       7.13744133
Si      -6.32241840      -0.72127086       8.56973429
Si       6.94953389       5.20342512       0.48143597
Si       4.62941812       0.23973308       1.22724126
Si       0.46361874       1.42254792       7.41142895
Si       0.88413978      -1.03057253       8.60028446
Si      -0.51406029       2.56572257       5.21692688
Si       4.03287720       1.05077785       2.91314733
Si      -1.68772981       4.99430694       3.47447959
Si      -4.40230919      -2.09370842       4.87993537
Si       1.71159608       9.74745746      -0.22118524
Si       6.81848199       4.40936008       3.15270552
Si       3.55407375       7.87589098      -2.42752885
Si      -0.42293994      -1.64140512       2.49605344
Si       5.16812751      -2.36803768       5.92825659
Si       2.86875825       3.22464411       3.07800786
Si      -0.29344770       3.91629672       6.33696709
Si      -0.69110566       3.69675483       2.93854497
Si       0.40682091      -0.02569484       6.58286769
22
Lattice="9.360536995433732 0.993417820426117 -0.3502128902136702 -0.8654993398195661 11.26633148767139 -1.4648171394906417 -5.413989950500975 -4.914222525084173 8.958777046129935" Properties=species:S:1:pos:R:3 unique_starting_index=18 config_type=initial n_minim_iter=15 stress="0.01108024223197536 -0.004160191571533371 -0.011763760013039639 -0.004160191571533371 0.005336014500815735 0.006879875341945058 -0.011763760013039639 0.006879875341945058 0.013051717956111852" pbc="T T T"
Si       3.27914517      10.12748919       0.92460886
Si       1.97176162       0.95366231       6.71050482
Si      -4.36589390      -4.33568800       7.83252966
Si       1.94708970      -0.81608004       7.13898752
Si      -6.49971819      -0.75250515       8.57649942
Si       7.09023390       5.22442390       0.49800345
Si       4.72540272       0.26067784       1.21991464
Si       0.48649266       1.44609264       7.41721074
Si       0.92015268      -1.00226269       8.61583771
Si      -0.47758055       2.55448701       5.20156134
Si       4.09515049       1.06656559       2.91806746
Si      -1.65906955       4.95520141       3.50787968
Si      -4.50319925      -2.10075206       4.88024111
Si       1.77913626       9.72494625      -0.17596604
Si       6.94841738       4.41631716       3.17653188
Si       3.71911566       7.87406650      -2.48176703
Si      -0.46214234      -1.65581712       2.47226526
Si       5.24575039      -2.30126078       5.92398138
Si       2.98149704       3.25082619       3.06148246
Si      -0.28433403       3.93822515       6.33094749
Si      -0.72833501       3.66044673       2.92444218
Si       0.42970079       0.01726703       6.56330045
22
Lattice="9.66585163480033 1.0730027140670386 -0.36680685424425147 -0.7914827015147831 11.168738678998555 -1.435569542871473 -5.648436719822856 -4.90861817318391 8.942717712782523" Properties=species:S:1:pos:R:3 unique_starting_index=18 config_type=initial n_minim_iter=16 stress="-0.013030896949348928 0.020113973689960887 -0.014705359993274167 0.020113973689960887 -0.026546400333251497 0.007874875052436376 -0.014705359993274167 0.007874875052436376 -0.014260738687819954" pbc="T T T"
Si       3.43784193      10.07764597       0.92442502
Si       1.99265534       0.99213033       6.72884218
Si      -4.55666865      -4.31752711       7.83019937
Si       1.95939897      -0.77977137       7.13203066
Si      -6.79870319      -0.81377262       8.59100893
Si       7.33660483       5.26751498       0.51121550
Si       4.87771762       0.29251149       1.21077811
Si       0.51980952       1.47561337       7.41586151
Si       0.97884808      -0.96986539       8.64160056
Si      -0.44001855       2.52208642       5.18470941
Si       4.19948979       1.08555416       2.91724015
Si      -1.63108666       4.85906767       3.55183573
Si      -4.67434748      -2.11335576       4.87962349
Si       1.89241975       9.68153306      -0.11683851
Si       7.19166953       4.43642482       3.19252864
Si       3.98261251       7.86720740      -2.57104076
Si      -0.52620099      -1.67849968       2.43498668
Si       5.37134663      -2.20136669       5.91409227
Si       3.17578903       3.28739293       3.02346227
Si      -0.27858682       3.95594613       6.30068393
Si      -0.79386672       3.59752096       2.90141741
Si       0.45454153       0.07146278       6.51365017
22
Lattice="9.990975271352184 1.1662831747704296 -0.3788343516899492 -0.7028697918842168 11.090691019568299 -1.4082431052647362 -5.896267132195055 -4.920514434803068 8.92032523011933" Properties=species:S:1:pos:R:3 unique_starting_index=18 config_type=initial n_minim_iter=17 stress="-0.032969026109429825 0.01816754708118138 -0.0253992927633799 0.01816754708118138 -0.02851435403523946 0.026159466621106606 -0.0253992927633799 0.026159466621106606 -0.03487881602292" pbc="T T T"
Si       3.61623608      10.04706301       0.92190064
Si       2.01519929       1.03268638       6.74595826
Si      -4.75880975      -4.31306064       7.82336192
Si       1.96897561      -0.74216059       7.12260831
Si      -7.11301979      -0.88790956       8.59802833
Si       7.60494196       5.32906848       0.52753611
Si       5.03960869       0.33016412       1.20351422
Si       0.56134749       1.50658872       7.40956592
Si       1.05544039      -0.93531092       8.66912723
Si      -0.39586108       2.49162011       5.16416151
Si       4.31144610       1.11052965       2.91783199
Si      -1.61476043       4.78010390       3.60533881
Si      -4.85681193      -2.13623229       4.87646324
Si       2.02288723       9.65778286      -0.05809564
Si       7.46264503       4.47633533       3.20473331
Si       4.27064700       7.88051119      -2.65795806
Si      -0.59615543      -1.70567796       2.39613394
Si       5.50463999      -2.09832724       5.90552554
Si       3.39697387       3.33609137       2.98191369
Si      -0.26411248       3.97611659       6.26218210
Si      -0.84353667       3.51934561       2.86502474
Si       0.48853522       0.12837093       6.45783186
22
Lattice="10.23289551736385 1.244353379254307 -0.3801674692380903 -0.6280052998228732 11.058779467089215 -1.406999711392281 -6.076144521328839 -4.958573657575223 8.895797453940174" Properties=species:S:1:pos:R:3 unique_starting_index=18 config_type=initial n_minim_iter=18 stress="-0.03525928472138148 0.007936853337637077 -0.03319739593455276 0.007936853337637077 -0.04302923562818511 0.030476060997282173 -0.03319739593455276 0.030476060997282173 -0.046668950058135435" pbc="T T T"
Si       3.76002372      10.04588556       0.90204187
Si       2.05545252       1.04988666       6.73969406
Si      -4.90475138      -4.33475216       7.80940681
Si       1.97939861      -0.72626396       7.10687909
Si      -7.33133306      -0.96284748       8.58542436
Si       7.80702974       5.39502655       0.53344178
Si       5.15946856       0.35809356       1.20058626
Si       0.57633228       1.51694459       7.39817828
Si       1.12107710      -0.92337619       8.67930555
Si      -0.36448475       2.46655846       5.14065068
Si       4.39802835       1.13135930       2.91850172
Si      -1.59409317       4.72777704       3.62736247
Si      -4.99062300      -2.16902873       4.86840193
Si       2.13140039       9.66132377      -0.03327955
Si       7.67731800       4.51452959       3.20019290
Si       4.49123210       7.91352656      -2.71936092
Si      -0.64679117      -1.73077569       2.36973885
Si       5.60620278      -2.03501747       5.90153239
Si       3.57270119       3.37694463       2.94497536
Si      -0.24697788       3.98000930       6.21727659