22
Lattice="11.954026144924079 1.4727194093357805 -0.30010460428864405 -0.3627434534678425 11.631852619371545 -0.7998693224560065 -7.295674457415488 -4.8883841624395306 8.775919614259516" Properties=species:S:1:pos:R:3 unique_starting_index=18 config_type=initial n_minim_iter=1 energy=-3739.0903556708113 free_energy=-3739.0903556708113 pbc="T T T"
Si       4.43255449      10.46013252       1.21657383
Si       1.73348052       1.89004833       6.81574025
Si      -5.03336888      -4.03004104       6.97604234
Si       3.03409178       0.39460073       8.64488341
Si      -9.45909930       0.28543038       9.77836715
Si       8.32671074       6.58462261       1.55309339
Si       6.25905784       0.01029929       1.93568517
Si       0.44070822       2.24997119       7.77045900
Si       1.57508524       0.38266437       9.45793251
Si      -0.30418345       2.01982186       4.91064494
Si       5.31353800       1.19793730       3.01034495
Si      -1.79285321       4.54257926       3.66730158
Si      -6.04532571      -2.58256791       4.71406247
Si       2.59430775      10.82382024       1.36340807
Si       9.53165080       4.49876864       3.13546775
Si       5.99022350       7.82621808      -2.91532188
Si      -0.59229614      -1.51629846       1.02490515
Si       5.50320550      -1.40537141       6.25106780
Si       4.46446045       3.68212484       2.76907483
Si       0.13901968       3.55947483       5.31830013
Si      -0.96982310       3.44268015       2.74020383
Si       0.53732108       0.74531848       7.06199889
22
Lattice="11.949295445720228 1.472396500686652 -0.3030164210985665 -0.3613636824351538 11.620523272154376 -0.8014694572936159 -7.295163014159042 -4.8858323052406245 8.773699398631853" Properties=species:S:1:pos:R:3 unique_starting_index=18 config_type=initial n_minim_iter=2 stress="-0.006386902587367859 0.0014637314156620083 -0.0009672343662109992 0.0014637314156620083 -0.007795769849675784 0.0003874671844583385 -0.0009672343662109992 0.0003874671844583385 -0.009974283987028957" pbc="T T T"
Si       4.43131770      10.45011048       1.21294965
Si       1.73159171       1.88689650       6.81098488
Si      -5.03325139      -4.02774713       6.97410613
Si       3.03097174       0.39291645       8.63891478
Si      -9.45767331       0.28274880       9.77555496
Si       8.32380453       6.57892810       1.54883231
Si       6.25599191       0.01038520       1.93312672
Si       0.43842318       2.24640067       7.76534265
Si       1.57226560       0.38044505       9.45243445
Si      -0.30499763       2.01761394       4.90785792
Si       5.31060145       1.19672024       3.00730961
Si      -1.79212280       4.53720644       3.66475805
Si      -6.04417926      -2.58144921       4.71347823
Si       2.59403842      10.81304685       1.36005833
Si       9.52738352       4.49417472       3.13052946
Si       5.98948261       7.81922900      -2.91647107
Si      -0.59242230      -1.51505113       1.02468515
Si       5.49927626      -1.40463490       6.24652811
Si       4.46222818       3.67834273       2.76583189
Si       0.13796073       3.55447455       5.31475131
Si      -0.97021208       3.43908038       2.73893276
Si       0.53536617       0.74366538       7.05783543
22
Lattice="11.95666839746004 1.4703085242327185 -0.30737099933885303 -0.36316927833830154 11.61791733538528 -0.8079456107759386 -7.301408656237808 -4.887669839257032 8.788469290428356" Properties=species:S:1:pos:R:3 unique_starting_index=18 config_type=initial n_minim_iter=3 stress="0.00385597719076371 -0.0006317211640386743 0.002546362105081432 -0.0006317211640386743 -0.007794465198936879 -0.0067124080961619 0.002546362105081432 -0.0067124080961619 0.006369473801542108" pbc="T T T"
Si       4.43193097      10.44641889       1.20809720
Si       1.73152697       1.88216754       6.81676501
Si      -5.03755221      -4.02910176       6.98564968
Si       3.03091559       0.38815025       8.64655459
Si      -9.46696463       0.28046091       9.79103018
Si       8.32859130       6.57645658       1.54443034
Si       6.25930646       0.00808068       1.93360671
Si       0.43451848       2.24231807       7.77231220
Si       1.57061821       0.37429956       9.46343094
Si      -0.30669472       2.01653339       4.91320929
Si       5.31240183       1.19427261       3.00916133
Si      -1.79351633       4.53470600       3.66724032
Si      -6.04890981      -2.58218884       4.72240021
Si       2.59416349      10.80875533       1.35567386
Si       9.53162295       4.48820394       3.12893641
Si       5.99372765       7.81651604      -2.92485478
Si      -0.59281904      -1.51508330       1.02652412
Si       5.50099741      -1.40812635       6.25286787
Si       4.46344795       3.67516335       2.76610757
Si       0.13605381       3.54961470       5.31961912
Si      -0.97340610       3.43811081       2.74276667
Si       0.53309276       0.74079798       7.06552843
22
Lattice="11.954158696790198 1.4715740572980838 -0.31238891484638365 -0.3625620462518078 11.62801999680467 -0.7996394885303076 -7.304304600584932 -4.886266097155046 8.786344696719773" Properties=species:S:1:pos:R:3 unique_starting_index=18 config_type=initial n_minim_iter=4 stress="0.0029796334073796497 0.0023415270756664314 -0.005548028781924969 0.0023415270756664314 0.001603089982337678 0.0023529220478352227 -0.005548028781924969 0.0023529220478352227 -0.0022026242668557092" pbc="T T T"
Si       4.43024720      10.45710971       1.21256899
Si       1.72805930       1.88812778       6.81483443
Si      -5.03990523      -4.02796159       6.98342542
Si       3.02600174       0.39445538       8.64175464
Si      -9.47031932       0.28792628       9.79423359
Si       8.32673591       6.58461222       1.54359313
Si       6.25684628       0.00916399       1.92979754
Si       0.42967745       2.24993190       7.77049985
Si       1.56566051       0.38024866       9.46034005
Si      -0.30903652       2.02228440       4.91333305
Si       5.30928017       1.19757330       3.00664531
Si      -1.79411330       4.54164468       3.67030054
Si      -6.05001614      -2.58146969       4.72270779
Si       2.59341199      10.81930851       1.36125994
Si       9.52780816       4.49327249       3.12584577
Si       5.99442694       7.82103906      -2.92133155
Si      -0.59320516      -1.51580369       1.02528801
Si       5.49637650      -1.40510637       6.24711057
Si       4.46086955       3.68031878       2.76553164
Si       0.13354363       3.55611953       5.32084386
Si      -0.97534040       3.44368503       2.74600794
Si       0.52897922       0.74674740       7.06353512
22
Lattice="11.944872467416294 1.467865089787563 -0.30578652331775574 -0.36676238407963047 11.63176612706276 -0.798437422641467 -7.292634882567357 -4.884242587690953 8.781872769813198" Properties=species:S:1:pos:R:3 unique_starting_index=18 config_type=initial n_minim_iter=5 stress="-0.004887298944605573 0.0006166792059975634 0.00172161754158782 0.0006166792059975634 0.0027237007267522317 0.0014103232012758983 0.00172161754158782 0.0014103232012758983 -0.0008582109745071433" pbc="T T T"
Si       4.42392430      10.45928998       1.21620424
Si       1.72965848       1.88867565       6.81611731
Si      -5.03101320      -4.02652122       6.98022105
Si       3.02822699       0.39479965       8.64279445
Si      -9.45881888       0.29266196       9.78995080
Si       8.31996959       6.58475660       1.54819280
Si       6.25329199       0.00695731       1.93313214
Si       0.43268389       2.25149174       7.77004236
Si       1.56994721       0.38066942       9.46139735
Si      -0.30685407       2.02364154       4.91326252
Si       5.30627583       1.19655891       3.00988785
Si      -1.79202214       4.54427303       3.67018832
Si      -6.04225645      -2.57967985       4.71948460
Si       2.58891181      10.82174167       1.36393281
Si       9.52102906       4.49097707       3.13130013
Si       5.98608921       7.82053044      -2.91685034
Si      -0.59168270      -1.51597391       1.02458774
Si       5.49608013      -1.40669820       6.24974601
Si       4.45767132       3.68014881       2.76839376
Si       0.13539898       3.55796470       5.32186506
Si      -0.97486628       3.44579573       2.74671603
Si       0.53180125       0.74809815       7.06379879
22
Lattice="11.958259351248866 1.456205472837322 -0.31163616360463137 -0.37700618022116494 11.622511485132613 -0.7993840761380171 -7.301454383474083 -4.874810093287806 8.783433911118731" Properties=species:S:1:pos:R:3 unique_starting_index=18 config_type=initial n_minim_iter=6 stress="-0.00019670811010259742 -0.0015868334461200402 -0.0010505271545576476 -0.0015868334461200402 -0.0009486936012015073 0.0018339778566890904 -0.0010505271545576476 0.0018339778566890904 -0.0009244556985001232" pbc="T T T"
Si       4.41905585      10.44732140       1.21245924
Si       1.72632716       1.88415361       6.81368581
Si      -5.03656533      -4.01905828       6.98095062
Si       3.02692515       0.39215117       8.63695342
Si      -9.47625281       0.29937980       9.79326508
Si       8.32550913       6.57375600       1.54055297
Si       6.25968663       0.00035446       1.92946078
Si       0.42796162       2.24823985       7.76442267
Si       1.56838796       0.37789044       9.45842831
Si      -0.31109786       2.02089962       4.91075470
Si       5.30892329       1.19078051       3.00708168
Si      -1.79972488       4.54156393       3.67102993
Si      -6.04971491      -2.57293781       4.72239889
Si       2.58322239      10.80931635       1.36093542
Si       9.52655388       4.47671953       3.12525880
Si       5.98773360       7.80725366      -2.91865690
Si      -0.59149995      -1.51434038       1.02405088
Si       5.50036787      -1.41104931       6.24484773
Si       4.45785096       3.67238099       2.76503199
Si       0.13166203       3.55542677       5.32139737
Si      -0.98064386       3.44423164       2.74735800
Si       0.52704659       0.74742482       7.06112390
22
Lattice="11.965518286674357 1.4633843356317113 -0.3139395552973475 -0.3704292270009686 11.623573423891893 -0.8078069608267706 -7.309119832022421 -4.885909774111122 8.784388783340685" Properties=species:S:1:pos:R:3 unique_starting_index=18 config_type=initial n_minim_iter=7 stress="0.001242003950953132 0.0059976693673490615 0.0013644864254386754 0.0059976693673490615 0.0018542259002853245 -0.001621589016450115 0.0013644864254386754 -0.001621589016450115 -0.0035810997777615487" pbc="T T T"
Si       4.42677882      10.45018574       1.20350992
Si       1.72765254       1.87995571       6.80979586
Si      -5.04199789      -4.02688361       6.98156838
Si       3.02689479       0.38905706       8.63167635
Si      -9.48158232       0.28706238       9.79080719
Si       8.33484620       6.57928853       1.53197708
Si       6.26253728       0.00174149       1.92797866
Si       0.42961317       2.24356544       7.75832196
Si       1.56917143       0.37113739       9.45429766
Si      -0.31088499       2.01700779       4.90680951
Si       5.31088240       1.19175622       3.00506623
Si      -1.79888427       4.53749918       3.66806157
Si      -6.05502834      -2.58025412       4.72407268
Si       2.59192479      10.80942087       1.35185263
Si       9.53365924       4.47904114       3.11978241
Si       5.99660967       7.81151278      -2.92420116
Si      -0.59272986      -1.51555785       1.02414219
Si       5.50122867      -1.41270474       6.24226537
Si       4.46136947       3.67260168       2.76066298
Si       0.13393369       3.55243711       5.31806280
Si      -0.97963559       3.44234696       2.74441768
Si       0.52536298       0.74188127       7.05717499
22
Lattice="11.966487794898105 1.4375743643111212 -0.33507489270029056 -0.3929973884048783 11.612030091027028 -0.8181917550461115 -7.315706398898414 -4.8736298130830455 8.803499212322183" Properties=species:S:1:pos:R:3 unique_starting_index=18 config_type=initial n_minim_iter=8 stress="-0.0009343301258881838 0.0002727984626852745 -0.00042779784123619545 0.0002727984626852745 0.0008019614740800609 0.0007837920567952241 -0.00042779784123619545 0.0007837920567952241 -0.0006541126859777137" pbc="T T T"
Si       4.40285358      10.43055113       1.18663104
Si       1.71377671       1.86687070       6.80828328
Si      -5.04556339      -4.01642921       6.99501924
Si       3.00918664       0.38040669       8.62507496
Si      -9.49805176       0.29875625       9.81080500
Si       8.32513472       6.55898052       1.50582915
Si       6.26008792      -0.01548360       1.91828467
Si       0.41565630       2.23676711       7.75560271
Si       1.55619337       0.35705451       9.45401813
Si      -0.32329470       2.01108900       4.90505073
Si       5.30058690       1.17718343       2.99856620
Si      -1.81738101       4.53053917       3.67471057
Si      -6.05957795      -2.56980544       4.74116426
Si       2.57278706      10.78718782       1.33771509
Si       9.52234629       4.44903595       3.10151352
Si       5.99094963       7.78769106      -2.94329346
Si      -0.59122622      -1.51367627       1.02422649
Si       5.49333390      -1.42826137       6.23455886
Si       4.44817154       3.65515482       2.75079640
Si       0.11879857       3.54445620       5.32149857
Si      -0.99228547       3.43904659       2.74531363
Si       0.50700325       0.73058485       7.05566745
22
Lattice="11.975657017873594 1.4152976142265055 -0.35434719384368574 -0.4118870371244072 11.594580949563069 -0.8331012797098679 -7.3270190323370965 -4.864991663321263 8.81889575747231" Properties=species:S:1:pos:R:3 unique_starting_index=18 config_type=initial n_minim_iter=9 stress="0.00022201282711563014 -2.967749685404428e-05 -0.0007129307654859628 -2.967749685404428e-05 -0.00032444325951475305 0.0005699783314196239 -0.0007129307654859628 0.0005699783314196239 -0.00031850553549315694" pbc="T T T"
Si       4.38546082      10.40614201       1.16538873
Si       1.70166031       1.84866597       6.80261613
Si      -5.05251199      -4.00770363       7.00553921
Si       2.99561826       0.36884636       8.61481427
Si      -9.51427031       0.30559275       9.82397449
Si       8.32272211       6.53678945       1.47834656
Si       6.26176058      -0.03099642       1.90951927
Si       0.40727963       2.22352684       7.75184744
Si       1.54391038       0.34001498       9.44831530
Si      -0.33098379       1.99928144       4.89702811
Si       5.29407740       1.16208703       2.99135523
Si      -1.83349000       4.51923032       3.67622759
Si      -6.06804007      -2.56196910       4.75595391
Si       2.55980764      10.75891586       1.31900676
Si       9.51996079       4.41659576       3.07942327
Si       5.98894791       7.76519361      -2.96251138
Si      -0.59033668      -1.51171921       1.02354776
Si       5.48942502      -1.44407154       6.22552218
Si       4.43914510       3.63593432       2.73897239
Si       0.10490410       3.53308943       5.32094081
Si      -1.00795397       3.43473365       2.74489334
Si       0.49146598       0.71815113       7.05128546
22
Lattice="11.9810065374415 1.3960736227389405 -0.37070562932174905 -0.4284171973770857 11.581076550281932 -0.8498408780431425 -7.334620366786746 -4.8609758867606825 8.831098082260242" Properties=species:S:1:pos:R:3 unique_starting_index=18 config_type=initial n_minim_iter=10 stress="-5.918767703072804e-05 7.50543303646787e-05 -0.0003827059807748225 7.50543303646787e-05 -0.00026434184926522566 1.2943600408110558e-05 -0.0003827059807748225 1.2943600408110558e-05 -0.00019942590972050835" pbc="T T T"
Si       4.36913965      10.38513187       1.14299902
Si       1.69121898       1.82972861       6.79403014
Si      -5.05705639      -4.00198645       7.01364631
Si       2.98380555       0.35493149       8.60417333
Si      -9.52573553       0.30774241       9.83370493
Si       8.32029234       6.51709782       1.45290449
Si       6.26170621      -0.04469189       1.90260356
Si       0.40157590       2.20941572       7.74795457
Si       1.53481130       0.32614356       9.43984461
Si      -0.33743003       1.98877960       4.88872346
Si       5.28679570       1.14744717       2.98448051
Si      -1.84781090       4.51319541       3.67613007
Si      -6.07373400      -2.55684764       4.76801738
Si       2.54823266      10.73439823       1.29901567
Si       9.51328030       4.38356500       3.05743103
Si       5.98695012       7.74569822      -2.98249697
Si      -0.58919917      -1.51061516       1.02226364
Si       5.48496549      -1.46055339       6.21704619
Si       4.42988966       3.61843932       2.72709647
Si       0.09248874       3.52168502       5.31794130
Si      -1.01996638       3.43056119       2.74045729
Si       0.47797439       0.70546878       7.04558081
22
Lattice="11.994536678723755 1.3662765851766956 -0.3918618149004603 -0.45438811953661645 11.560627126884153 -0.8698099468188782 -7.347160855755549 -4.8506193898521035 8.844626713888614" Properties=species:S:1:pos:R:3 unique_starting_index=18 config_type=initial n_minim_iter=11 stress="0.001101923287873109 -0.00046424056493138313 0.0003840832667769384 -0.00046424056493138313 -0.0003478758692581178 0.0001234701479816975 0.0003840832667769384 0.0001234701479816975 0.0009056697158312464" pbc="T T T"
Si       4.34671203      10.35155473       1.11420998
Si       1.67852810       1.80512532       6.77885136
Si      -5.06506517      -3.98875239       7.02195881
Si       2.97246547       0.33265097       8.58917430
Si      -9.54638037       0.31718633       9.84869750
Si       8.32165560       6.48844483       1.42670994
Si       6.26494086      -0.06263785       1.89510786
Si       0.39359488       2.19414559       7.74128179
Si       1.52578543       0.31143621       9.42450046
Si      -0.34774490       1.97454898       4.87710668
Si       5.27911439       1.12516997       2.97527887
Si      -1.87285224       4.50000852       3.67327423
Si      -6.08375636      -2.54610704       4.78165849
Si       2.53028996      10.69794540       1.27474332
Si       9.51031476       4.34009791       3.02654922
Si       5.98480685       7.71076836      -3.00764188
Si      -0.58713000      -1.50865887       1.01833146
Si       5.48245823      -1.48373089       6.20545421
Si       4.41812031       3.59331334       2.71174450
Si       0.07831537       3.51037140       5.31317452
Si      -1.03955834       3.42710082       2.73604105
Si       0.45802403       0.68837153       7.03625821
22
Lattice="12.00527612636881 1.329835442306006 -0.4242072430122972 -0.48625407000825466 11.540404749178153 -0.8991555192760825 -7.362881008293668 -4.843112403811433 8.868653852095818" Properties=species:S:1:pos:R:3 unique_starting_index=18 config_type=initial n_minim_iter=12 stress="0.0018765566699397301 -0.002203187569250188 0.0002580348916751675 -0.002203187569250188 -0.0007374633333590618 -0.0007693801941062624 0.0002580348916751675 -0.0007693801941062624 0.002711870738065296" pbc="T T T"
Si       4.31624572      10.31205820       1.07215017
Si       1.65502002       1.77357410       6.76222267
Si      -5.07591122      -3.97590741       7.03763052
Si       2.95513681       0.30104193       8.57168900
Si      -9.57000211       0.32817135       9.87273865
Si       8.31848144       6.45558425       1.39242378
Si       6.26481457      -0.08447094       1.88437047
Si       0.38205886       2.17233427       7.72718723
Si       1.50699558       0.28665039       9.40711804
Si      -0.36049910       1.95818405       4.86167103
Si       5.26545684       1.09614637       2.96161491
Si      -1.90663753       4.48452281       3.67140825
Si      -6.09511848      -2.53526117       4.80251559
Si       2.50492781      10.65654349       1.23991629
Si       9.49889238       4.28667755       2.98280569
Si       5.98133131       7.67250534      -3.04393726
Si      -0.58439212      -1.50729030       1.01382000
Si       5.47368308      -1.51602793       6.19131598
Si       4.39980451       3.56270124       2.68992430
Si       0.05556836       3.49219035       5.30629660
Si      -1.06064159       3.42131995       2.72940922
Si       0.42897286       0.66675337       7.02580984
22
Lattice="12.007979321351597 1.2944029115472846 -0.4617255835029575 -0.5159382018595075 11.510891366739788 -0.9497813569436246 -7.376168774447091 -4.848711199436913 8.897590394500416" Properties=species:S:1:pos:R:3 unique_starting_index=18 config_type=initial n_minim_iter=13 stress="0.0027555824968068707 -0.0022753217159735737 -0.00041347944611540624 -0.0022753217159735737 -0.0013826547248170582 -0.0006334596875610078 -0.00041347944611540624 -0.0006334596875610078 0.009504543504968446" pbc="T T T"
Si       4.28324705      10.25551489       1.00531689
Si       1.63374468       1.72322609       6.73317814
Si      -5.08576570      -3.96570001       7.05582008
Si       2.93463773       0.25780135       8.55021925
Si      -9.58459197       0.32115845       9.89174219
Si       8.32055920       6.41858004       1.34706015
Si       6.25795998      -0.10558519       1.87676625
Si       0.37021846       2.14278599       7.70211235
Si       1.48684912       0.25272886       9.38205411
Si      -0.36602447       1.92759720       4.82596803
Si       5.24106986       1.05775032       2.94564143
Si      -1.94275262       4.45354027       3.66802849
Si      -6.10375451      -2.53052440       4.82662673
Si       2.48054735      10.59715087       1.18508695
Si       9.47934498       4.21693687       2.92076441
Si       5.97806585       7.62853871      -3.09236065
Si      -0.57956818      -1.50663481       1.00363204
Si       5.45631564      -1.56054543       6.17581028
Si       4.37393762       3.52245982       2.65885411
Si       0.02776235       3.46218776       5.29347449
Si      -1.08071208       3.40971599       2.72033935
Si       0.38695568       0.63053553       7.00506317
22
Lattice="12.049211852399369 1.2338807370609952 -0.4702684852429639 -0.5785129124559977 11.524451477793345 -1.002898996606506 -7.3826227830938285 -4.8579032587378155 8.861758191977037" Properties=species:S:1:pos:R:3 unique_starting_index=18 config_type=initial n_minim_iter=14 stress="0.01426319846628991 -0.008110351846246542 0.0029557063219872565 -0.008110351846246542 0.0028046515019288978 -0.002772098586997789 0.0029557063219872565 -0.002772098586997789 0.005053211517085843" pbc="T T T"
Si       4.24407678      10.22154087       0.93544246
Si       1.63073940       1.66616863       6.67004546
Si      -5.08710351      -3.96031869       7.02457596
Si       2.94637489       0.20623440       8.48854257
Si      -9.61326472       0.33318993       9.82622056
Si       8.33722722       6.38699820       1.30879731
Si       6.27844540      -0.14257764       1.87313240
Si       0.37000306       2.11292389       7.63679509
Si       1.49107173       0.20780473       9.30709352
Si      -0.36973352       1.90489392       4.76416963
Si       5.23926950       1.00870193       2.92440494
Si      -1.98668640       4.43932366       3.63960646
Si      -6.11656268      -2.52161686       4.80960497
Si       2.43875432      10.56941624       1.12377568
Si       9.49342216       4.13858488       2.86121884
Si       5.96899340       7.59521110      -3.11844432
Si      -0.56938594      -1.50991971       0.98626281
Si       5.47669582      -1.62738018       6.13867435
Si       4.36171651       3.48328577       2.62020412
Si       0.00607956       3.44180138       5.24603428
Si      -1.10597790       3.41013914       2.68988946
Si       0.36346947       0.60039440       6.94373756
22
Lattice="12.008761355243562 1.2125488893385579 -0.5366520837449276 -0.5956806976844348 11.528606943988791 -1.0653664351802044 -7.391974166838252 -4.891168948996755 8.936423774930772" Properties=species:S:1:pos:R:3 unique_starting_index=18 config_type=initial n_minim_iter=15 stress="0.013568126956556441 -0.004622178436753915 -0.003744784033227007 -0.004622178436753915 0.006653420041986783 -0.001438914230880371 -0.003744784033227007 -0.001438914230880371 0.02442019901400069" pbc="T T T"
Si       4.20236309      10.18641944       0.84750093
Si       1.58721589       1.60333270       6.65695103
Si      -5.09696869      -3.96231697       7.07600785
Si       2.90142769       0.16676578       8.48701306
Si      -9.61439545       0.31319360       9.88724546
Si       8.31552236       6.38751475       1.24653298
Si       6.24185736      -0.15623620       1.86385651
Si       0.34652806       2.08255659       7.63871079
Si       1.44160469       0.17231045       9.30413064
Si      -0.38207072       1.87889736       4.73780767
Si       5.17992250       0.97269840       2.90944762
Si      -2.02229096       4.40644187       3.66137244
Si      -6.11535816      -2.53095411       4.86148492
Si       2.40832037      10.53542173       1.06109544
Si       9.44004972       4.08095741       2.77939206
Si       5.95546228       7.56482001      -3.20226890
Si      -0.56052268      -1.51408088       0.96999641
Si       5.41965587      -1.67997156       6.13258772
Si       4.31252482       3.45374047       2.58394758
Si      -0.02664569       3.41746592       5.24613320
Si      -1.12703224       3.41018253       2.68527289
Si       0.29724045       0.57634955       6.93570383
22
Lattice="12.040425588845157 1.1711014619958846 -0.5485396387254726 -0.644743676811811 11.591799174188107 -1.0965150479252885 -7.401085492546864 -4.912471068369036 8.911219727867744" Properties=species:S:1:pos:R:3 unique_starting_index=18 config_type=initial n_minim_iter=16 stress="0.028388159903811147 -0.003261971919558422 -0.001193258733632495 -0.003261971919558422 0.016873671866961794 0.0031634082520292793 -0.001193258733632495 0.0031634082520292793 0.027445998571273864" pbc="T T T"
Si       4.17365970      10.19287478       0.79193891
Si       1.57623356       1.56679649       6.61424667
Si      -5.10049392      -3.95443950       7.05128357
Si       2.91292692       0.14240396       8.44116623
Si      -9.63931830       0.33734667       9.84881241
Si       8.33980846       6.40800177       1.21981747
Si       6.25261770      -0.17914167       1.86833297
Si       0.35730743       2.08202358       7.59862386
Si       1.43820484       0.16518750       9.24943259
Si      -0.37398123       1.87873003       4.68306420
Si       5.15963057       0.93844723       2.90056403
Si      -2.06223430       4.40280853       3.65607000
Si      -6.12837613      -2.52758630       4.85018940
Si       2.37340491      10.55306011       1.02775455
Si       9.44946277       4.03418956       2.72616886
Si       5.95017446       7.55368138      -3.22375362
Si      -0.54423720      -1.52157699       0.93696076
Si       5.42514806      -1.73738338       6.10373153
Si       4.29569189       3.44023128       2.55531493
Si      -0.04387037       3.40831371       5.22358265
Si      -1.15166044       3.44628569       2.66007391
Si       0.25408106       0.56951962       6.88623305
22
Lattice="11.995582676769507 1.147004395397585 -0.5981680339500909 -0.679087206600585 11.704771604020403 -1.1626117988902802 -7.390495250364682 -4.9858629530518614 8.941509762963106" Properties=species:S:1:pos:R:3 unique_starting_index=18 config_type=initial n_minim_iter=17 stress="0.028499905242217554 -0.006419283383009048 -0.004000669548559219 -0.006419283383009048 0.026649357491267463 -0.005320661700499283 -0.004000669548559219 -0.005320661700499283 0.03279346132588642" pbc="T T T"
Si       4.12428627      10.24960493       0.70089542
Si       1.53938328       1.52865016       6.57698223
Si      -5.09275944      -3.99718793       7.07083864
Si       2.87122346       0.09413960       8.40682578
Si      -9.62843933       0.31938999       9.85694185
Si       8.29514363       6.44610176       1.15207401
Si       6.21825009      -0.20699824       1.85330637
Si       0.32601296       2.05774896       7.56423322
Si       1.40083384       0.12622827       9.21369936
Si      -0.38527874       1.86859459       4.64221417
Si       5.10669787       0.90816514       2.87644550
Si      -2.09192919       4.41371668       3.63586142
Si      -6.11718983      -2.55533228       4.87317018
Si       2.32404151      10.62119515       0.95771833
Si       9.39433316       4.01599243       2.64764949
Si       5.92155764       7.60017438      -3.28725999
Si      -0.52962445      -1.53752308       0.92251259
Si       5.38102471      -1.81025402       6.07748578
Si       4.25333145       3.44026118       2.50954785
Si      -0.07231578       3.39832952       5.19866394
Si      -1.16974143       3.47806508       2.63265987
Si       0.20253956       0.54801437       6.86349092
22
Lattice="11.97562316911057 1.1502815075448451 -0.5859183413210365 -0.6836266788019588 11.769756514856903 -1.1430231050480653 -7.369914000817991 -4.996422959289384 8.919438339266073" Properties=species:S:1:pos:R:3 unique_starting_index=18 config_type=initial n_minim_iter=18 stress="0.03531231378974559 0.002060802603761054 -0.00402695455365674 0.002060802603761054 0.025888011624978478 0.008076452403443584 -0.00402695455365674 0.008076452403443584 0.03254107226058478" pbc="T T T"
Si       4.12219344      10.28288024       0.70457781
Si       1.53779992       1.53908957       6.57439326
Si      -5.07397309      -3.97880334       7.05166451
Si       2.87129495       0.12434946       8.40342963
Si      -9.57987612       0.35050912       9.85132970
Si       8.29474995       6.49975644       1.17821534
Si       6.19971049      -0.20076228       1.87489123
Si       0.33251734       2.08645445       7.56793069
Si       1.40487351       0.17238444       9.20870858
Si      -0.37125699       1.89018274       4.61500728
Si       5.06898651       0.90943024       2.89271170
Si      -2.09838657       4.42726248       3.65171797
Si      -6.10560758      -2.55327515       4.85906365
Si       2.31571771      10.66421051       0.98795338
Si       9.38578038       4.03311084       2.64117394
Si       5.91539329       7.60515560      -3.27783799
Si      -0.50919284      -1.54168555       0.88383528
Si       5.36576249      -1.81532285       6.07463713