10
Lattice="5.433059739850349 -0.1838151879619457 1.5528184962657204e-17 -2.9620864035696894 7.748807743099721 -6.545972680986781e-16 2.0540000796466955e-30 6.186716786037121e-16 7.323537886929079" Properties=species:S:1:pos:R:3 unique_starting_index=14 config_type=initial n_minim_iter=1 energy=-1631.019745810318 free_energy=-1631.019745810318 pbc="T T T"
Si       0.83700203       4.64769984       0.83897120
Si       1.63397131       2.91729271       0.83897120
Si       2.30599350       0.76660461       0.80806750
Si       0.16497983       6.79838795       0.80806750
Si       1.62278043       1.43882922       4.71077303
Si       0.84819290       6.12616333       4.71077303
Si       0.58079782       5.38116752       2.58657690
Si       1.89017551       2.18382504       2.58657690
Si      -0.61819129       4.93762182       4.48802199
Si       3.08916462       2.62737073       4.48802199
10
Lattice="5.433869536125099 -0.1839093762941825 1.5536141725428075e-17 -2.9626431260233455 7.749372590135241 -6.546449847718238e-16 2.054075522481886e-30 6.186845945145462e-16 7.323690779271832" Properties=species:S:1:pos:R:3 unique_starting_index=14 config_type=initial n_minim_iter=2 stress="6.984687066591397e-05 0.00022160076272276612 -1.0649848467294427e-16 0.00022160076272276612 7.221314167538783e-05 2.2175026945599354e-16 -1.0649848467294427e-16 2.2175026945599354e-16 0.00010194333563443067" pbc="T T T"
Si       0.83705694       4.64799905       0.83899196
Si       1.63416946       2.91746416       0.83899196
Si       2.30631807       0.76660673       0.80808641
Si       0.16490833       6.79885648       0.80808641
Si       1.62298716       1.43889507       4.71088430
Si       0.84823924       6.12656815       4.71088430
Si       0.58079687       5.38152403       2.58662429
Si       1.89042954       2.18393918       2.58662429
Si      -0.61834930       4.93796500       4.48810409
Si       3.08957571       2.62749822       4.48810409
10
Lattice="5.434209354406763 -0.18485091715860538 1.5615680423262372e-17 -2.9641549638170352 7.749853971480168 -6.546856505005074e-16 2.0539328496220264e-30 6.186477319481461e-16 7.323254417933536" Properties=species:S:1:pos:R:3 unique_starting_index=14 config_type=initial n_minim_iter=3 stress="4.5992658127428154e-05 -0.0001839546016465039 -6.637966558412727e-17 -0.0001839546016465039 7.883005515036692e-06 2.421763623508819e-16 -6.637966558412727e-17 2.421763623508819e-16 -9.575525745332345e-05" pbc="T T T"
Si       0.83631717       4.64782380       0.83897244
Si       1.63373722       2.91717925       0.83897244
Si       2.30629097       0.76610618       0.80806128
Si       0.16376342       6.79889688       0.80806128
Si       1.62277122       1.43859308       4.71065959
Si       0.84728316       6.12640998       4.71065959
Si       0.57986471       5.38142741       2.58643213
Si       1.89018968       2.18357565       2.58643213
Si      -0.61917006       4.93808946       4.48776525
Si       3.08922444       2.62691360       4.48776525
10
Lattice="5.434331943180947 -0.18476385973738554 1.560832605959927e-17 -2.964117146524055 7.749277255988753 -6.546369312139195e-16 2.054361760983654e-30 6.187344153283907e-16 7.324280534113319" Properties=species:S:1:pos:R:3 unique_starting_index=14 config_type=initial n_minim_iter=4 stress="0.00011840642103585767 9.592035869661049e-05 -3.891233515957924e-16 9.592035869661049e-05 -0.00028257985951767896 -7.330252452741731e-17 -3.891233515957924e-16 -7.330252452741731e-17 9.132200360635018e-05" pbc="T T T"
Si       0.83663765       4.64736162       0.83931776
Si       1.63357715       2.91715177       0.83931776
Si       2.30614126       0.76521520       0.80839372
Si       0.16407354       6.79929819       0.80839372
Si       1.62210943       1.43833225       4.71188421
Si       0.84810537       6.12618115       4.71188421
Si       0.57959847       5.38125620       2.58647522
Si       1.89061633       2.18325719       2.58647522
Si      -0.61858537       4.93795399       4.48770183
Si       3.08880016       2.62655940       4.48770183
10
Lattice="5.43366343358267 -0.18484839320077065 1.5615467206473647e-17 -2.9638062040690882 7.751258698879489 -6.548043178811556e-16 2.054393664709774e-30 6.187264056531823e-16 7.324185719429083" Properties=species:S:1:pos:R:3 unique_starting_index=14 config_type=initial n_minim_iter=5 stress="-0.00020010702729087685 2.2324539979131208e-05 -3.3328697904508534e-16 2.2324539979131208e-05 0.0003956308898774218 6.158880827211698e-16 -3.3328697904508534e-16 6.158880827211698e-16 6.424507572406385e-05" pbc="T T T"
Si       0.83653480       4.64860993       0.83936373
Si       1.63332243       2.91780038       0.83936373
Si       2.30564096       0.76541350       0.80847544
Si       0.16421626       6.80099680       0.80847544
Si       1.62164147       1.43867010       4.71194752
Si       0.84821576       6.12774021       4.71194752
Si       0.57938808       5.38270496       2.58640664
Si       1.89046915       2.18370534       2.58640664
Si      -0.61835123       4.93928123       4.48740551
Si       3.08820846       2.62712908       4.48740551
10
Lattice="5.4340363535876275 -0.1846271452063176 1.559677680434433e-17 -2.9637352558186865 7.7500383382775855 -6.547012252838702e-16 2.0542077586674354e-30 6.186869777848957e-16 7.323718991280398" Properties=species:S:1:pos:R:3 unique_starting_index=14 config_type=initial n_minim_iter=6 stress="5.796709321564107e-05 6.227768518664524e-05 -4.3034219461505955e-16 6.227768518664524e-05 1.3687545656413948e-05 6.08678917637741e-16 -4.3034219461505955e-16 6.08678917637741e-16 -0.0002829777264298884" pbc="T T T"
Si       0.83678162       4.64817066       0.83938104
Si       1.63351948       2.91724053       0.83938104
Si       2.30537331       0.76564176       0.80859631
Si       0.16492778       6.79976943       0.80859631
Si       1.62136866       1.43856873       4.71176077
Si       0.84893244       6.12684246       4.71176077
Si       0.57948950       5.38212927       2.58628167
Si       1.89081159       2.18328192       2.58628167
Si      -0.61786955       4.93870576       4.48672301
Si       3.08817065       2.62670543       4.48672301
10
Lattice="5.433970181186514 -0.18479541968688767 1.561099215448901e-17 -2.9639427522030557 7.749932677673954 -6.546922993761981e-16 2.0547808754480457e-30 6.187819287664516e-16 7.324842975349615" Properties=species:S:1:pos:R:3 unique_starting_index=14 config_type=initial n_minim_iter=7 stress="4.006404599537294e-06 -3.4616446319375184e-05 -1.8597408085595643e-16 -3.4616446319375184e-05 -6.1541333617684625e-06 5.028593284320862e-16 -1.8597408085595643e-16 5.028593284320862e-16 8.211636820964456e-05" pbc="T T T"
Si       0.83663370       4.64803909       0.83949575
Si       1.63339372       2.91709816       0.83949575
Si       2.30522176       0.76557640       0.80873957
Si       0.16480567       6.79956086       0.80873957
Si       1.62121112       1.43852221       4.71248814
Si       0.84881631       6.12661505       4.71248814
Si       0.57930812       5.38201840       2.58673503
Si       1.89071931       2.18311886       2.58673503
Si      -0.61794333       4.93863229       4.48734585
Si       3.08797076       2.62650497       4.48734585
10
Lattice="5.43399033321869 -0.18468026994385797 1.5601264631274026e-17 -2.963775037371809 7.750360409127371 -6.54728432914436e-16 2.0546963922537005e-30 6.187560672848488e-16 7.324536839564057" Properties=species:S:1:pos:R:3 unique_starting_index=14 config_type=initial n_minim_iter=8 stress="-3.8477958218080363e-07 -1.3472257389984954e-05 -2.64367824343357e-16 -1.3472257389984954e-05 3.894987860164569e-05 8.062307029284997e-16 -2.64367824343357e-16 8.062307029284997e-16 -6.553807455973853e-05" pbc="T T T"
Si       0.83683511       4.64826653       0.83948368
Si       1.63338019       2.91741361       0.83948368
Si       2.30494544       0.76549771       0.80872851
Si       0.16526985       6.80018243       0.80872851
Si       1.62084637       1.43897911       4.71213476
Si       0.84936892       6.12670103       4.71213476
Si       0.57958308       5.38256638       2.58692850
Si       1.89063222       2.18311376       2.58692850
Si      -0.61760591       4.93901553       4.48696738
Si       3.08782120       2.62666461       4.48696738
10
Lattice="5.433875688363841 -0.18467072005562196 1.5600457883841765e-17 -2.9636967130244867 7.750425434463183 -6.547339260701048e-16 2.0556060722493013e-30 6.189249039112237e-16 7.32653544637397" Properties=species:S:1:pos:R:3 unique_starting_index=14 config_type=initial n_minim_iter=9 stress="-2.559767628289505e-05 1.5546567321750958e-05 -1.4217454754773619e-16 1.5546567321750958e-05 -2.595071197962488e-05 6.715013245716155e-16 -1.4217454754773619e-16 6.715013245716155e-16 2.708634689054099e-05" pbc="T T T"
Si       0.83686327       4.64856930       0.84030474
Si       1.63331570       2.91718541       0.84030474
Si       2.30407188       0.76495619       0.80894716
Si       0.16610709       6.80079852       0.80894716
Si       1.61960864       1.43994166       4.71331308
Si       0.85057033       6.12581305       4.71331308
Si       0.58023281       5.38284070       2.58746140
Si       1.88994616       2.18291402       2.58746140
Si      -0.61717935       4.93915540       4.48788219
Si       3.08735832       2.62659932       4.48788219
10
Lattice="5.4339173531318306 -0.18482526680705164 1.561351355442147e-17 -2.9639333817016302 7.750616564727285 -6.547500722119217e-16 2.0557583121104694e-30 6.189671470022865e-16 7.32703549977638" Properties=species:S:1:pos:R:3 unique_starting_index=14 config_type=initial n_minim_iter=10 stress="-7.429767686738275e-06 1.0110219108467746e-05 -3.681628799837128e-16 1.0110219108467746e-05 -1.9380555289219246e-05 4.232050531297926e-16 -3.681628799837128e-16 4.232050531297926e-16 2.575176227071526e-05" pbc="T T T"
Si       0.83688851       4.64833108       0.84055351
Si       1.63309546       2.91746021       0.84055351
Si       2.30370258       0.76489537       0.80899525
Si       0.16628139       6.80089592       0.80899525
Si       1.61904543       1.44043648       4.71365656
Si       0.85093854       6.12535482       4.71365656
Si       0.58035858       5.38295654       2.58748256
Si       1.88962539       2.18283476       2.58748256
Si      -0.61726072       4.93927049       4.48813786
Si       3.08724469       2.62652080       4.48813786
10
Lattice="5.434084464070964 -0.18510444995540118 1.5637098153790522e-17 -2.964401192491613 7.751251385030819 -6.548037000279942e-16 2.055187110966749e-30 6.189122309674489e-16 7.326385430158455" Properties=species:S:1:pos:R:3 unique_starting_index=14 config_type=initial n_minim_iter=11 stress="3.9187694610202414e-05 -2.91270618561173e-05 -5.8796504022924e-16 -2.91270618561173e-05 8.020417662908116e-05 4.509068535422008e-16 -5.8796504022924e-16 4.509068535422008e-16 -7.51891701868379e-05" pbc="T T T"
Si       0.83657179       4.64858515       0.84025614
Si       1.63311147       2.91756178       0.84025614
Si       2.30365565       0.76479952       0.80881708
Si       0.16602762       6.80134741       0.80881708
Si       1.61804646       1.44190025       4.71336425
Si       0.85163681       6.12424669       4.71336425
Si       0.58029176       5.38305345       2.58740693
Si       1.88939150       2.18309349       2.58740693
Si      -0.61770568       4.93979834       4.48778903
Si       3.08738895       2.62634859       4.48778903
10
Lattice="5.434218544259098 -0.18574462727024182 1.569117851496177e-17 -2.9653861960602996 7.751285031890204 -6.548065424191032e-16 2.0549044594476765e-30 6.188949527108362e-16 7.326180898463701" Properties=species:S:1:pos:R:3 unique_starting_index=14 config_type=initial n_minim_iter=12 stress="3.0990614070089815e-06 -1.0815579700205604e-06 -2.9928254454969965e-16 -1.0815579700205604e-06 2.5937290515309574e-06 7.447432868636253e-16 -2.9928254454969965e-16 7.447432868636253e-16 -1.8462418302440164e-07" pbc="T T T"
Si       0.83596847       4.64823999       0.83989437
Si       1.63286388       2.91730041       0.83989437
Si       2.30378679       0.76451970       0.80887801
Si       0.16504555       6.80102071       0.80887801
Si       1.61652901       1.44301551       4.71388526
Si       0.85230333       6.12252489       4.71388526
Si       0.57937764       5.38244984       2.58707410
Si       1.88945470       2.18309056       2.58707410
Si      -0.61859928       4.93986872       4.48752653
Si       3.08743163       2.62567168       4.48752653
