22
Lattice="11.955873073609778 0.8174246146332411 -1.1445205580112083 -1.0253540276937807 11.742177376405728 -1.713405591249638 -7.603908042746907 -5.189751863786923 9.340440746241049" Properties=species:S:1:pos:R:3 unique_starting_index=18 config_type=initial n_minim_iter=1 energy=-3747.271114242811 free_energy=-3747.271114242811 pbc="T T T"
Si       3.48213948       9.54412719       0.04681724
Si       0.95438451       1.08368768       6.49844342
Si      -5.20926401      -3.49669978       7.40309127
Si       2.49229233      -0.32776522       8.12082920
Si      -9.92338423       0.18167237      10.22047391
Si       8.14023203       6.18686464       0.52038827
Si       5.35783017      -0.55938037       1.52322466
Si      -0.06698323       1.92597690       7.47729724
Si       1.01924945      -0.30160068       8.92262663
Si      -0.64734558       1.52732278       4.36447549
Si       4.50176732       0.57470562       2.71343784
Si      -2.24116003       4.06686744       3.33886945
Si      -6.52229871      -2.41019313       5.17605782
Si       1.85044965      10.38358533       0.22776781
Si       9.38552649       3.35508190       1.61971940
Si       5.88361552       7.51077315      -3.99735593
Si       0.52780576      -1.92939339       0.73047147
Si       5.00902872      -2.09932682       5.80752077
Si       4.25351097       3.31201155       2.35928635
Si      -0.26791009       3.02564710       4.96432954
Si      -1.14873350       3.30987391       2.36624974
Si      -0.53963518       0.44430276       6.88095054
22
Lattice="11.95408283108849 0.8179557981464296 -1.1442250877069915 -1.024316697040684 11.734116852449135 -1.7149374990800796 -7.6031184523265 -5.1884024237755355 9.337756090733574" Properties=species:S:1:pos:R:3 unique_starting_index=18 config_type=initial n_minim_iter=2 stress="-0.005015326102972466 0.0003540225371499925 0.000134785447780726 0.0003540225371499925 -0.0025909314004485045 0.00032556197958583024 0.000134785447780726 0.00032556197958583024 -0.004558929813590404" pbc="T T T"
Si       3.48227506       9.53765113       0.04499320
Si       0.95409516       1.08175476       6.49582756
Si      -5.20870688      -3.49597719       7.40094384
Si       2.49189318      -0.32886864       8.11779509
Si      -9.92174524       0.17877800      10.21633192
Si       8.13935152       6.18287671       0.51907082
Si       5.35701433      -0.55886293       1.52274538
Si      -0.06673770       1.92319785       7.47397449
Si       1.01898745      -0.30285852       8.91917608
Si      -0.64704280       1.52543329       4.36253961
Si       4.50106840       0.57415090       2.71217766
Si      -2.24049724       4.06312768       3.33665006
Si      -6.52141755      -2.40994286       5.17446889
Si       1.85091146      10.37632562       0.22576174
Si       9.38425859       3.35314846       1.61848470
Si       5.88336106       7.50677077      -3.99713827
Si       0.52759799      -1.92810581       0.73044222
Si       5.00811447      -2.09857409       5.80559969
Si       4.25314565       3.30955039       2.35780055
Si      -0.26783126       3.02239235       4.96176985
Si      -1.14835211       3.30703759       2.36471968
Si      -0.53930209       0.44268152       6.87815647
22
Lattice="11.964553397799525 0.8184630147482702 -1.1453258712248398 -1.0246058390973072 11.727543530757305 -1.7201239667502768 -7.610258084431028 -5.189231152200718 9.343429557811861" Properties=species:S:1:pos:R:3 unique_starting_index=18 config_type=initial n_minim_iter=3 stress="0.0014416137073828988 -0.001569261606352321 0.0017105630767098674 -0.001569261606352321 -0.004357909581671267 -0.005036356836102861 0.0017105630767098674 -0.005036356836102861 0.0024932369098428176" pbc="T T T"
Si       3.48559388       9.53201804       0.04110833
Si       0.95418881       1.07840891       6.49805865
Si      -5.21357310      -3.49686983       7.40554120
Si       2.49388427      -0.33178364       8.12107933
Si      -9.93026643       0.17398907      10.21995441
Si       8.14633608       6.17891512       0.51685941
Si       5.36182932      -0.55883998       1.52338912
Si      -0.06671525       1.91936086       7.47606487
Si       1.01920271      -0.30588745       8.92239336
Si      -0.64730484       1.52266679       4.36359804
Si       4.50475409       0.57305797       2.71247426
Si      -2.24243041       4.05924967       3.33599310
Si      -6.52715823      -2.41077986       5.17745085
Si       1.85288323      10.36991224       0.22184724
Si       9.39221095       3.35086436       1.61753231
Si       5.88911124       7.50448840      -4.00136304
Si       0.52801854      -1.92710229       0.73104118
Si       5.01226588      -2.09939427       5.80823423
Si       4.25710046       3.30682945       2.35746677
Si      -0.26864508       3.01825545       4.96229880
Si      -1.14924172       3.30407114       2.36423825
Si      -0.53926374       0.43959589       6.88041338
22
Lattice="11.973628202413314 0.8222275606556831 -1.1488934506717459 -1.0204488796833704 11.723673345157994 -1.7152968754257807 -7.620664208624672 -5.1874176588158685 9.34249632638255" Properties=species:S:1:pos:R:3 unique_starting_index=18 config_type=initial n_minim_iter=4 stress="0.004546461452597462 0.0009037309797004608 -0.004754672081200576 0.0009037309797004608 -0.003928906618716978 0.0007951577797227218 -0.004754672081200576 0.0007951577797227218 -0.0033126932779318366" pbc="T T T"
Si       3.49123386       9.53107971       0.04319751
Si       0.95213432       1.08041654       6.49740237
Si      -5.22094585      -3.49510127       7.40536755
Si       2.49281745      -0.32806462       8.11911456
Si      -9.94005003       0.17367249      10.22107298
Si       8.15356213       6.18006555       0.51666414
Si       5.36525734      -0.55616315       1.52114480
Si      -0.06827127       1.92216410       7.47573173
Si       1.01624748      -0.30203446       8.92000725
Si      -0.64819965       1.52323664       4.36359526
Si       4.50689464       0.57571785       2.71009796
Si      -2.24374636       4.05881805       3.33707092
Si      -6.53402560      -2.41070970       5.17780851
Si       1.85770629      10.36802806       0.22506498
Si       9.39903422       3.35389832       1.61525547
Si       5.89769235       7.50417007      -3.99942989
Si       0.52756928      -1.92603475       0.72934459
Si       5.01316993      -2.09510547       5.80447460
Si       4.26079229       3.30847303       2.35716819
Si      -0.27035812       3.01886676       4.96249200
Si      -1.14971005       3.30366080       2.36525261
Si      -0.54067516       0.44145769       6.87929870
22
Lattice="11.971041932344146 0.82536676975188 -1.1429209772416915 -1.0179738927978572 11.725011924920908 -1.7140692050214765 -7.615899455189683 -5.188624742119683 9.339718315983353" Properties=species:S:1:pos:R:3 unique_starting_index=18 config_type=initial n_minim_iter=5 stress="-0.0007058949376957048 0.0006996751461867435 0.0007055603277530183 0.0006996751461867435 -0.0011179765403274372 -2.6054975050756087e-05 0.0007055603277530183 -2.6054975050756087e-05 -0.0013016415102808086" pbc="T T T"
Si       3.49277726       9.53375611       0.04653758
Si       0.95438712       1.08150295       6.50005727
Si      -5.21705995      -3.49547289       7.40456834
Si       2.49633583      -0.32627296       8.12273567
Si      -9.93247349       0.17247989      10.21772386
Si       8.15333687       6.18275814       0.52261445
Si       5.36541997      -0.55449425       1.52416643
Si      -0.06352151       1.92472505       7.47809197
Si       1.02009694      -0.29987507       8.92186011
Si      -0.64505592       1.52352323       4.36458768
Si       4.50714863       0.57777502       2.71228565
Si      -2.24057381       4.05979024       3.33663142
Si      -6.53034193      -2.41189080       5.17508165
Si       1.86001181      10.37013819       0.22820333
Si       9.39865144       3.35709238       1.62093171
Si       5.89726442       7.50722373      -3.99536283
Si       0.52751584      -1.92588253       0.72843650
Si       5.01481541      -2.09322895       5.80752059
Si       4.26251314       3.31068660       2.36099014
Si      -0.26824582       3.01997355       4.96393161
Si      -1.14781362       3.30419771       2.36572934
Si      -0.53544590       0.44224346       6.88028824
22
Lattice="11.972130010861962 0.8233756024375635 -1.1467015495410118 -1.019315409906946 11.72134587574312 -1.71495785253939 -7.618391128791779 -5.186385407100222 9.344342567126592" Properties=species:S:1:pos:R:3 unique_starting_index=18 config_type=initial n_minim_iter=6 stress="-0.0025797505935030458 -0.00409719246583114 -0.0014613114899657163 -0.00409719246583114 -0.0030170958379966127 0.0012227700798282388 -0.0014613114899657163 0.0012227700798282388 0.00048263629057651087" pbc="T T T"
Si       3.49099517       9.53033823       0.04464919
Si       0.95255260       1.07995191       6.50102687
Si      -5.21895756      -3.49358628       7.40930272
Si       2.49397290      -0.32784816       8.12464149
Si      -9.93681751       0.17239263      10.22241771
Si       8.15243977       6.17877445       0.52049813
Si       5.36624382      -0.55520850       1.52309993
Si      -0.06624153       1.92466888       7.48046315
Si       1.01801900      -0.29986320       8.92295820
Si      -0.64681732       1.52222494       4.36614959
Si       4.50587584       0.57708852       2.71032054
Si      -2.24277312       4.05899987       3.33699919
Si      -6.53120907      -2.41041340       5.17810403
Si       1.85815165      10.36617858       0.22741699
Si       9.39864087       3.35469749       1.61836459
Si       5.89827171       7.50450551      -3.99794090
Si       0.52794809      -1.92508307       0.72703836
Si       5.01414272      -2.09396394       5.80691928
Si       4.26230567       3.30896209       2.36091039
Si      -0.27088545       3.01913867       4.96456521
Si      -1.14992524       3.30215878       2.36618624
Si      -0.53641187       0.44147821       6.88200122
22
Lattice="11.983023430394212 0.8386369588172677 -1.1471814036973684 -1.0057905442426534 11.720447708624915 -1.7218487147892503 -7.631187031531909 -5.201160195117152 9.345612791579851" Properties=species:S:1:pos:R:3 unique_starting_index=18 config_type=initial n_minim_iter=7 stress="-0.00043962392621011933 0.0014028743500332718 -0.0003166309121367572 0.0014028743500332718 -0.0009239598985829072 -0.0012568184903888771 -0.0003166309121367572 -0.0012568184903888771 -0.0013321170976756157" pbc="T T T"
Si       3.50447377       9.53453936       0.03823218
Si       0.95491397       1.07651639       6.49886102
Si      -5.22748393      -3.50353564       7.41231471
Si       2.49509635      -0.33130778       8.12428280
Si      -9.94610320       0.15299408      10.21967422
Si       8.16611767       6.18696721       0.51724304
Si       5.37135327      -0.54956842       1.52321805
Si      -0.06426167       1.92124284       7.47858491
Si       1.01882372      -0.30350905       8.92014995
Si      -0.64628038       1.51769171       4.36527027
Si       4.50893449       0.58151018       2.70709837
Si      -2.24039164       4.05479557       3.33256605
Si      -6.53829042      -2.42136268       5.17825036
Si       1.87169632      10.36733701       0.22161608
Si       9.41088107       3.36524538       1.61582313
Si       5.91308541       7.51405557      -4.00106546
Si       0.52658560      -1.92426598       0.72530598
Si       5.01619967      -2.09183882       5.80580203
Si       4.27100867       3.31284397       2.35978874
Si      -0.26827431       3.01668607       4.96092622
Si      -1.14833163       3.29744103       2.36339943
Si      -0.53486701       0.43624412       6.88046871
22
Lattice="12.009846681574986 0.851914018814236 -1.144048456747535 -0.9946899154721285 11.705242632504795 -1.7242440854254075 -7.651461176919227 -5.205614386367721 9.343487012736952" Properties=species:S:1:pos:R:3 unique_starting_index=18 config_type=initial n_minim_iter=8 stress="-0.00014627507157663865 -0.00017371530164789613 0.00021930062383554867 -0.00017371530164789613 -0.0001965873252289163 -5.312057199829099e-05 0.00021930062383554867 -5.312057199829099e-05 -0.0011166485280124628" pbc="T T T"
Si       3.52018203       9.52898430       0.03593752
Si       0.95973621       1.07579583       6.49934457
Si      -5.24052831      -3.50425054       7.41830427
Si       2.50201594      -0.33558791       8.12646792
Si      -9.96927877       0.13922707      10.21593325
Si       8.18990272       6.18748159       0.52059201
Si       5.38702744      -0.54332611       1.52522807
Si      -0.05963072       1.91798568       7.47713144
Si       1.02406478      -0.30559934       8.91661514
Si      -0.64643665       1.51236679       4.36706260
Si       4.51583392       0.58750846       2.70110106
Si      -2.24229018       4.04990278       3.32968779
Si      -6.54976358      -2.42682496       5.17541942
Si       1.88599687      10.35586883       0.22227981
Si       9.43709182       3.37229651       1.61763733
Si       5.93562935       7.51472308      -3.99859129
Si       0.52747725      -1.91997823       0.71692402
Si       5.02822432      -2.08620183       5.80353773
Si       4.28869535       3.31458908       2.36491277
Si      -0.26685067       3.01355359       4.95776860
Si      -1.14940282       3.28502050       2.36083891
Si      -0.52900943       0.43537531       6.88083366
22
Lattice="12.034807755463136 0.8724238822706778 -1.1445583591427362 -0.9752544526453648 11.679416097464557 -1.7284847304490014 -7.675527116017205 -5.211143964626941 9.35113755165549" Properties=species:S:1:pos:R:3 unique_starting_index=18 config_type=initial n_minim_iter=9 stress="0.0001493557451590021 0.00018343393015363358 0.0002615692375709469 0.00018343393015363358 -0.00030869292255709024 0.0009565232435762759 0.0002615692375709469 0.0009565232435762759 0.001064616699344797" pbc="T T T"
Si       3.54061747       9.51863462       0.03193714
Si       0.96607138       1.07472521       6.50305254
Si      -5.25649263      -3.50465935       7.43425373
Si       2.50682759      -0.34038706       8.13366607
Si      -9.99542996       0.11949027      10.22394974
Si       8.21601863       6.18845190       0.52110787
Si       5.40179694      -0.53403314       1.52758505
Si      -0.05629184       1.91491619       7.48264409
Si       1.02670504      -0.30983947       8.92182739
Si      -0.64497163       1.50466108       4.37203645
Si       4.51969393       0.59619823       2.69429731
Si      -2.23780010       4.03744231       3.32908981
Si      -6.56105414      -2.43463416       5.17812477
Si       1.90617321      10.33659718       0.22280705
Si       9.46147928       3.38125502       1.61985230
Si       5.96186283       7.51628615      -4.00028724
Si       0.52755222      -1.91345514       0.70596090
Si       5.03742443      -2.07647084       5.80406204
Si       4.30861525       3.31696581       2.37270279
Si      -0.26621465       3.00575708       4.95847184
Si      -1.15048570       3.26997756       2.36280877
Si      -0.52490109       0.43304124       6.88692870
22
Lattice="12.048215217681461 0.8878940081731859 -1.1464498922862678 -0.9614228079974017 11.666938180642958 -1.7424441992304789 -7.690924321185659 -5.226632477085684 9.353894387909437" Properties=species:S:1:pos:R:3 unique_starting_index=18 config_type=initial n_minim_iter=10 stress="-0.00012199152289277189 0.0002889506172837468 1.2804473358008464e-05 0.0002889506172837468 0.0016490032723003845 -0.00039191917086138045 1.2804473358008464e-05 -0.00039191917086138045 -4.370762732012365e-05" pbc="T T T"
Si       3.55263234       9.51548367       0.01761361
Si       0.96823064       1.06733882       6.49815967
Si      -5.26702305      -3.51255091       7.44530680
Si       2.50722484      -0.35353792       8.13045854
Si     -10.01524230       0.09302803      10.21993052
Si       8.23059785       6.19003325       0.51117895
Si       5.41108979      -0.53069616       1.52779701
Si      -0.05440627       1.90727869       7.47634713
Si       1.02840510      -0.32282936       8.91825946
Si      -0.64497522       1.49344819       4.37003680
Si       4.51819543       0.59969044       2.68318054
Si      -2.23434552       4.02765164       3.32377936
Si      -6.56566095      -2.44614309       5.17799648
Si       1.91861267      10.32594730       0.21195990
Si       9.47206276       3.38349187       1.61675006
Si       5.97744354       7.52543829      -4.00651470
Si       0.52830378      -1.90997149       0.69580038
Si       5.04243580      -2.07766877       5.79885531
Si       4.32243573       3.31805249       2.37366181
Si      -0.26588598       2.99667430       4.95129294
Si      -1.14848370       3.25692775       2.35671655
Si      -0.52135702       0.42389151       6.88290967
22
Lattice="12.063092513189575 0.899759007280473 -1.1427014961599709 -0.949578362100291 11.62221277985306 -1.753446935687539 -7.702482759117687 -5.2238115309304245 9.357218933058144" Properties=species:S:1:pos:R:3 unique_starting_index=18 config_type=initial n_minim_iter=11 stress="0.0009328221878668419 0.00034926874427433055 0.0014244190176739481 0.00034926874427433055 0.0015272879352485277 0.0006918140536139459 0.0014244190176739481 0.0006918140536139459 0.000983203357010731" pbc="T T T"
Si       3.56386106       9.48838783       0.00812374
Si       0.97375100       1.05795265       6.49921109
Si      -5.27484394      -3.50509139       7.46150566
Si       2.51093790      -0.36204699       8.13250339
Si     -10.02938325       0.07177412      10.21614981
Si       8.24161776       6.17581641       0.50730123
Si       5.42339428      -0.52812581       1.53198386
Si      -0.04869743       1.90213348       7.47653322
Si       1.03260922      -0.33761391       8.92244678
Si      -0.64642929       1.47912364       4.37293894
Si       4.51518675       0.60262404       2.67339969
Si      -2.22972021       4.00630125       3.32282570
Si      -6.56595055      -2.44823746       5.17661823
Si       1.92957850      10.28732709       0.20714119
Si       9.48639279       3.37801402       1.62431573
Si       5.99065244       7.51219410      -4.01039376
Si       0.53124342      -1.90086137       0.67939912
Si       5.05332718      -2.07267877       5.79739445
Si       4.34105431       3.31313302       2.38342387
Si      -0.25965386       2.98295777       4.95106741
Si      -1.14776274       3.23249046       2.35266437
Si      -0.51207234       0.41604415       6.88197405
22
Lattice="12.055153279627847 0.9051148252903259 -1.1588155396707491 -0.9421424224630327 11.608741245798518 -1.7715752212196318 -7.709564036647226 -5.2345925897779955 9.378592839165542" Properties=species:S:1:pos:R:3 unique_starting_index=18 config_type=initial n_minim_iter=12 stress="-0.0013960102309222117 0.0012715565335842856 -0.001138364024989808 0.0012715565335842856 0.003597466381260337 -0.0008513018044278947 -0.001138364024989808 -0.0008513018044278947 0.002437602282241021" pbc="T T T"
Si       3.56267070       9.47997567      -0.01265709
Si       0.96832745       1.04736834       6.50062266
Si      -5.28141460      -3.50923582       7.48468890
Si       2.49663996      -0.37473930       8.13199713
Si     -10.03512184       0.04988549      10.23092078
Si       8.23144627       6.16996889       0.48610871
Si       5.42036499      -0.53123609       1.52775102
Si      -0.05552572       1.89146686       7.47552559
Si       1.01966519      -0.35626285       8.92630113
Si      -0.65267380       1.46768713       4.37499492
Si       4.50187218       0.60044315       2.66189566
Si      -2.22912993       3.99865524       3.32090397
Si      -6.56254449      -2.45515675       5.18934767
Si       1.92924436      10.27337698       0.19029018
Si       9.47748807       3.37057038       1.61185707
Si       5.99458917       7.51391378      -4.02840898
Si       0.53248180      -1.89834319       0.66971673
Si       5.04491701      -2.07981345       5.79310096
Si       4.34195478       3.31090371       2.38124445
Si      -0.26378723       2.97086132       4.95094491
Si      -1.15203961       3.21849329       2.34968980
Si      -0.51848754       0.40372960       6.88607975
22
Lattice="12.069174688237142 0.8971805726757893 -1.1466008315743657 -0.9513387830441579 11.593342415457917 -1.7663912551976575 -7.708091716101505 -5.22001864214809 9.361874854872077" Properties=species:S:1:pos:R:3 unique_starting_index=18 config_type=initial n_minim_iter=13 stress="0.0016813598406108963 -0.00024884800547266656 0.0012285303792684253 -0.00024884800547266656 0.0028288635439940543 0.00042212131858993494 0.0012285303792684253 0.00042212131858993494 0.0004003352511735168" pbc="T T T"
Si       3.56131624       9.46682264      -0.00636602
Si       0.97630356       1.04811001       6.49755783
Si      -5.27961080      -3.49622599       7.47608207
Si       2.50607845      -0.37273543       8.12646257
Si     -10.03955452       0.05762534      10.21411381
Si       8.23696827       6.15758778       0.49376469
Si       5.43054367      -0.53454326       1.53147222
Si      -0.04883599       1.89321424       7.46988538
Si       1.02874202      -0.35443767       8.91990365
Si      -0.65109878       1.46621352       4.37189369
Si       4.50658065       0.59881669       2.66150256
Si      -2.23067238       3.99777245       3.31669598
Si      -6.56241905      -2.44618670       5.17788002
Si       1.92474929      10.25887912       0.19645075
Si       9.48831375       3.36024119       1.62200712
Si       5.99441563       7.50078837      -4.01505371
Si       0.53656655      -1.89561598       0.66263789
Si       5.05936958      -2.07880979       5.78996342
Si       4.35094259       3.30793221       2.38822846
Si      -0.26009984       2.96954245       4.94898698
Si      -1.15506519       3.21362445       2.34830238
Si      -0.51287996       0.40596307       6.88111611
22
Lattice="12.063936628895437 0.8986182421964308 -1.1489841034692747 -0.9471227982134082 11.56904355776837 -1.7627150014594215 -7.706950929091282 -5.20719914825275 9.374116060057945" Properties=species:S:1:pos:R:3 unique_starting_index=18 config_type=initial n_minim_iter=14 stress="0.0009554009916359975 0.0011878216996924582 0.001040209519220536 0.0011878216996924582 0.0010138287716779278 0.001020494028786832 0.001040209519220536 0.001020494028786832 0.0034550781014410998" pbc="T T T"
Si       3.56142010       9.44955267      -0.00254256
Si       0.97605454       1.04831560       6.50862139
Si      -5.27909273      -3.48159232       7.49131972
Si       2.50141261      -0.36768651       8.13583712
Si     -10.03634627       0.05808465      10.23508123
Si       8.23301680       6.14719700       0.49298207
Si       5.42995397      -0.53349912       1.53334212
Si      -0.04681584       1.89423108       7.48374832
Si       1.02545056      -0.35150472       8.93265845
Si      -0.65247498       1.46426185       4.38216645
Si       4.49948458       0.60092099       2.66272525
Si      -2.22935595       3.99292932       3.32096195
Si      -6.55649383      -2.44010204       5.18480608
Si       1.92405952      10.23875128       0.20214079
Si       9.48053261       3.35591496       1.62923133
Si       5.99572046       7.48662129      -4.01577664
Si       0.53928723      -1.89113181       0.65144561
Si       5.05809033      -2.07261025       5.79374183
Si       4.35513362       3.31001924       2.40005579
Si      -0.25752976       2.96678423       4.95820130
Si      -1.15480789       3.20574741       2.35325435
Si      -0.51225976       0.40850874       6.89484285
22
Lattice="12.063151114175467 0.8894715850892494 -1.1547744605913512 -0.9566843034492386 11.581145054435714 -1.7694855854257157 -7.706822708973411 -5.211948015588823 9.37262527646905" Properties=species:S:1:pos:R:3 unique_starting_index=18 config_type=initial n_minim_iter=15 stress="0.0011265998396003598 -0.00033961780059217216 -8.853064274162462e-05 -0.00033961780059217216 0.0034790328299039563 -0.0003933977370133336 -8.853064274162462e-05 -0.0003933977370133336 0.00018554117098721316" pbc="T T T"
Si       3.55188933       9.45388800      -0.01216919
Si       0.97080420       1.04276192       6.50086035
Si      -5.27953586      -3.48184413       7.49186209
Si       2.49576616      -0.37693096       8.12576261
Si     -10.04099951       0.05824023      10.23231766
Si       8.22522228       6.14425733       0.48123505
Si       5.43059350      -0.54098310       1.52964870
Si      -0.05065815       1.89068272       7.47495345
Si       1.02055690      -0.36175745       8.92282606
Si      -0.65641931       1.46198471       4.37855700
Si       4.49469498       0.59547529       2.65612320
Si      -2.23491764       3.99563945       3.31395534
Si      -6.55440261      -2.43990850       5.18467722
Si       1.91251825      10.24523152       0.19247025
Si       9.47383431       3.34940360       1.62263731
Si       5.99111044       7.49194504      -4.01981216
Si       0.54316773      -1.89364346       0.64497518
Si       5.05766043      -2.08497894       5.78470078
Si       4.35397683       3.31150878       2.39711771
Si      -0.26206141       2.96634995       4.94961126
Si      -1.16012239       3.20612915       2.34902056
Si      -0.51647974       0.40340506       6.88970406
22
Lattice="12.064374913717508 0.8906499901459037 -1.1562878193274868 -0.9540056016089288 11.568369741104359 -1.7638866008937641 -7.709236630704738 -5.202745502217002 9.379806052456368" Properties=species:S:1:pos:R:3 unique_starting_index=18 config_type=initial n_minim_iter=16 stress="0.001146238272752337 0.00034105103781071814 0.0002441761683297353 0.00034105103781071814 0.0014400790024633355 0.00038918542510624476 0.0002441761683297353 0.00038918542510624476 0.001669267371799494" pbc="T T T"
Si       3.55279642       9.44293083      -0.00665015
Si       0.96907371       1.04553594       6.50789002
Si      -5.28052775      -3.46827060       7.50137910
Si       2.49338707      -0.37102856       8.13433040
Si     -10.04120294       0.05885413      10.24666045
Si       8.22488542       6.13839998       0.48281641
Si       5.43219955      -0.53856935       1.53131660
Si      -0.04723168       1.89450522       7.48367765
Si       1.02111489      -0.35790994       8.93246276
Si      -0.65730429       1.46279305       4.38559543
Si       4.49210262       0.59739782       2.65850732
Si      -2.23413662       3.99256107       3.32143183
Si      -6.55259839      -2.43491461       5.18882519
Si       1.91192128      10.23459212       0.19750508
Si       9.47174960       3.34989048       1.62880690
Si       5.99460370       7.48617947      -4.01975753
Si       0.54720945      -1.89120818       0.63296113
Si       5.05782263      -2.08078460       5.78601958
Si       4.36023256       3.31874108       2.40887813
Si      -0.26130610       2.96705867       4.95356645
Si      -1.16220274       3.20041262       2.35384878
Si      -0.51998254       0.40596663       6.90017055
22
Lattice="12.065761795379114 0.8869635612148377 -1.1587415199208235 -0.9570292129989071 11.564505154661447 -1.7628419357884721 -7.710541356804426 -5.198032695146926 9.382065460597415" Properties=species:S:1:pos:R:3 unique_starting_index=18 config_type=initial n_minim_iter=17 stress="0.0010946797163270245 0.00015365577359412942 -0.0004510183044763954 0.00015365577359412942 0.0007271676478738257 0.00013391529897038284 -0.0004510183044763954 0.00013391529897038284 0.0005903714625342213" pbc="T T T"
Si       3.54845788       9.43465684      -0.00633512
Si       0.96484844       1.04162688       6.50691005
Si      -5.28014153      -3.45580870       7.50659105
Si       2.49266827      -0.37116744       8.13541127
Si     -10.04275044       0.05945371      10.25184369
Si       8.22210884       6.13012511       0.47959604
Si       5.43355024      -0.53910797       1.53193867
Si      -0.04833164       1.89516836       7.48341679
Si       1.01867147      -0.35971150       8.93507078
Si      -0.66069268       1.46174036       4.38753715
Si       4.48952197       0.59562967       2.65835068
Si      -2.23415718       3.99256835       3.32502999
Si      -6.55030185      -2.43053284       5.19000364
Si       1.90585865      10.22890471       0.19528335
Si       9.46673729       3.34501246       1.63038005
Si       5.99572947       7.48432197      -4.02056584
Si       0.55365250      -1.89066701       0.61814564
Si       5.05758705      -2.08425458       5.78186996
Si       4.36591661       3.32747450       2.41836934
Si      -0.26133219       2.96791978       4.95097954
Si      -1.16841821       3.19557691       2.35576030
Si      -0.52342070       0.40943829       6.90490010
22
Lattice="12.070625126500547 0.8788454669454469 -1.1509836059405996 -0.965756809950516 11.55436019802352 -1.7619993003769994 -7.705885064673329 -5.188638822363162 9.369602523668027" Properties=species:S:1:pos:R:3 unique_starting_index=18 config_type=initial n_minim_iter=18 stress="0.002657282693249592 -0.0004110019792129939 0.0006409187864608501 -0.0004110019792129939 -0.00018455408781287104 8.954076411650359e-05 0.0006409187864608501 8.954076411650359e-05 -0.0026816179576083527" pbc="T T T"
Si       3.54125802       9.41713606      -0.00336078
Si       0.96639009       1.03274642       6.50157688
Si      -5.27310329      -3.43479133       7.50066576
Si       2.50126895      -0.37384522       8.13104226
Si     -10.04369791       0.06401120      10.23608125
Si       8.22209244       6.11505208       0.48441924
Si       5.43615563      -0.54003322       1.53716936
Si      -0.04275954       1.89817139       7.47440248
Si       1.02434699      -0.36495992       8.92474643
Si      -0.66251247       1.46015534       4.38418405
Si       4.49196623       0.59122506       2.66083353
Si      -2.23602348       3.99097729       3.32203413
Si      -6.54584731      -2.42199556       5.18036699
Si       1.89772050      10.21535664       0.19045378
Si       9.46156557       3.33492361       1.64018368
Si       5.99544996       7.47625244      -4.01155002
Si       0.56427523      -1.88949627       0.59687633