10
Lattice="5.433587152722271 -0.143947885193942 1.21603084655745e-17 -2.9070884100219896 7.702269492010639 -6.506658488358728e-16 2.040966172086153e-30 6.123273491319168e-16 7.24843676486265" Properties=species:S:1:pos:R:3 unique_starting_index=14 config_type=initial n_minim_iter=1 energy=-1630.969481970027 free_energy=-1630.969481970027 pbc="T T T"
Si       0.82374172       4.62134848       0.81595377
Si       1.70275702       2.93697313       0.81595377
Si       2.24590095       0.75689293       0.78886813
Si       0.28059779       6.80142868       0.78886813
Si       1.65473584       1.41610452       4.67474595
Si       0.87176290       6.14221708       4.67474595
Si       0.67697845       5.36585948       2.56278051
Si       1.84952029       2.19246213       2.56278051
Si      -0.55112830       4.90088555       4.45231611
Si       3.07762704       2.65743606       4.45231611
10
Lattice="5.426703631304454 -0.14534961012397446 1.2278722206145385e-17 -2.9054215050686327 7.70117695196038 -6.505735541557236e-16 2.0435128701228833e-30 6.130772274422708e-16 7.257313463774839" Properties=species:S:1:pos:R:3 unique_starting_index=14 config_type=initial n_minim_iter=2 stress="-0.003687061595244313 -0.0009173737800293629 -5.546808896513666e-17 -0.0009173737800293629 -0.001723351368842726 -1.3830043515307407e-16 -5.546808896513666e-17 -1.3830043515307407e-16 -0.0012482658475300018" pbc="T T T"
Si       0.82129298       4.62008974       0.81657917
Si       1.69998914       2.93573760       0.81657917
Si       2.24320152       0.75616340       0.79009575
Si       0.27808060       6.79966394       0.79009575
Si       1.65226474       1.41538860       4.68058429
Si       0.86901738       6.14043875       4.68058429
Si       0.67438528       5.36462250       2.56606102
Si       1.84689684       2.19120484       2.56606102
Si      -0.55200180       4.89997077       4.45762537
Si       3.07328393       2.65585658       4.45762537
10
Lattice="5.42843767309564 -0.14475602671555365 1.22285779658412e-17 -2.905430989774404 7.7040775672769195 -6.508185898986355e-16 2.0439396373123e-30 6.139222182450433e-16 7.267316058644188" Properties=species:S:1:pos:R:3 unique_starting_index=14 config_type=initial n_minim_iter=3 stress="0.0005470658668749339 0.0002085554842183591 -1.0036891374342181e-16 0.0002085554842183591 0.0012786257596861508 -4.8708443434307643e-17 -1.0036891374342181e-16 -4.8708443434307643e-17 0.00366993229891013" pbc="T T T"
Si       0.82178806       4.62232286       0.81717137
Si       1.70121862       2.93699868       0.81717137
Si       2.24459863       0.75686571       0.79167609
Si       0.27840805       6.80245583       0.79167609
Si       1.65290296       1.41624322       4.68720908
Si       0.87010372       6.14307832       4.68720908
Si       0.67462590       5.36737673       2.56976217
Si       1.84838078       2.19194481       2.56976217
Si      -0.55220197       4.90212934       4.46347308
Si       3.07520865       2.65719220       4.46347308
10
Lattice="5.430649917080611 -0.14336695570793231 1.211123319269287e-17 -2.904936908920399 7.6930792881943395 -6.498894865217121e-16 2.0402470930400232e-30 6.130591588339229e-16 7.257099576276226" Properties=species:S:1:pos:R:3 unique_starting_index=14 config_type=initial n_minim_iter=4 stress="0.00016066308555328946 0.0022041736531200964 -6.953508790560102e-17 0.0022041736531200964 -0.00281529852923172 1.693993098976876e-16 -6.953508790560102e-17 1.693993098976876e-16 -0.0002901433262567738" pbc="T T T"
Si       0.81787130       4.61955756       0.80995475
Si       1.70784171       2.93015477       0.80995475
Si       2.25581056       0.75837311       0.79994165
Si       0.26990244       6.79133922       0.79994165
Si       1.65309319       1.41648020       4.68179899
Si       0.87261982       6.13323213       4.68179899
Si       0.66521897       5.36720972       2.56747928
Si       1.86049403       2.18250261       2.56747928
Si      -0.56185426       4.89881127       4.45137865
Si       3.08756727       2.65090106       4.45137865
10
Lattice="5.431088101353871 -0.15158942924807886 1.2805844401905876e-17 -2.9163711335980613 7.710284759508912 -6.513429558672253e-16 2.0383677850244042e-30 6.128410070826185e-16 7.2545172007270775" Properties=species:S:1:pos:R:3 unique_starting_index=14 config_type=initial n_minim_iter=5 stress="0.0007070372058626802 -0.0011049226053393834 -2.8071615700847575e-17 -0.0011049226053393834 0.0016668822426109786 4.439747641107735e-16 -2.8071615700847575e-17 4.439747641107735e-16 -0.000803940621698124" pbc="T T T"
Si       0.81062891       4.62595000       0.80930394
Si       1.70408806       2.93274533       0.80930394
Si       2.25635721       0.75697897       0.80096586
Si       0.25835975       6.80171636       0.80096586
Si       1.65154496       1.41712293       4.68067735
Si       0.86317201       6.14157240       4.68067735
Si       0.65530602       5.37600792       2.56594029
Si       1.85941094       2.18268741       2.56594029
Si      -0.57072703       4.90894205       4.44892942
Si       3.08544400       2.64975328       4.44892942
10
Lattice="5.431869208053579 -0.1510745216432447 1.2762346470014636e-17 -2.916060257157262 7.710242823030362 -6.513394131926355e-16 2.0424123519274346e-30 6.1379296166983e-16 7.265785981450666" Properties=species:S:1:pos:R:3 unique_starting_index=14 config_type=initial n_minim_iter=6 stress="0.0010685715094274986 0.0007092656350902937 -1.7993787519082351e-16 0.0007092656350902937 -0.0002683739329427285 3.1083530488906604e-16 -1.7993787519082351e-16 3.1083530488906604e-16 7.691795497573191e-07" pbc="T T T"
Si       0.81252721       4.62062773       0.81283346
Si       1.70328174       2.93854057       0.81283346
Si       2.26370820       0.76006804       0.80628197
Si       0.25210075       6.79910026       0.80628197
Si       1.65619329       1.42207731       4.69168455
Si       0.85961566       6.13709099       4.69168455
Si       0.64566378       5.37628151       2.56315366
Si       1.87014517       2.18288679       2.56315366
Si      -0.57754771       4.91576962       4.45253176
Si       3.09335665       2.64339868       4.45253176
10
Lattice="5.426898833256494 -0.15271608670226056 1.2901021223430077e-17 -2.915537015391904 7.717450551297858 -6.5194830160354e-16 2.0447804721876454e-30 6.145309430146007e-16 7.274521849804094" Properties=species:S:1:pos:R:3 unique_starting_index=14 config_type=initial n_minim_iter=7 stress="-0.0009123885504017909 -0.00024414294578500097 -4.375607694853069e-16 -0.00024414294578500097 0.0009697391843571769 -6.740203772374677e-17 -4.375607694853069e-16 -6.740203772374677e-17 0.0002834295278229815" pbc="T T T"
Si       0.81147699       4.62804806       0.81795574
Si       1.69988483       2.93668640       0.81795574
Si       2.26198749       0.76279558       0.80366560
Si       0.24937433       6.80193888       0.80366560
Si       1.65467434       1.42547446       4.69350454
Si       0.85668748       6.13926001       4.69350454
Si       0.63976000       5.37681048       2.57094648
Si       1.87160182       2.18792399       2.57094648
Si      -0.58396153       4.92204972       4.45643588
Si       3.09532334       2.64268474       4.45643588
10
Lattice="5.4311548318005975 -0.1596980769652614 1.3490839928910517e-17 -2.9277478831355603 7.716067554539042 -6.51831469965677e-16 2.0495327144293775e-30 6.150608087393955e-16 7.280794145505874" Properties=species:S:1:pos:R:3 unique_starting_index=14 config_type=initial n_minim_iter=8 stress="0.0003900052293927257 -0.00166986317738833 -2.8297120430964043e-16 -0.00166986317738833 -0.0010639810345914893 -3.679729574897795e-18 -2.8297120430964043e-16 -3.679729574897795e-18 0.0006678566930113536" pbc="T T T"
Si       0.80779663       4.62316120       0.82073192
Si       1.69561032       2.93320828       0.82073192
Si       2.26527993       0.75859234       0.80347479
Si       0.23812702       6.79777714       0.80347479
Si       1.65418646       1.42391622       4.69579016
Si       0.84922048       6.13245326       4.69579016
Si       0.62982529       5.37151793       2.57481270
Si       1.87358165       2.18485155       2.57481270
Si      -0.59545558       4.92091246       4.45920295
Si       3.09886253       2.63545702       4.45920295
10
Lattice="5.427748764561191 -0.15874192812430804 1.3410067190712031e-17 -2.9243784941951363 7.723303602605103 -6.524427507527234e-16 2.0484161080695904e-30 6.151619277536676e-16 7.281991143780924" Properties=species:S:1:pos:R:3 unique_starting_index=14 config_type=initial n_minim_iter=9 stress="-0.0005661081564984755 -0.00031034553232876517 -3.6703202620126353e-16 -0.00031034553232876517 0.0011590948465618235 6.47270907930084e-17 -3.6703202620126353e-16 6.47270907930084e-17 0.00025304505860133686" pbc="T T T"
Si       0.80929867       4.62757988       0.82222865
Si       1.69407160       2.93698179       0.82222865
Si       2.26571327       0.75970442       0.80345595
Si       0.23765700       6.80485725       0.80345595
Si       1.65340627       1.42656076       4.69575626
Si       0.84996399       6.13800092       4.69575626
Si       0.62832544       5.37680216       2.57548385
Si       1.87504483       2.18775951       2.57548385
Si      -0.59702655       4.92650225       4.45928328
Si       3.10039682       2.63805943       4.45928328
10
Lattice="5.428355826137906 -0.1621281900597878 1.3696128980540987e-17 -2.929534234260154 7.722140130780497 -6.52344463957755e-16 2.0540255939542976e-30 6.162234905178109e-16 7.294557413405715" Properties=species:S:1:pos:R:3 unique_starting_index=14 config_type=initial n_minim_iter=10 stress="0.0007901937172742278 0.00021495502007852393 -2.559687584379993e-16 0.00021495502007852393 -0.00018377848781825077 3.488813780718786e-16 -2.559687584379993e-16 3.488813780718786e-16 0.0002487300472093359" pbc="T T T"
Si       0.80920360       4.62568806       0.82805110
Si       1.68961799       2.93432388       0.82805110
Si       2.26963485       0.76078483       0.80590091
Si       0.22918673       6.79922712       0.80590091
Si       1.65283259       1.42752794       4.70229900
Si       0.84598900       6.13248400       4.70229900
Si       0.61845112       5.37426987       2.57754225
Si       1.88037047       2.18574207       2.57754225
Si      -0.60758507       4.92741571       4.46546304
Si       3.10640666       2.63259623       4.46546304
10
Lattice="5.427992783287077 -0.16104776661875586 1.3604857877122648e-17 -2.9277631396156556 7.723851075918553 -6.524889997431777e-16 2.0550124603935553e-30 6.161919757833266e-16 7.294184357130511" Properties=species:S:1:pos:R:3 unique_starting_index=14 config_type=initial n_minim_iter=11 stress="0.00023558841703287713 0.00021659068353445342 -4.138054673268336e-16 0.00021659068353445342 -0.00010633099947475486 1.0758207801842257e-16 -4.138054673268336e-16 1.0758207801842257e-16 -8.009835754367147e-05" pbc="T T T"
Si       0.81135209       4.62734932       0.82798097
Si       1.68887755       2.93545399       0.82798097
Si       2.26966847       0.76151745       0.80597714
Si       0.23056117       6.80128586       0.80597714
Si       1.65294721       1.42870374       4.70091159
Si       0.84728243       6.13409957       4.70091159
Si       0.61952624       5.37689685       2.57790820
Si       1.88070340       2.18590646       2.57790820
Si      -0.60472215       4.92884922       4.46579417
Si       3.10495179       2.63395409       4.46579417
10
Lattice="5.4275087352505285 -0.16149328167815155 1.364249372388074e-17 -2.9280552977050416 7.726885786512826 -6.527453634742628e-16 2.0563577759703576e-30 6.164316654318059e-16 7.297021687951448" Properties=species:S:1:pos:R:3 unique_starting_index=14 config_type=initial n_minim_iter=12 stress="-0.0004468904013978381 -3.0828542232240916e-05 -2.6198860582523104e-16 -3.0828542232240916e-05 -1.022010133434321e-05 4.278413366837807e-16 -2.6198860582523104e-16 4.278413366837807e-16 -0.00037402787718610476" pbc="T T T"
Si       0.81384032       4.63059058       0.82942890
Si       1.68561311       2.93480192       0.82942890
Si       2.27036164       0.76100608       0.80619405
Si       0.22909179       6.80438643       0.80619405
Si       1.65140188       1.42911427       4.70062535
Si       0.84805156       6.13627823       4.70062535
Si       0.61872011       5.38023321       2.57887677
Si       1.88073332       2.18515930       2.57887677
Si      -0.60254338       4.93016411       4.46865107
Si       3.10199681       2.63522840       4.46865107
10
Lattice="5.427187404294463 -0.1637669928370583 1.3834570384240685e-17 -2.9309999985625352 7.730903281080781 -6.530847500039036e-16 2.0595351303945022e-30 6.17085005602599e-16 7.304755614781031" Properties=species:S:1:pos:R:3 unique_starting_index=14 config_type=initial n_minim_iter=13 stress="-0.00042013607546951225 -6.900481353691652e-05 -6.449250460010295e-16 -6.900481353691652e-05 0.00011438606474183235 4.701357011473414e-16 -6.449250460010295e-16 4.701357011473414e-16 -0.00036550369519432657" pbc="T T T"
Si       0.81774919       4.63374932       0.83285781
Si       1.67843822       2.93338697       0.83285781
Si       2.27276938       0.76160009       0.80711387
Si       0.22341802       6.80553620       0.80711387
Si       1.64811454       1.42930926       4.70239187
Si       0.84807286       6.13782702       4.70239187
Si       0.61316909       5.38395120       2.58146700
Si       1.88301831       2.18318509       2.58146700
Si      -0.60336607       4.93206904       4.47413071
Si       3.09955348       2.63506725       4.47413071
10
Lattice="5.42646759545164 -0.17391175898938407 1.469157141317005e-17 -2.9446317109440243 7.744631010570274 -6.542444295983575e-16 2.0667165883890394e-30 6.195210421053386e-16 7.33359224370515" Properties=species:S:1:pos:R:3 unique_starting_index=14 config_type=initial n_minim_iter=14 stress="0.000954737304593313 8.81609281402377e-05 -6.943318004060048e-16 8.81609281402377e-05 0.0008515454140795769 5.568511865651099e-16 -6.943318004060048e-16 5.568511865651099e-16 0.0005276868191140265" pbc="T T T"
Si       0.82939007       4.64529459       0.84596615
Si       1.65244581       2.92542466       0.84596615
Si       2.28519049       0.76247068       0.80927240
Si       0.19664539       6.80824857       0.80927240
Si       1.63586074       1.42949881       4.71301443
Si       0.84597514       6.14122044       4.71301443
Si       0.58756275       5.39230449       2.58989694
Si       1.89427313       2.17841476       2.58989694
Si      -0.61011271       4.93966029       4.49270182
Si       3.09194859       2.63105896       4.49270182
10
Lattice="5.426144994218483 -0.17562491694002505 1.483629413071453e-17 -2.9469015201128963 7.744104208618508 -6.541999268658226e-16 2.0637777541762416e-30 6.19432799534334e-16 7.332547670574779" Properties=species:S:1:pos:R:3 unique_starting_index=14 config_type=initial n_minim_iter=15 stress="-0.000564454458284912 -3.2897739792231076e-05 -5.304438064043738e-16 -3.2897739792231076e-05 0.0001507915501732207 1.9225851855234182e-16 -5.304438064043738e-16 1.9225851855234182e-16 0.00017576861344709857" pbc="T T T"
Si       0.83025342       4.64438901       0.84584874
Si       1.64899005       2.92409028       0.84584874
Si       2.28670653       0.76304550       0.80834681
Si       0.19253694       6.80543380       0.80834681
Si       1.63362156       1.42862088       4.71286092
Si       0.84562191       6.13985841       4.71286092
Si       0.58421186       5.39009670       2.58990598
Si       1.89503161       2.17838259       2.58990598
Si      -0.61148427       4.93861412       4.49197340
Si       3.09072774       2.62986517       4.49197340
10
Lattice="5.42695978866992 -0.17459451573773938 1.4749248763940213e-17 -2.9459965234715035 7.739586114352845 -6.538182510956439e-16 2.0599148712297432e-30 6.18634214336044e-16 7.323094402940454" Properties=species:S:1:pos:R:3 unique_starting_index=14 config_type=initial n_minim_iter=16 stress="-0.00014540511314702938 2.332486145109035e-05 -7.914998563218071e-16 2.332486145109035e-05 -0.0007354356106747611 2.7223794688815617e-16 -7.914998563218071e-16 2.7223794688815617e-16 -7.791115944638365e-05" pbc="T T T"
Si       0.82811374       4.64057157       0.84175466
Si       1.65284952       2.92442002       0.84175466
Si       2.28574930       0.76327222       0.80674404
Si       0.19521397       6.80171938       0.80674404
Si       1.63474525       1.42759492       4.70987344
Si       0.84621801       6.13739668       4.70987344
Si       0.58818964       5.38526175       2.58721830
Si       1.89277362       2.17972985       2.58721830
Si      -0.61042124       4.93515821       4.48600676
Si       3.09138450       2.62983339       4.48600676
10
Lattice="5.428627519811312 -0.178012550001859 1.5037994589845217e-17 -2.951614090919544 7.74411081154593 -6.542004846623762e-16 2.055251160590873e-30 6.183218192798216e-16 7.319396420457895" Properties=species:S:1:pos:R:3 unique_starting_index=14 config_type=initial n_minim_iter=17 stress="-0.0007156433356878635 0.00016037667710544143 -8.491249457107981e-16 0.00016037667710544143 1.8977753450815977e-05 -1.4249515009776731e-16 -8.491249457107981e-16 -1.4249515009776731e-16 -0.00011625091321237697" pbc="T T T"
Si       0.83104876       4.64427581       0.84002113
Si       1.64596467       2.92182245       0.84002113
Si       2.29360482       0.76459931       0.80537180
Si       0.18340860       6.80149895       0.80537180
Si       1.63110863       1.42920242       4.70928671
Si       0.84590480       6.13689584       4.70928671
Si       0.58130842       5.38421790       2.58571400
Si       1.89570501       2.18188036       2.58571400
Si      -0.61185126       4.93704771       4.48442095
Si       3.08886469       2.62905055       4.48442095
10
Lattice="5.43309239478863 -0.18245018910786343 1.5412873736664304e-17 -2.9602312482539155 7.7464561271160175 -6.543986102600047e-16 2.057723225228064e-30 6.181683136563952e-16 7.317579294690062" Properties=species:S:1:pos:R:3 unique_starting_index=14 config_type=initial n_minim_iter=18 stress="0.0010070846604396783 -0.0002633903486917933 -1.0232223771367036e-15 -0.0002633903486917933 0.0005459616027530209 -8.399041639594641e-16 -1.0232223771367036e-15 -8.399041639594641e-16 7.489531235201045e-05" pbc="T T T"
Si       0.83384959       4.64565881       0.83808387
Si       1.63901156       2.91834712       0.83808387
Si       2.30114091       0.76458121       0.80523970
Si       0.17172023       6.79942472       0.80523970
Si       1.62744888       1.43062825       4.70770207
Si       0.84541226       6.13337769       4.70770207
Si       0.57837281       5.38294679       2.58428731
Si       1.89448833       2.18105914       2.58428731
Si      -0.61426135       4.93518335       4.48616876
Si       3.08712250       2.62882259       4.48616876
10
Lattice="5.432656394114934 -0.1814092319338386 1.5324936631381088e-17 -2.9585441570504085 7.74563452351804 -6.543292035217649e-16 2.059252004276495e-30 6.181976240395482e-16 7.31792625691401" Properties=species:S:1:pos:R:3 unique_starting_index=14 config_type=initial n_minim_iter=19 stress="0.0005680279474398737 -3.668111628897074e-05 -6.807282423785694e-16 -3.668111628897074e-05 0.00013733388476033255 -7.67280062895587e-16 -6.807282423785694e-16 -7.67280062895587e-16 2.8640366460408104e-05" pbc="T T T"
Si       0.83426693       4.64549539       0.83782490
Si       1.63984531       2.91872990       0.83782490
Si       2.30117801       0.76534073       0.80566990
Si       0.17293422       6.79888457       0.80566990
Si       1.62790335       1.43247802       4.70759583
Si       0.84620889       6.13174727       4.70759583
Si       0.58082337       5.38245876       2.58441942
Si       1.89328887       2.18176654       2.58441942
Si      -0.61431414       4.93497734       4.48660805
Si       3.08842638       2.62924795       4.48660805
10
Lattice="5.432520406632182 -0.18184972664025825 1.536214837297979e-17 -2.959073919547077 7.746461007405297 -6.543990225329806e-16 2.061075175962711e-30 6.183191217561414e-16 7.319364488469483" Properties=species:S:1:pos:R:3 unique_starting_index=14 config_type=initial n_minim_iter=20 stress="-0.00013175045736978463 6.111845444695501e-05 -1.0602733181394066e-15 6.111845444695501e-05 -4.421928314475625e-05 -1.0025862712158438e-15 -1.0602733181394066e-15 -1.0025862712158438e-15 -3.538788239490097e-05" pbc="T T T"
Si       0.83524408       4.64624198       0.83811481
Si       1.63820240       2.91836930       0.83811481
Si       2.30273884       0.76599975       0.80614074
Si       0.17070765       6.79861153       0.80614074
Si       1.62683796       1.43439747       4.70821157
Si       0.84660853       6.13021381       4.70821157
Si       0.58060695       5.38213064       2.58497878
Si       1.89283953       2.18248064       2.58497878
Si      -0.61545521       4.93569434       4.48731012
Si       3.08890169       2.62891694       4.48731012
10
Lattice="5.43305973985035 -0.18381518796194576 1.552818496265721e-17 -2.96208640356969 7.748807743099721 -6.545972680986792e-16 2.063046794830786e-30 6.186716786037121e-16 7.323537886929079" Properties=species:S:1:pos:R:3 unique_starting_index=14 config_type=initial n_minim_iter=21 stress="-0.001044782668271736 0.00010595711835859251 -7.390992228858897e-16 0.00010595711835859251 -0.00047223156074881624 -4.709659904963887e-16 -7.390992228858897e-16 -4.709659904963887e-16 -0.00014685040612656743" pbc="T T T"
Si       0.83700203       4.64769984       0.83897120
Si       1.63397131       2.91729271       0.83897120
Si       2.30599350       0.76660461       0.80806750
Si       0.16497983       6.79838795       0.80806750
Si       1.62278043       1.43882922       4.71077303
Si       0.84819290       6.12616333       4.71077303
Si       0.58079782       5.38116752       2.58657690
Si       1.89017551       2.18382504       2.58657690
Si      -0.61819129       4.93762182       4.48802199
Si       3.08916462       2.62737073       4.48802199
