22
Lattice="12.921862791116425 1.1428603553126093 -1.6116782059737544 -0.6123151696951965 9.664949880731626 -2.2658031641182634 -8.67533748964188 -4.951893037361397 10.097065491755076" Properties=species:S:1:pos:R:3 unique_starting_index=18 config_type=initial n_minim_iter=1 energy=-3752.82937273666 free_energy=-3752.82937273666 pbc="T T T"
Si       4.24773941       7.79006781      -0.31890790
Si       0.65200622       0.30044203       6.51111038
Si      -5.99109436      -2.98310543       8.29988530
Si       2.34235835      -0.94222285       8.17410458
Si     -11.25618146      -0.83783620      10.68734149
Si       8.82730817       5.08691696      -0.34741960
Si       5.61361290      -0.18261544       1.77029028
Si      -0.00253046       1.54336240       7.38609935
Si       0.81737553      -1.10890731       8.86455766
Si      -1.12371971       0.69779331       4.48204527
Si       4.59344320       0.89970636       2.86515355
Si      -2.13662689       3.46696006       3.15353818
Si      -7.31090661      -2.22674049       5.92062827
Si       2.54543710       8.50286077      -0.24137545
Si       9.93041522       3.20094983       1.33455485
Si       6.90832963       6.89182006      -4.73318414
Si       1.09043476      -2.07977688       0.51355330
Si       5.24727189      -2.10959961       5.88133501
Si       4.67247364       3.63541212       2.49623071
Si      -0.26631971       2.10383990       4.68845886
Si      -1.49225062       2.22835698       2.26225392
Si      -0.85568430       0.13379295       7.17760157
22
Lattice="12.921256889695435 1.1435099017165884 -1.6113833311330026 -0.6117628146898082 9.664121464325726 -2.2656728753304995 -8.675105550379417 -4.952150191450798 10.09562966575945" Properties=species:S:1:pos:R:3 unique_starting_index=18 config_type=initial n_minim_iter=2 stress="-0.0014880226021405578 0.0005181810702135886 -0.0003452004054604768 0.0005181810702135886 -0.0012200821835215692 0.00034264019467445875 -0.0003452004054604768 0.00034264019467445875 -0.002154618684848054" pbc="T T T"
Si       4.24793159       7.78967216      -0.31894860
Si       0.65201120       0.30023753       6.51010045
Si      -5.99090441      -2.98334436       8.29875531
Si       2.34221841      -0.94223299       8.17304184
Si     -11.25563077      -0.83857865      10.68563928
Si       8.82714189       5.08699497      -0.34747866
Si       5.61342577      -0.18227675       1.77006947
Si      -0.00247499       1.54312995       7.38502817
Si       0.81730245      -1.10893704       8.86318998
Si      -1.12360171       0.69759222       4.48139311
Si       4.59326927       0.89982863       2.86470456
Si      -2.13625627       3.46646878       3.15295745
Si      -7.31060410      -2.22709871       5.91972690
Si       2.54571782       8.50226323      -0.24147591
Si       9.93006753       3.20106692       1.33432752
Si       6.90837625       6.89163623      -4.73248933
Si       1.09028187      -2.07951911       0.51353754
Si       5.24695672      -2.10921427       5.88055133
Si       4.67245440       3.63530884       2.49584574
Si      -0.26616962       2.10354938       4.68769101
Si      -1.49206225       2.22805545       2.26186565
Si      -0.85550570       0.13363014       7.17654446
22
Lattice="12.923751410763224 1.144971993479751 -1.6099416963094138 -0.6112721405074512 9.664187031325696 -2.267485762903898 -8.676042785265281 -4.9546752859336 10.095212710288925" Properties=species:S:1:pos:R:3 unique_starting_index=18 config_type=initial n_minim_iter=3 stress="0.00018553328130776697 0.0011350832005884866 0.0013657091494433584 0.0011350832005884866 7.488163836606676e-05 -0.0015132782253023075 0.0013657091494433584 -0.0015132782253023075 0.0004820849649146873" pbc="T T T"
Si       4.24934779       7.79011176      -0.31959959
Si       0.65291905       0.29861709       6.50964074
Si      -5.99135828      -2.98532516       8.29872356
Si       2.34353825      -0.94382957       8.17385799
Si     -11.25686131      -0.84138382      10.68368928
Si       8.82933119       5.08788586      -0.34762130
Si       5.61531161      -0.18180894       1.77075674
Si      -0.00183551       1.54205390       7.38482665
Si       0.81832039      -1.11046458       8.86273494
Si      -1.12322047       0.69663873       4.48111886
Si       4.59458573       0.89972813       2.86482242
Si      -2.13573296       3.46558520       3.15182592
Si      -7.31144683      -2.22894844       5.91890212
Si       2.54665287       8.50226047      -0.24260233
Si       9.93235438       3.20093770       1.33479420
Si       6.91001311       6.89264596      -4.73219584
Si       1.09045518      -2.07929818       0.51410214
Si       5.24872875      -2.10957578       5.88147130
Si       4.67404979       3.63519882       2.49584380
Si      -0.26546418       2.10263083       4.68695153
Si      -1.49196527       2.22749171       2.26115301
Si      -0.85436109       0.13243210       7.17627750
22
Lattice="12.924953146705848 1.1433946123337637 -1.6112077266411657 -0.6121127647347976 9.663897555394943 -2.266294883832627 -8.677423216950933 -4.952630819740474 10.0951484442721" Properties=species:S:1:pos:R:3 unique_starting_index=18 config_type=initial n_minim_iter=4 stress="0.0009121290383311949 0.00039996877294155934 -0.0007485400789374049 0.00039996877294155934 0.0011838065660188329 0.0006272374281699065 -0.0007485400789374049 0.0006272374281699065 -0.0004401156070438099" pbc="T T T"
Si       4.24884507       7.78966295      -0.31910666
Si       0.65217218       0.29900133       6.50907639
Si      -5.99252098      -2.98376786       8.29887388
Si       2.34289370      -0.94344299       8.17334759
Si     -11.25913591      -0.83892591      10.68408163
Si       8.82958542       5.08695050      -0.34822810
Si       5.61595855      -0.18207448       1.77000101
Si      -0.00304982       1.54297195       7.38472090
Si       0.81743387      -1.10963956       8.86174292
Si      -1.12387879       0.69716318       4.48108725
Si       4.59453783       0.89953913       2.86411170
Si      -2.13661245       3.46608525       3.15222082
Si      -7.31247056      -2.22760304       5.91908477
Si       2.54579193       8.50184156      -0.24192426
Si       9.93270780       3.19963276       1.33384269
Si       6.91051524       6.89123470      -4.73166844
Si       1.09076706      -2.07924799       0.51376950
Si       5.24886445      -2.10939993       5.88035548
Si       4.67379218       3.63492620       2.49564645
Si      -0.26629018       2.10312804       4.68684801
Si      -1.49263999       2.22781583       2.26135369
Si      -0.85506875       0.13336895       7.17604400
22
Lattice="12.923970847943426 1.1415485052989411 -1.61092803166294 -0.6134100840769255 9.662511777358166 -2.266588207905452 -8.675950776912075 -4.950893105187456 10.095474214550205" Properties=species:S:1:pos:R:3 unique_starting_index=18 config_type=initial n_minim_iter=5 stress="-0.0006586041874996647 -0.0010297518467250859 9.450387056765576e-05 -0.0010297518467250859 -0.0001315858874500438 0.0001680798506820939 9.450387056765576e-05 0.0001680798506820939 0.00037593129060682477" pbc="T T T"
Si       4.24749660       7.78801048      -0.31901655
Si       0.65222727       0.29872804       6.50934900
Si      -5.99153362      -2.98264749       8.29932368
Si       2.34311472      -0.94391348       8.17401717
Si     -11.25815513      -0.83741373      10.68414002
Si       8.82837756       5.08507759      -0.34816927
Si       5.61594322      -0.18269813       1.77025339
Si      -0.00309153       1.54266140       7.38507545
Si       0.81773678      -1.10973746       8.86203049
Si      -1.12375121       0.69706563       4.48124143
Si       4.59419985       0.89876514       2.86427318
Si      -2.13689723       3.46570179       3.15224478
Si      -7.31151677      -2.22646197       5.91912477
Si       2.54437468       8.50017838      -0.24194923
Si       9.93180130       3.19765937       1.33408143
Si       6.90914396       6.88931799      -4.73161802
Si       1.09102457      -2.07900953       0.51388843
Si       5.24908251      -2.10977685       5.88084653
Si       4.67310975       3.63372024       2.49591434
Si      -0.26649228       2.10275899       4.68699146
Si      -1.49283664       2.22754663       2.26131141
Si      -0.85472580       0.13336778       7.17640284
22
Lattice="12.930275767863513 1.1431444222312472 -1.611832747905807 -0.6120050642118167 9.656895182163012 -2.2677530049704893 -8.681400215546615 -4.950597859432683 10.096501481402445" Properties=species:S:1:pos:R:3 unique_starting_index=18 config_type=initial n_minim_iter=6 stress="0.0010873818888305661 7.516946396284236e-05 -0.0005558049308634342 7.516946396284236e-05 -0.0009204149685915786 -8.123338345858227e-05 -0.0005558049308634342 -8.123338345858227e-05 0.00022662503098317237" pbc="T T T"
Si       4.25026798       7.78492263      -0.31939674
Si       0.65178997       0.29826145       6.50900085
Si      -5.99539866      -2.98278182       8.30124307
Si       2.34371759      -0.94531947       8.17507383
Si     -11.26491079      -0.83926708      10.68376237
Si       8.83334295       5.08389015      -0.34993189
Si       5.62035043      -0.18102135       1.76990323
Si      -0.00302950       1.54112473       7.38456811
Si       0.81678038      -1.11038044       8.86085610
Si      -1.12448779       0.69513176       4.48088007
Si       4.59612586       0.89874330       2.86308831
Si      -2.13817244       3.46229777       3.15192875
Si      -7.31528454      -2.22754125       5.91922634
Si       2.54590138       8.49542118      -0.24274508
Si       9.93758593       3.19622734       1.33261693
Si       6.91435932       6.88693407      -4.73168624
Si       1.09144257      -2.07713722       0.51427998
Si       5.25151406      -2.10776789       5.88083718
Si       4.67576588       3.63209468       2.49568629
Si      -0.26708711       2.10113825       4.68647058
Si      -1.49370710       2.22488012       2.26039168
Si      -0.85539151       0.13191508       7.17665709
22
Lattice="12.92895835859092 1.1435463215738304 -1.6107643906165274 -0.6118998975798099 9.658037487577221 -2.26750846173592 -8.679933995693252 -4.9512184891673465 10.095267312969337" Properties=species:S:1:pos:R:3 unique_starting_index=18 config_type=initial n_minim_iter=7 stress="-0.0004593057885191838 0.0002667972567658109 0.00029496153710492683 0.0002667972567658109 0.000975997921847575 0.0005259089856076372 0.00029496153710492683 0.0005259089856076372 4.468795990364854e-05" pbc="T T T"
Si       4.24989623       7.78618892      -0.31872846
Si       0.65214051       0.29847032       6.50868723
Si      -5.99430765      -2.98310485       8.30062846
Si       2.34409181      -0.94551953       8.17503455
Si     -11.26323888      -0.83932398      10.68224789
Si       8.83264778       5.08478557      -0.34923896
Si       5.62038789      -0.18068502       1.77023470
Si      -0.00236103       1.54165686       7.38421322
Si       0.81729019      -1.11041207       8.86030680
Si      -1.12408160       0.69515327       4.48055959
Si       4.59587729       0.89905029       2.86313321
Si      -2.13781752       3.46270576       3.15169555
Si      -7.31410672      -2.22798383       5.91824016
Si       2.54561746       8.49650440      -0.24228243
Si       9.93692887       3.19660410       1.33325546
Si       6.91367409       6.88787771      -4.73076105
Si       1.09139330      -2.07724583       0.51434448
Si       5.25157490      -2.10764417       5.88093952
Si       4.67560564       3.63273144       2.49611292
Si      -0.26687110       2.10154985       4.68623143
Si      -1.49339712       2.22493913       2.26002431
Si      -0.85475609       0.13191033       7.17626649
22
Lattice="12.931801369585061 1.1423747616189306 -1.6122521243995807 -0.6127234972901284 9.656433961561952 -2.269234658479174 -8.682441549883112 -4.951441340046852 10.096028896204023" Properties=species:S:1:pos:R:3 unique_starting_index=18 config_type=initial n_minim_iter=8 stress="0.00037477618493385643 -0.00017252782450977579 -0.0002505339221933151 -0.00017252782450977579 0.0002565213767601948 -0.0001754992367136471 -0.0002505339221933151 -0.0001754992367136471 -0.00029159226296155257" pbc="T T T"
Si       4.24974921       7.78469769      -0.32037174
Si       0.65144394       0.29693560       6.50755297
Si      -5.99633291      -2.98355962       8.30165545
Si       2.34374430      -0.94795060       8.17425519
Si     -11.26710035      -0.84043217      10.68214666
Si       8.83421192       5.08292717      -0.35130333
Si       5.62254343      -0.18108401       1.76943077
Si      -0.00318429       1.54032568       7.38289852
Si       0.81662778      -1.11225341       8.85927800
Si      -1.12508060       0.69408798       4.48000598
Si       4.59631297       0.89789476       2.86159671
Si      -2.13941311       3.46139861       3.15073433
Si      -7.31585051      -2.22833743       5.91855146
Si       2.54485817       8.49435452      -0.24409885
Si       9.93863993       3.19390481       1.33111735
Si       6.91524321       6.88669343      -4.73274811
Si       1.09193134      -2.07670916       0.51472717
Si       5.25269555      -2.10852640       5.88017565
Si       4.67601328       3.63103060       2.49484284
Si      -0.26818439       2.10020226       4.68503362
Si      -1.49412110       2.22357923       2.25892030
Si      -0.85578879       0.13011945       7.17543459
22
Lattice="12.935385711006886 1.1430139609238565 -1.6140218271086098 -0.6114112811182175 9.646999446356048 -2.270363256412232 -8.686288337267083 -4.948340354269588 10.09973047706383" Properties=species:S:1:pos:R:3 unique_starting_index=18 config_type=initial n_minim_iter=9 stress="0.00012227163789188026 -3.323568754309106e-05 -8.630240187262796e-05 -3.323568754309106e-05 8.4129316101374e-05 2.6736164456767767e-06 -8.630240187262796e-05 2.6736164456767767e-06 -0.00010795000547837571" pbc="T T T"
Si       4.25052666       7.77997608      -0.31976115
Si       0.65018577       0.29603775       6.50882358
Si      -5.99951270      -2.98156166       8.30739992
Si       2.34297384      -0.94937412       8.17633261
Si     -11.27149078      -0.84227110      10.68598403
Si       8.83749004       5.07918377      -0.35191010
Si       5.62793973      -0.17855669       1.76940545
Si      -0.00361258       1.53991998       7.38432784
Si       0.81616751      -1.11277224       8.86181167
Si      -1.12652483       0.69175963       4.48073330
Si       4.59672788       0.89788879       2.86000772
Si      -2.14111207       3.45664370       3.15049860
Si      -7.31743564      -2.22853489       5.92023203
Si       2.54501913       8.48609887      -0.24394402
Si       9.94176725       3.18913081       1.32923587
Si       6.91742725       6.88188586      -4.73637791
Si       1.09244804      -2.07350687       0.51533800
Si       5.25487599      -2.10445415       5.88175013
Si       4.67759709       3.62833809       2.49613535
Si      -0.26912136       2.09872001       4.68502826
Si      -1.49505274       2.21985127       2.25864837
Si      -0.85580060       0.12929996       7.17681707
22
Lattice="12.93594095696206 1.1438368017988296 -1.6145328342227592 -0.6102982881686889 9.641844528248232 -2.2705369766928065 -8.687287918574079 -4.94646646577842 10.101763375880866" Properties=species:S:1:pos:R:3 unique_starting_index=18 config_type=initial n_minim_iter=10 stress="3.2393049909313444e-05 0.00014123034098774634 -7.033889962522076e-05 0.00014123034098774634 -0.00021777741970472337 0.0001681731295181973 -7.033889962522076e-05 0.0001681731295181973 0.00021896912570078085" pbc="T T T"
Si       4.25086323       7.77775875      -0.31893382
Si       0.65044285       0.29602459       6.50990108
Si      -6.00043345      -2.98018467       8.31066774
Si       2.34240688      -0.94932761       8.17746573
Si     -11.27188984      -0.84250322      10.68829672
Si       8.83853372       5.07748286      -0.35166248
Si       5.63023439      -0.17690102       1.76977797
Si      -0.00379540       1.53978533       7.38543433
Si       0.81553992      -1.11308276       8.86369649
Si      -1.12657119       0.69104483       4.48160528
Si       4.59659387       0.89830690       2.85953990
Si      -2.14154802       3.45435216       3.15053104
Si      -7.31727314      -2.22857572       5.92129424
Si       2.54535727       8.48185771      -0.24322641
Si       9.94236481       3.18700255       1.32869950
Si       6.91831790       6.87934417      -4.73793219
Si       1.09251257      -2.07177245       0.51560786
Si       5.25562836      -2.10160910       5.88311289
Si       4.67823258       3.62735255       2.49744958
Si      -0.26983840       2.09756843       4.68573048
Si      -1.49509682       2.21784952       2.25910855
Si      -0.85589525       0.12974049       7.17824284
22
Lattice="12.934909115839993 1.1432251293068658 -1.6134954272209698 -0.6109651081475889 9.641116138060433 -2.2716652865886666 -8.685717893602842 -4.946973631150064 10.10005878926304" Properties=species:S:1:pos:R:3 unique_starting_index=18 config_type=initial n_minim_iter=11 stress="-1.2425677992242273e-05 -0.00010568551839938916 5.040864670873966e-06 -0.00010568551839938916 9.052534798885174e-05 -0.00026559607258128955 5.040864670873966e-06 -0.00026559607258128955 -0.0003590281335706099" pbc="T T T"
Si       4.24964931       7.77790279      -0.31932758
Si       0.65140173       0.29486103       6.50877235
Si      -5.99949785      -2.98045302       8.31055930
Si       2.34210618      -0.95108338       8.17562490
Si     -11.27050999      -0.84362983      10.68531304
Si       8.83808897       5.07619977      -0.35199379
Si       5.63172394      -0.17680793       1.77008746
Si      -0.00352414       1.53880514       7.38322033
Si       0.81585388      -1.11484188       8.86241869
Si      -1.12603181       0.68949254       4.48070226
Si       4.59615154       0.89777708       2.85833277
Si      -2.14228676       3.45339188       3.14857157
Si      -7.31544847      -2.22921264       5.92009147
Si       2.54426289       8.48073278      -0.24381117
Si       9.94132375       3.18459814       1.32804598
Si       6.91649782       6.87920663      -4.73765212
Si       1.09280043      -2.07130873       0.51611176
Si       5.25660354      -2.10165355       5.88309687
Si       4.67802905       3.62663738       2.49749271
Si      -0.26972309       2.09647957       4.68436831
Si      -1.49473386       2.21643370       2.25820574
Si      -0.85558550       0.12904457       7.17684423
22
Lattice="12.932477891974532 1.1443707219574535 -1.6121406904818378 -0.6096749030711021 9.637222621145783 -2.269970839880247 -8.683636326577338 -4.944072507374007 10.10075098822982" Properties=species:S:1:pos:R:3 unique_starting_index=18 config_type=initial n_minim_iter=12 stress="-0.00026211691897815573 0.00023874964868562669 0.00011641371050973515 0.00023874964868562669 -0.0005190311653821373 0.00013131295750042177 0.00011641371050973515 0.00013131295750042177 0.0002938003976751533" pbc="T T T"
Si       4.24961889       7.77737925      -0.31664232
Si       0.65239080       0.29625076       6.51112975
Si      -5.99803997      -2.97771526       8.31321590
Si       2.34141145      -0.94871278       8.17698252
Si     -11.26714837      -0.84283542      10.68590636
Si       8.83690939       5.07575009      -0.34999657
Si       5.63271412      -0.17480268       1.77161389
Si      -0.00231517       1.54095268       7.38519257
Si       0.81625549      -1.11261300       8.86446435
Si      -1.12518056       0.68967669       4.48286097
Si       4.59543819       0.89926286       2.85893546
Si      -2.14232768       3.45185788       3.14929776
Si      -7.31256737      -2.22837874       5.92071656
Si       2.54473757       8.47824310      -0.24082121
Si       9.93979576       3.18427959       1.32987888
Si       6.91515943       6.87628428      -4.73665842
Si       1.09255760      -2.06999207       0.51608161
Si       5.25688568      -2.09752986       5.88546814
Si       4.67818857       3.62728823       2.50064918
Si      -0.26871391       2.09659783       4.68631793
Si      -1.49347332       2.21507023       2.25914478
Si      -0.85474189       0.13081262       7.17871497
22
Lattice="12.932686560812769 1.1421960763514283 -1.611595658288916 -0.6116860662966549 9.6404764744368 -2.2699017986597796 -8.682771911134617 -4.9443289534650114 10.098526729132073" Properties=species:S:1:pos:R:3 unique_starting_index=18 config_type=initial n_minim_iter=13 stress="-3.377462891651474e-05 -0.0002394772419921798 6.341838970381132e-05 -0.0002394772419921798 0.00012219386753680353 -0.00035304649491360986 6.341838970381132e-05 -0.00035304649491360986 -0.0004977087753468043" pbc="T T T"
Si       4.24816415       7.78007692      -0.31678295
Si       0.65218684       0.29596921       6.50994386
Si      -5.99758839      -2.97729673       8.31258318
Si       2.34161352      -0.95038393       8.17423882
Si     -11.26720511      -0.84167394      10.68265949
Si       8.83571662       5.07567687      -0.35052421
Si       5.63416608      -0.17567596       1.77170469
Si      -0.00239319       1.54127145       7.38289380
Si       0.81615782      -1.11381206       8.86250238
Si      -1.12530977       0.68958646       4.48244860
Si       4.59526777       0.89877725       2.85762553
Si      -2.14375924       3.45230256       3.14768400
Si      -7.31130455      -2.22793521       5.91968608
Si       2.54299939       8.48051817      -0.24065348
Si       9.93930281       3.18233477       1.32930135
Si       6.91361197       6.87681879      -4.73606868
Si       1.09317814      -2.07073266       0.51621105
Si       5.25818479      -2.09867532       5.88480716
Si       4.67781848       3.62785796       2.50073364
Si      -0.26919364       2.09686541       4.68515481
Si      -1.49389391       2.21562795       2.25846378
Si      -0.85449438       0.13092954       7.17708437
22
Lattice="12.930676056235187 1.1424571909031256 -1.611075905455971 -0.6110553378164849 9.640496678372203 -2.2664295091902775 -8.681266341599006 -4.940893987979623 10.09975754309435" Properties=species:S:1:pos:R:3 unique_starting_index=18 config_type=initial n_minim_iter=14 stress="-0.00018026057575752975 6.287466172972013e-05 -2.5720029958024198e-05 6.287466172972013e-05 -0.00030098114697228235 1.2586543586070102e-05 -2.5720029958024198e-05 1.2586543586070102e-05 0.00023190375112984164" pbc="T T T"
Si       4.24825471       7.78295479      -0.31325550
Si       0.65229829       0.29926894       6.51249949
Si      -5.99647328      -2.97323400       8.31626064
Si       2.34140246      -0.94765330       8.17563201
Si     -11.26540354      -0.83893403      10.68488947
Si       8.83405916       5.07663649      -0.34948360
Si       5.63513946      -0.17393449       1.77338917
Si      -0.00171899       1.54482011       7.38573718
Si       0.81557329      -1.10973324       8.86582144
Si      -1.12503193       0.69118227       4.48506381
Si       4.59449653       0.90093975       2.85821991
Si      -2.14378393       3.45238401       3.14941122
Si      -7.30822472      -2.22584721       5.92127094
Si       2.54313790       8.48184894      -0.23599973
Si       9.93758289       3.18205039       1.33122247
Si       6.91222544       6.87517926      -4.73494400
Si       1.09314551      -2.07049188       0.51573144
Si       5.25837986      -2.09448677       5.88733528
Si       4.67772736       3.63063475       2.50487851
Si      -0.26929239       2.09877701       4.68774639
Si      -1.49375894       2.21647331       2.25996020
Si      -0.85425613       0.13452540       7.18047108
22
Lattice="12.928013482679805 1.1412191837349765 -1.6064030605198625 -0.6125196651223276 9.644554090940364 -2.2623108772492815 -8.676253291784365 -4.938298820113337 10.094379690219654" Properties=species:S:1:pos:R:3 unique_starting_index=18 config_type=initial n_minim_iter=15 stress="0.000249245964148983 -0.00018233651649268053 0.0003071525899207382 -0.00018233651649268053 -0.0002628947585235977 3.565659605223664e-05 0.0003071525899207382 3.565659605223664e-05 -0.000267082330138015" pbc="T T T"
Si       4.24761570       7.78897558      -0.30877331
Si       0.65410495       0.30275470       6.51207531
Si      -5.99247323      -2.96898791       8.31559850
Si       2.34268472      -0.94591626       8.17504173
Si     -11.25958033      -0.83573583      10.67890667
Si       8.83081212       5.07837470      -0.34637415
Si       5.63694384      -0.17296624       1.77636992
Si       0.00062128       1.54836832       7.38499206
Si       0.81799033      -1.10725564       8.86548168
Si      -1.12389083       0.69348719       4.48496035
Si       4.59444403       0.90274455       2.85846276
Si      -2.14403989       3.45359249       3.14912012
Si      -7.30237739      -2.22319825       5.91856737
Si       2.54205132       8.48655703      -0.23038142
Si       9.93568362       3.18101267       1.33516159
Si       6.90772980       6.87497015      -4.73018436
Si       1.09367761      -2.07130498       0.51544552
Si       5.26061985      -2.09157661       5.88930946
Si       4.67784749       3.63458902       2.50969710
Si      -0.26869861       2.10137557       4.68730635
Si      -1.49346719       2.21788375       2.25936251
Si      -0.85252762       0.13862052       7.18106924
22
Lattice="12.92028131701233 1.1428625946329627 -1.6078244958860684 -0.6109539313701817 9.648959461422589 -2.261424707208257 -8.672267689436849 -4.940072391856745 10.097411086996416" Properties=species:S:1:pos:R:3 unique_starting_index=18 config_type=initial n_minim_iter=16 stress="-0.0006742275299358112 8.642106102025458e-05 -0.000429003266612906 8.642106102025458e-05 8.893758428831537e-05 -0.0004292921295533032 -0.000429003266612906 -0.0004292921295533032 0.00029393695977760056" pbc="T T T"
Si       4.24672030       7.79516124      -0.30822913
Si       0.65278331       0.30401568       6.51355454
Si      -5.98957919      -2.96835987       8.32042673
Si       2.33986070      -0.94586888       8.17688656
Si     -11.25334045      -0.83668867      10.68209660
Si       8.82564517       5.08124682      -0.34794110
Si       5.63479221      -0.17155554       1.77756061
Si       0.00013218       1.55026182       7.38672390
Si       0.81573022      -1.10709901       8.86831611
Si      -1.12389233       0.69459098       4.48638831
Si       4.59149278       0.90439384       2.85803060
Si      -2.14401844       3.45346209       3.14983524
Si      -7.29654385      -2.22340027       5.92117451
Si       2.54160213       8.49165927      -0.22845443
Si       9.92917905       3.18253101       1.33508773
Si       6.90340964       6.87733110      -4.73141188
Si       1.09307010      -2.07208289       0.51544415
Si       5.25736871      -2.08973948       5.89160117
Si       4.67541123       3.63841830       2.51212355
Si      -0.26932881       2.10275393       4.68777674
Si      -1.49241640       2.21847788       2.25961436
Si      -0.85301263       0.14027579       7.18398243
22
Lattice="12.92180243236339 1.141540813077043 -1.6028527708714055 -0.612420503952606 9.648680180571441 -2.257887229287511 -8.669967863635078 -4.936127621502707 10.09162667557011" Properties=species:S:1:pos:R:3 unique_starting_index=18 config_type=initial n_minim_iter=17 stress="0.00019202831752361936 -0.00010097176356736075 0.00035104388581565514 -0.00010097176356736075 -0.00026831158650613416 0.00011397412096619323 0.00035104388581565514 0.00011397412096619323 -0.0001781909278321921" pbc="T T T"
Si       4.24749285       7.79613548      -0.30399601
Si       0.65481084       0.30624410       6.51308208
Si      -5.98735603      -2.96430456       8.31761338
Si       2.34293912      -0.94368549       8.17640611
Si     -11.25147980      -0.83271787      10.67645437
Si       8.82668173       5.08038002      -0.34354437
Si       5.63704957      -0.17091400       1.77988147
Si       0.00254408       1.55304138       7.38603697
Si       0.81839557      -1.10427623       8.86739063
Si      -1.12288242       0.69640038       4.48556465
Si       4.59329628       0.90529214       2.85918435
Si      -2.14422937       3.45384926       3.14939092
Si      -7.29456309      -2.22039733       5.91748135
Si       2.54157553       8.49228521      -0.22401755
Si       9.93057124       3.18196993       1.33929426
Si       6.90204197       6.87500303      -4.72619920
Si       1.09374298      -2.07206102       0.51516293
Si       5.26068043      -2.08733074       5.89269145
Si       4.67695562       3.63983798       2.51557023
Si      -0.26832660       2.10440493       4.68737398
Si      -1.49194345       2.21909093       2.25932913
Si      -0.85104361       0.14321320       7.18307631
22
Lattice="12.916527665509376 1.1406062976390985 -1.6032614750227083 -0.6127936270329132 9.65289699941721 -2.254863069893428 -8.666385471840549 -4.934250483096674 10.09297631952812" Properties=species:S:1:pos:R:3 unique_starting_index=18 config_type=initial n_minim_iter=18 stress="-3.639133077729001e-05 2.4541204422672696e-05 -2.3122194825202842e-05 2.4541204422672696e-05 2.495804861749326e-05 -3.676023450849688e-05 -2.3122194825202842e-05 -3.676023450849688e-05 0.00011813144905878903" pbc="T T T"
Si       4.24762432       7.80224605      -0.30125381
Si       0.65353884       0.30841798       6.51502031
Si      -5.98417401      -2.95960605       8.32222604
Si       2.34152891      -0.94290764       8.17819873
Si     -11.24738765      -0.83026470      10.67758040
Si       8.82251743       5.08063829      -0.34152615
Si       5.63658460      -0.16954809       1.78210681
Si       0.00223207       1.55626698       7.38672756
Si       0.81677282      -1.10196429       8.86913649
Si      -1.12360235       0.69830291       4.48649938
Si       4.59204463       0.90664882       2.85943008
Si      -2.14526071       3.45473765       3.14934465
Si      -7.28878447      -2.21676761       5.91884168
Si       2.54068378       8.49792048      -0.21960472
Si       9.92467519       3.18130808       1.33957898
Si       6.89806567       6.87469253      -4.72538956
Si       1.09413856      -2.07304426       0.51505992