2
Lattice="2.575824515490241 2.6181568748856795e-17 2.575824515490241 2.575824515490241 2.575824515490241 3.963774606131508e-18 1.5883363088903142e-16 2.575824515490241 2.575824515490241" Properties=species:S:1:pos:R:3 n_minim_iter=1 energy=-325.9617295986086 free_energy=-325.9617295986086 pbc="T T T"
Si       0.00000000       0.00000000       0.00000000
Si       1.28791226       1.28791226       1.28791226
