2
Lattice="2.877382312023454 2.9246706196772346e-17 2.877382312023454 2.877382312023454 2.877382312023454 4.427822963848076e-18 1.774286553009138e-16 2.877382312023454 2.877382312023454" Properties=species:S:1:pos:R:3 n_minim_iter=1 energy=-326.11320125071376 free_energy=-326.11320125071376 pbc="T T T"
Si       0.00000000       0.00000000       0.00000000
Si       1.43869116       1.43869116       1.43869116
