2
Lattice="2.7914384468668985 2.837314311023164e-17 2.7914384468668985 2.7914384468668985 2.7914384468668985 4.295569346331933e-18 1.7212907993257575e-16 2.7914384468668985 2.7914384468668985" Properties=species:S:1:pos:R:3 n_minim_iter=1 stress="0.021466946497199636 -1.9950685605714698e-17 1.3382105850142127e-17 -1.9950685605714698e-17 0.021466946497199636 3.921504877159627e-18 1.3382105850142127e-17 3.921504877159627e-18 0.021466946497199553" pbc="T T T"
Si       0.00000000       0.00000000       0.00000000
Si       1.39571922       1.39571922       1.39571922
