2
Lattice="2.522699514466929 2.564158791623e-17 2.522699514466929 2.522699514466929 2.522699514466929 3.882023877873206e-18 1.5555777232305674e-16 2.522699514466929 2.522699514466929" Properties=species:S:1:pos:R:3 n_minim_iter=1 stress="-0.21685067850495499 -2.1941514098964544e-17 2.737267272626952e-18 -2.1941514098964544e-17 -0.2168506785049551 4.1698870301470195e-17 2.737267272626952e-18 4.1698870301470195e-17 -0.21685067850495465" pbc="T T T"
Si       0.00000000       0.00000000       0.00000000
Si       1.26134976       1.26134976       1.26134976
