2
Lattice="2.6516271631234862 2.695205300289669e-17 2.6516271631234862 2.6516271631234862 2.6516271631234862 4.080422540786716e-18 1.6350786614154379e-16 2.6516271631234862 2.6516271631234862" Properties=species:S:1:pos:R:3 n_minim_iter=1 stress="-0.058439565221323785 3.472751818940465e-17 -1.129388185427233e-17 3.472751818940465e-17 -0.058439565221323785 -2.0365216770556058e-17 -1.129388185427233e-17 -2.0365216770556058e-17 -0.05843956522132397" pbc="T T T"
Si       0.00000000       0.00000000       0.00000000
Si       1.32581358       1.32581358       1.32581358
