2
Lattice="2.813419182165644 2.859656288472083e-17 2.813419182165644 2.813419182165644 2.813419182165644 4.329394119672397e-18 1.7348448282439348e-16 2.813419182165644 2.813419182165644" Properties=species:S:1:pos:R:3 n_minim_iter=1 stress="0.040442058383641434 -1.502135980373899e-17 -5.864430165431312e-17 -1.502135980373899e-17 0.04044205838364136 1.8695546507388917e-18 -5.864430165431312e-17 1.8695546507388917e-18 0.040442058383640955" pbc="T T T"
Si       0.00000000       0.00000000       0.00000000
Si       1.40670959       1.40670959       1.40670959
