2
Lattice="2.575824515490241 2.6181568748856795e-17 2.575824515490241 2.575824515490241 2.575824515490241 3.963774606131508e-18 1.5883363088903142e-16 2.575824515490241 2.575824515490241" Properties=species:S:1:pos:R:3 n_minim_iter=1 stress="-0.1402826779130835 -2.2256981012074354e-17 -1.704342233561121e-17 -2.2256981012074354e-17 -0.14028267791308371 -4.486459052013055e-17 -1.704342233561121e-17 -4.486459052013055e-17 -0.1402826779130834" pbc="T T T"
Si       0.00000000       0.00000000       0.00000000
Si       1.28791226       1.28791226       1.28791226
