1
Lattice="2.7240305967119807 2.844968490687065e-16 -1.1881660645787638e-50 1.3620152983559903 2.359079697438658 -4.340115112156307e-49 4.6035078069661515e-50 2.3091073630001714e-48 2.543461694583344" Properties=species:S:1:pos:R:3:forces:R:3 cutoff=-1.0 nneightol=1.2 n_minim_iter=1 energy=-162.8088103626195 stress="0.04009460796581062 -1.537867123912661e-16 -2.1226599363873874e-19 -1.537867123912661e-16 0.040094607965810186 8.490639745549544e-19 -2.1226599363873874e-19 8.490639745549544e-19 0.05116386835631022" free_energy=-162.8088103626195 pbc="T T T"
Si       0.00000000       0.00000000       0.00000000      -0.00000000      -0.00000000       0.00000000
