1
Lattice="2.6140688884501637 2.7301248484884066e-16 -1.1402030313009781e-50 1.3070344442250814 2.2638500646403923 -4.164916466310812e-49 4.417676714223782e-50 2.2158949774631224e-48 2.4407890619145096" Properties=species:S:1:pos:R:3:forces:R:3 cutoff=-1.0 nneightol=1.2 n_minim_iter=1 energy=-162.824114708267 stress="-0.033680286643972976 -7.734302494531509e-17 -1.9696049830794517e-17 -7.734302494531509e-17 -0.03368028664397289 1.1049003563616434e-17 -1.9696049830794517e-17 1.1049003563616434e-17 -0.03686019144368097" free_energy=-162.824114708267 pbc="T T T"
Si       0.00000000       0.00000000       0.00000000       0.00000000      -0.00000000       0.00000000
