1
Lattice="2.702748238266582 2.822741266346138e-16 -1.178883137981116e-50 1.3513741191332906 2.340648634372497 -4.3062065776403235e-49 1.645892672001156e-51 4.593779885448359e-49 2.5235900883166607" Properties=species:S:1:pos:R:3:forces:R:3 cutoff=-1.0 nneightol=1.2 n_minim_iter=1 energy=-162.8323023960957 stress="0.014476944414803914 -7.301950181172608e-17 -2.6714451882338792e-17 -7.301950181172608e-17 0.014476944414804164 -6.500516624702442e-17 -2.6714451882338792e-17 -6.500516624702442e-17 0.022806429322963985" free_energy=-162.8323023960957 pbc="T T T"
Si       0.00000000       0.00000000       0.00000000       0.00000000       0.00000000       0.00000000
