1
Lattice="2.785961475657655 2.909648894575946e-16 -1.2151790389563664e-50 1.392980737828827 2.412713411884311 -4.438787698266643e-49 9.24668055640958e-50 4.249688419045318e-48 2.6012873366669287" Properties=species:S:1:pos:R:3:forces:R:3 cutoff=-1.0 nneightol=1.2 n_minim_iter=1 energy=-162.7666387004324 stress="0.06319142292486865 -8.802906607302514e-17 6.348640018630622e-17 -8.802906607302514e-17 0.06319142292486778 4.4623028884943745e-18 6.348640018630622e-17 4.4623028884943745e-18 0.07210211447000962" free_energy=-162.7666387004324 pbc="T T T"
Si       0.00000000       0.00000000       0.00000000       0.00000000      -0.00000000       0.00000000
