1
Lattice="2.8644802413458383 2.99165363218064e-16 -1.2494273080235045e-50 1.4322401206729187 2.480712657644076 -4.563889259887309e-49 1.8840134612795073e-49 8.252053827395059e-48 2.6746012976315803" Properties=species:S:1:pos:R:3:forces:R:3 cutoff=-1.0 nneightol=1.2 n_minim_iter=1 energy=-162.6417069879221 stress="0.09292438108185613 -6.705872615362599e-18 7.450969572625113e-19 -6.705872615362599e-18 0.09292438108185619 -1.8627423931562763e-18 7.450969572625113e-19 -1.8627423931562763e-18 0.095986502106893" free_energy=-162.6417069879221 pbc="T T T"
Si       0.00000000       0.00000000       0.00000000      -0.00000000      -0.00000000      -0.00000000
