1
Lattice="2.5118340384424758 2.6425459135221036e-16 -4.683277218764534e-50 1.2559170192212374 2.1753120873816423 -2.8669710756008e-49 1.1486733253449436e-49 4.904815004460498e-48 2.365253766693752" Properties=species:S:1:pos:R:3:forces:R:3 cutoff=-1.0 nneightol=1.2 n_minim_iter=2 energy=-162.7439387983782 stress="-0.11227790046368151 -6.213177252372733e-17 5.789403357929711e-17 -6.213177252372733e-17 -0.11227790046368451 5.2971736805381666e-17 5.789403357929711e-17 5.2971736805381666e-17 -0.11227985538581266" free_energy=-162.7439387983782 pbc="T T T"
Si       0.00000000       0.00000000       0.00000000       0.00000000      -0.00000000       0.00000000
