1
Lattice="2.5909343221802916 2.7059631844590297e-16 -1.1301122097831181e-50 1.2954671610901454 2.2438149425451486 -4.12805686539361e-49 4.378580179639082e-50 2.1962842589278543e-48 2.4191880258618146" Properties=species:S:1:pos:R:3:forces:R:3 cutoff=-1.0 nneightol=1.2 n_minim_iter=1 energy=-162.824114708267 stress="-0.033680286643972976 -7.734302494531509e-17 -1.9696049830794517e-17 -7.734302494531509e-17 -0.03368028664397289 1.1049003563616434e-17 -1.9696049830794517e-17 1.1049003563616434e-17 -0.03686019144368097" free_energy=-162.824114708267 pbc="T T T"
Si       0.00000000       0.00000000       0.00000000       0.00000000      -0.00000000       0.00000000
