1
Lattice="2.845254962470667 2.9715748148976943e-16 -1.2410416371837153e-50 1.422627481235333 2.4640630777433374 -4.53325820769492e-49 1.6396134515541682e-49 7.232535519630213e-48 2.6566504124815737" Properties=species:S:1:pos:R:3:forces:R:3 cutoff=-1.0 nneightol=1.2 n_minim_iter=1 energy=-162.6764801989609 stress="0.0873189330206572 3.042479242155148e-18 -1.5887775981571237e-34 3.042479242155148e-18 0.0873189330206582 1.5212396210776254e-18 -1.5887775981571237e-34 1.5212396210776254e-18 0.0921768530831958" free_energy=-162.6764801989609 pbc="T T T"
Si       0.00000000       0.00000000       0.00000000       0.00000000      -0.00000000      -0.00000000
