2
Lattice="4.927203421708106 1.1240829600106404e-17 2.0004707135122791e-16 1.1240829600106436e-17 4.927203421708106 -2.9031106046657675e-16 2.463601710854053 2.463601710854053 1.3584696665761207" Properties=species:S:1:pos:R:3:forces:R:3 cutoff=-1.0 nneightol=1.2 n_minim_iter=1 energy=-325.6702267701676 stress="0.03797276754420346 2.0614503715515713e-17 1.93993124608097e-16 2.0614503715515713e-17 0.03797276754420298 1.708760662351435e-16 1.93993124608097e-16 1.708760662351435e-16 0.02872655784572451" free_energy=-325.6702267701676 pbc="T T T"
Si      -0.00000000      -1.23180085      -0.33961742      -0.00000000       0.00000000      -0.00000000
Si      -0.00000000       1.23180086       0.33961742       0.00000000      -0.00000000       0.00000000
