2
Lattice="4.3901773545771725 3.729224463072359e-18 -6.805050776190867e-17 3.729224463072338e-18 4.3901773545771725 1.7964718260965456e-16 2.1950886772885863 2.1950886772885863 1.193822059274379" Properties=species:S:1:pos:R:3:forces:R:3 cutoff=-1.0 nneightol=1.2 n_minim_iter=1 energy=-324.6506502027029 stress="-0.34667948146701555 2.216531070949392e-16 -4.1325732492240993e-16 2.216531070949392e-16 -0.346679481467018 9.701154873324025e-16 -4.1325732492240993e-16 9.701154873324025e-16 -0.3293276033327078" free_energy=-324.6506502027029 pbc="T T T"
Si      -0.00000000      -1.09754434      -0.29845551      -0.00000000       0.00000000      -0.00000000
Si      -0.00000000       1.09754434       0.29845551       0.00000000      -0.00000000       0.00000000
2
Lattice="4.398531959124683 7.690460764502768e-18 -1.3786637009272096e-16 7.69046076450266e-18 4.398531959124684 3.0186476428426573e-16 2.1992659795623415 2.199265979562342 1.1892912571626262" Properties=species:S:1:pos:R:3:forces:R:3 cutoff=-1.0 nneightol=1.2 n_minim_iter=2 energy=-324.6515691558553 stress="-0.34079808025858993 -8.688952582548206e-17 -3.976711555935722e-16 -8.688952582548206e-17 -0.34079808025858904 -4.46172270312399e-16 -3.976711555935722e-16 -4.46172270312399e-16 -0.33721908516581434" free_energy=-324.6515691558553 pbc="T T T"
Si      -0.00000000      -1.09963299      -0.29732281       0.00000000      -0.00000000      -0.00000000
Si      -0.00000000       1.09963299       0.29732281      -0.00000000       0.00000000       0.00000000
