2
Lattice="4.956132235424204 -6.600022776576608e-17 2.8599194596422893e-15 -6.600022776575124e-17 4.956132235424204 -4.402861390243706e-15 2.478066117712101 2.478066117712103 1.4987801820838873" Properties=species:S:1:pos:R:3:forces:R:3 cutoff=-1.0 nneightol=1.2 n_minim_iter=1 energy=-325.520375787964 stress="0.05170476136149719 -8.990980433353634e-17 1.851559325708622e-16 -8.990980433353634e-17 0.05170476136149826 1.6451803536185697e-16 1.851559325708622e-16 1.6451803536185697e-16 0.047830594356496954" free_energy=-325.520375787964 pbc="T T T"
Si      -0.00000000      -1.23903306      -0.37469505      -0.00000000       0.00000000       0.00000000
Si      -0.00000000       1.23903306       0.37469505       0.00000000      -0.00000000      -0.00000000
