2
Lattice="4.957299401081644 5.4640480633824616e-18 2.7366210993526064e-15 5.4640480633825224e-18 4.9572994010816425 -4.589716519646502e-15 2.478649700540822 2.47864970054082 1.4356547368464818" Properties=species:S:1:pos:R:3:forces:R:3 cutoff=-1.0 nneightol=1.2 n_minim_iter=2 energy=-325.6182404578999 stress="0.04186732987521154 9.836960862487239e-17 1.0495619120690206e-16 9.836960862487239e-17 0.04186732987521118 1.4490256667898658e-16 1.0495619120690206e-16 1.4490256667898658e-16 0.03781030492560032" free_energy=-325.6182404578999 pbc="T T T"
Si      -0.00000000      -1.23932485      -0.35891368       0.00000000      -0.00000000      -0.00000000
Si      -0.00000000       1.23932485       0.35891368      -0.00000000       0.00000000       0.00000000
