2
Lattice="4.809844151465872 1.0973088359106771e-17 1.95282222754874e-16 1.0973088359106713e-17 4.809844151465871 -2.8339624666987015e-16 2.404922075732936 2.4049220757329355 1.32611277057033" Properties=species:S:1:pos:R:3:forces:R:3 cutoff=-1.0 nneightol=1.2 n_minim_iter=2 energy=-325.7132030511793 stress="-0.0014397225138121652 -1.111799545473019e-17 -2.393353175561113e-16 -1.111799545473019e-17 -0.0014397225138120964 -9.957374585639743e-17 -2.393353175561113e-16 -9.957374585639743e-17 -0.0014968299781905144" free_energy=-325.7132030511793 pbc="T T T"
Si      -0.00000000      -1.20246104      -0.33152819       0.00000000      -0.00000000      -0.00000000
Si      -0.00000000       1.20246104       0.33152819      -0.00000000       0.00000000       0.00000000
