2
Lattice="4.956132235424204 -6.600022776576609e-17 2.859919459642289e-15 -6.600022776575666e-17 4.956132235424204 -4.402861390243704e-15 2.478066117712101 2.478066117712104 1.4987801820838873" Properties=species:S:1:pos:R:3:forces:R:3 cutoff=-1.0 nneightol=1.2 n_minim_iter=2 energy=-325.5565359687282 stress="0.04369077684765459 -2.1630664706606532e-17 1.1001119128166878e-16 -2.1630664706606532e-17 0.04369077684765437 -3.672324432803059e-17 1.1001119128166878e-16 -3.672324432803059e-17 0.04438322035539936" free_energy=-325.5565359687282 pbc="T T T"
Si      -0.00000000      -1.23903306      -0.37469505      -0.00000000       0.00000000       0.00000000
Si      -0.00000000       1.23903306       0.37469505       0.00000000      -0.00000000      -0.00000000
