2
Lattice="4.992964651797069 5.503359113277856e-18 2.756309697866595e-15 5.503359113282661e-18 4.992964651797069 -4.622737198274508e-15 2.496482325898534 2.4964823258985356 1.4459835433170465" Properties=species:S:1:pos:R:3:forces:R:3 cutoff=-1.0 nneightol=1.2 n_minim_iter=1 energy=-325.585099562053 stress="0.0495190112858189 4.54751067186778e-17 -1.2402296244214867e-17 4.54751067186778e-17 0.04951901128581858 -4.0328827728161977e-17 -1.2402296244214867e-17 -4.0328827728161977e-17 0.038674032493358546" free_energy=-325.585099562053 pbc="T T T"
Si      -0.00000000      -1.24824116      -0.36149589       0.00000000       0.00000000       0.00000000
Si      -0.00000000       1.24824116       0.36149589      -0.00000000      -0.00000000      -0.00000000
