4
Lattice="4.621468564427383 0.5071387503573959 1.0717040114761163e-12 2.4415855833948314 3.9564910265364075 2.4114187423909266e-12 -3.531527073911467 -2.231814888447924 2.0402157322295773" Properties=species:S:1:pos:R:3:tags:I:1 spacegroup="P 1" unit_cell=conventional n_minim_iter=3 stress="-9.318556438236415 0.0048646590193337615 -1.7094971467643627e-14 0.0048646590193337615 -9.323179750993178 4.936642622312737e-16 -1.7094971467643627e-14 4.936642622312737e-16 -9.326254063662837" pbc="T T T"
Ti       0.00000000       0.00000000       0.00000000        0
Al       3.53152707       2.23181489       0.00000000        1
Al       2.31073428       0.25356938       1.02010787        2
Al       1.22079279       1.97824551       1.02010787        3
