4
Lattice="4.48520470439613 0.02621255647883617 8.03303639131946e-13 1.948724012113533 4.039829583418894 2.368407882552749e-12 -3.216964358255249 -2.0330210699500544 2.3739658770312726" Properties=species:S:1:pos:R:3:tags:I:1 spacegroup="P 1" unit_cell=conventional n_minim_iter=2 stress="-1.5531497533057972 -0.0030081242610491056 -4.571294338733137e-15 -0.0030081242610491056 -1.5502908685999153 -3.016378410247001e-15 -4.571294338733137e-15 -3.016378410247001e-15 -1.5483898279533048" pbc="T T T"
Ti       0.00000000       0.00000000       0.00000000        0
Al       3.21696436       2.03302107       0.00000000        1
Al       2.24260235       0.01310628       1.18698294        2
Al       0.97436201       2.01991479       1.18698294        3
