4
Lattice="4.672258000039984 0.5127121499270029 1.0834819217069904e-12 2.468418342733497 3.9999724315146548 2.437919971436257e-12 -3.570338171387104 -2.256342290721862 2.0626374806680476" Properties=species:S:1:pos:R:3:tags:I:1 spacegroup="P 1" unit_cell=conventional n_minim_iter=3 stress="-9.318556438236415 0.0048646590193337615 -1.7094971467643627e-14 0.0048646590193337615 -9.323179750993178 4.936642622312737e-16 -1.7094971467643627e-14 4.936642622312737e-16 -9.326254063662837" pbc="T T T"
Ti       0.00000000       0.00000000       0.00000000        0
Al       3.57033817       2.25634229       0.00000000        1
Al       2.33612900       0.25635607       1.03131874        2
Al       1.23420917       1.99998622       1.03131874        3
