2
Lattice="2.876669688157085 9.224699080556015e-17 2.876669688157085 2.876669688157085 2.876669688157085 1.64361024470641e-16 5.842037896961279e-17 2.876669688157085 2.876669688157085" Properties=species:S:1:pos:R:3 n_minim_iter=1 energy=-326.11433269074945 free_energy=-326.11433269074945 pbc="T T T"
Si       0.00000000      -0.00000000      -0.00000000
Si       1.43833484       1.43833484       1.43833484
