2
Lattice="2.575186576618633 8.257924551919184e-17 2.575186576618633 2.575186576618633 2.575186576618633 1.4713552469322235e-16 5.2297758182970513e-17 2.575186576618633 2.575186576618633" Properties=species:S:1:pos:R:3 n_minim_iter=1 energy=-325.958345435683 free_energy=-325.958345435683 pbc="T T T"
Si       0.00000000      -0.00000000      -0.00000000
Si       1.28759329       1.28759329       1.28759329
