2
Lattice="2.8289999999999993 0.0 2.8289999999999993 2.8289999999999993 2.8289999999999993 0.0 0.0 2.8289999999999993 2.8289999999999993" Properties=species:S:1:pos:R:3 n_minim_iter=1 energy=-326.23868419566696 free_energy=-326.23868419566696 pbc="T T T"
Si       0.00000000       0.00000000       0.00000000
Si       1.41450000       1.41450000       1.41450000
2
Lattice="2.7457271855470995 8.80480200707384e-17 2.7457271855470995 2.7457271855470995 2.7457271855470995 1.568795107034086e-16 5.576115443048762e-17 2.7457271855470995 2.7457271855470995" Properties=species:S:1:pos:R:3 n_minim_iter=2 stress="0.008563154353532677 -1.1506411171800738e-16 2.5724897090745632e-17 -1.1506411171800738e-16 0.008563154353532634 -3.805167166359645e-18 2.5724897090745632e-17 -3.805167166359645e-18 0.008563154353532698" pbc="T T T"
Si      -0.00000000      -0.00000000      -0.00000000
Si       1.37286359       1.37286359       1.37286359
