2
Lattice="2.722652756934624 8.730808575960718e-17 2.722652756934624 2.722652756934624 2.722652756934624 1.5556113315681905e-16 5.529255114607242e-17 2.722652756934624 2.722652756934624" Properties=species:S:1:pos:R:3 n_minim_iter=1 stress="0.008563154353596107 2.4326626151130534e-17 -1.08700476380349e-17 2.4326626151130534e-17 0.008563154353596107 2.8372457729071205e-17 -1.08700476380349e-17 2.8372457729071205e-17 0.008563154353596192" pbc="T T T"
Si       0.00000000      -0.00000000      -0.00000000
Si       1.36132638       1.36132638       1.36132638
