2
Lattice="2.522074732742869 8.08760928097083e-17 2.522074732742869 2.522074732742869 2.522074732742869 1.4410093330204397e-16 5.121914493106643e-17 2.522074732742869 2.522074732742869" Properties=species:S:1:pos:R:3 n_minim_iter=1 stress="-0.2176063567164975 2.085442305662101e-17 -3.7058618451680774e-17 2.085442305662101e-17 -0.21760635671649745 1.4361352891262569e-18 -3.7058618451680774e-17 1.4361352891262569e-18 -0.21760635671649767" pbc="T T T"
Si       0.00000000      -0.00000000      -0.00000000
Si       1.26103737       1.26103737       1.26103737
