2
Lattice="2.8328337335838714 -1.2842583600810772e-16 2.8328337335838714 2.8328337335838714 2.8328337335838714 5.275237193593998e-17 -2.2375903777629453e-17 2.8328337335838714 2.8328337335838714" Properties=species:S:1:pos:R:3:forces:R:3 n_minim_iter=1 energy=-326.275126398918 stress="0.04006226210894316 -1.2228758197464543e-18 1.0731837257545927e-15 -1.2228758197464543e-18 0.040062262108943154 4.6614375293425407e-17 1.0731837257545927e-15 4.6614375293425407e-17 0.04006226210894315" free_energy=-326.275126398918 pbc="T T T"
Si       0.00000000       0.00000000       0.00000000       0.00000000       0.00000000      -0.00000000
Si       1.41641687       1.41641687       1.41641687       0.00000000      -0.00000000       0.00000000
