2
Lattice="2.697727373970261 -1.2230082168845728e-16 2.697727373970261 2.697727373970261 2.697727373970261 5.023645268210105e-17 -2.1308729637961417e-17 2.697727373970261 2.697727373970261" Properties=species:S:1:pos:R:3:forces:R:3 n_minim_iter=1 energy=-326.3540835711154 stress="-0.005743348895802763 4.776514107739677e-16 -4.57051633460554e-16 4.776514107739677e-16 -0.005743348895802725 4.491877785159433e-16 -4.57051633460554e-16 4.491877785159433e-16 -0.005743348895802675" free_energy=-326.3540835711154 pbc="T T T"
Si       0.00000000       0.00000000       0.00000000       0.00000000      -0.00000000       0.00000000
Si       1.34886369       1.34886369       1.34886369      -0.00000000       0.00000000      -0.00000000
