2
Lattice="2.8112082052433465 -1.274454478817861e-16 2.8112082052433465 2.8112082052433465 2.8112082052433465 5.234966636914085e-17 -2.2205088690407304e-17 2.8112082052433465 2.8112082052433465" Properties=species:S:1:pos:R:3:forces:R:3 n_minim_iter=1 energy=-326.31175154356873 stress="0.03064857252559251 2.1846688808155698e-16 1.866452364175096e-16 2.1846688808155698e-16 0.03064857252559249 -2.0818189691793653e-16 1.866452364175096e-16 -2.0818189691793653e-16 0.030648572525592475" free_energy=-326.31175154356873 pbc="T T T"
Si       0.00000000       0.00000000       0.00000000      -0.00000000       0.00000000       0.00000000
Si       1.40560410       1.40560410       1.40560410       0.00000000      -0.00000000      -0.00000000
