2
Lattice="2.5995399667913084 -1.178495191983276e-16 2.5995399667913084 2.5995399667913084 2.5995399667913084 4.840802958704817e-17 -2.0533169833951445e-17 2.5995399667913084 2.5995399667913084" Properties=species:S:1:pos:R:3:forces:R:3 n_minim_iter=1 energy=-326.1825637188251 stress="-0.08435186583118272 5.90247681043684e-17 3.264418895699503e-17 5.90247681043684e-17 -0.08435186583118254 -1.458126556509365e-17 3.264418895699503e-17 -1.458126556509365e-17 -0.08435186583118258" free_energy=-326.1825637188251 pbc="T T T"
Si       0.00000000       0.00000000       0.00000000      -0.00000000      -0.00000000      -0.00000000
Si       1.29976998       1.29976998       1.29976998       0.00000000       0.00000000      -0.00000000
