2
Lattice="2.6776514311383424 8.66698091681989e-17 2.6776514311383424 2.6776514311383424 2.6776514311383424 4.154748307565976e-17 -3.0101116948108546e-18 2.6776514311383424 2.6776514311383424" Properties=species:S:1:pos:R:3:forces:R:3 n_minim_iter=1 energy=-326.314097723958 stress="-0.03653706879945794 -3.367971326488952e-17 1.435021474174094e-16 -3.367971326488952e-17 -0.03653706879945782 5.382455822458977e-18 1.435021474174094e-16 5.382455822458977e-18 -0.03653706879945781" free_energy=-326.314097723958 pbc="T T T"
Si       0.00000000       0.00000000       0.00000000      -0.00000000       0.00000000       0.00000000
Si       1.33882572       1.33882572       1.33882572       0.00000000      -0.00000000      -0.00000000
