2
Lattice="2.9603527777781555 9.582024282059148e-17 2.9603527777781555 2.9603527777781555 2.9603527777781555 4.593398733771395e-17 -3.3279135639277464e-18 2.9603527777781555 2.9603527777781555" Properties=species:S:1:pos:R:3:forces:R:3 n_minim_iter=1 energy=-325.8138404394496 stress="0.08274622123433643 -1.5744498515514726e-16 3.252679513082602e-17 -1.5744498515514726e-16 0.08274622123433666 3.7750701422820615e-17 3.252679513082602e-17 3.7750701422820615e-17 0.08274622123433642" free_energy=-325.8138404394496 pbc="T T T"
Si       0.00000000       0.00000000       0.00000000      -0.00000000       0.00000000       0.00000000
Si       1.48017639       1.48017639       1.48017639       0.00000000      -0.00000000      -0.00000000
