2
Lattice="2.7250533061579616 8.820410575900594e-17 2.7250533061579616 2.7250533061579616 2.7250533061579616 4.22829890407864e-17 -3.0633990408385112e-18 2.7250533061579616 2.7250533061579616" Properties=species:S:1:pos:R:3:forces:R:3 n_minim_iter=1 energy=-326.3503916177676 stress="0.009941800984230725 -1.383027280979202e-17 3.3216073753492656e-17 -1.383027280979202e-17 0.009941800984230623 3.622281517265057e-18 3.3216073753492656e-17 3.622281517265057e-18 0.009941800984230698" free_energy=-326.3503916177676 pbc="T T T"
Si       0.00000000       0.00000000       0.00000000      -0.00000000       0.00000000      -0.00000000
Si       1.36252665       1.36252665       1.36252665       0.00000000      -0.00000000       0.00000000
