2
Lattice="2.496858233594866 8.081792279203227e-17 2.496858233594866 2.496858233594866 2.496858233594866 3.874222536818492e-17 -2.8068710071174224e-18 2.496858233594866 2.496858233594866" Properties=species:S:1:pos:R:3:forces:R:3 n_minim_iter=1 energy=-325.6093375870821 stress="-0.21326854587684616 -5.314895664699766e-16 2.8603636235335576e-16 -5.314895664699766e-16 -0.21326854587684613 -4.2995273932461557e-16 2.8603636235335576e-16 -4.2995273932461557e-16 -0.21326854587684602" free_energy=-325.6093375870821 pbc="T T T"
Si       0.00000000       0.00000000       0.00000000      -0.00000000       0.00000000      -0.00000000
Si       1.24842912       1.24842912       1.24842912       0.00000000      -0.00000000       0.00000000
