2
Lattice="2.586615658584571 -1.6040020129984027e-16 -3.5834022586530087e-16 -1.2933078292922848 2.240074870475754 2.0134190863709318e-16 -4.2913755127885254e-16 2.3400260082001207e-16 4.4753172830365004" Properties=species:S:1:pos:R:3:forces:R:3 n_minim_iter=1 energy=-325.1699113820177 stress="-0.058551303482264346 7.118990120305936e-17 -2.6009119387467097e-16 7.118990120305936e-17 -0.05855130347237934 -3.4918053232126326e-17 -2.6009119387467097e-16 -3.4918053232126326e-17 -0.06785706277308406" free_energy=-325.1699113820177 pbc="T T T"
Si       0.00000000      -0.00000000       0.00000000      -0.00000000      -0.00000000       0.00000000
Si      -0.00000000       1.49338325       2.23765864       0.00000000       0.00000000      -0.00000000
