2
Lattice="2.8270295934351823 -1.7530865645333087e-16 -3.916462887237759e-16 -1.4135147967175905 2.4482794455094288 2.2005570569663148e-16 -4.690238973437183e-16 2.5575205781479444e-16 4.8912772785421765" Properties=species:S:1:pos:R:3:forces:R:3 n_minim_iter=1 energy=-325.0692630155017 stress="0.06454712817182366 -1.3221325713967187e-16 -3.800872912947067e-17 -1.3221325713967187e-16 0.0645471280443188 8.906826675103358e-17 -3.800872912947067e-17 8.906826675103358e-17 0.055608298528637565" free_energy=-325.0692630155017 pbc="T T T"
Si       0.00000000      -0.00000000       0.00000000       0.00000000      -0.00000000       0.00000000
Si      -0.00000000       1.63218630       2.44563864      -0.00000000       0.00000000      -0.00000000
