2
Lattice="2.789181888384798 1.560585436918679e-15 -7.816134615023506e-16 -1.394590944192397 2.4155023735079464 4.1611992230731506e-16 -1.0745103596198338e-15 2.4998962806585946e-16 5.345661633266613" Properties=species:S:1:pos:R:3:forces:R:3 n_minim_iter=1 energy=-324.9460236239188 stress="0.07071866971456908 -2.587741406501038e-17 7.536573509076321e-17 -2.587741406501038e-17 0.07071866953949757 -2.2005989031209139e-16 7.536573509076321e-17 -2.2005989031209139e-16 0.06578897819474461" free_energy=-324.9460236239188 pbc="T T T"
Si       0.00000000      -0.00000000      -0.00000000       0.00000000      -0.00000000      -0.00000001
Si      -0.00000000       1.61033492       2.67283082      -0.00000000       0.00000000       0.00000001
