2
Lattice="2.979411759550291 -6.3269222867958e-33 -7.213743463193044e-34 6.3269222867958e-33 2.979411759550291 1.517333876817101e-17 7.213743463193043e-34 -1.5173338768170993e-17 2.979411759550291" Properties=species:S:1:pos:R:3:forces:R:3 n_minim_iter=1 energy=-10.58260362388835 stress="-0.05797070276249314 3.5156321717642344e-17 3.200799439964452e-17 3.5156321717642344e-17 -0.057970702762493144 3.358215805864343e-17 3.200799439964452e-17 3.358215805864343e-17 -0.05797070276249315" free_energy=-10.58260362388835 pbc="T T T"
V        0.00000000       0.00000000       0.00000000      -0.00000000      -0.00000000      -0.00000000
V        1.48970588       1.48970588       1.48970588       0.00000000       0.00000000       0.00000000
