2
Lattice="2.962311474281251 1.6678220113592878e-67 2.7990970242702013e-51 -1.9982009606206568e-67 2.962311474281251 3.49643239863436e-17 -4.0337710394357353e-51 -5.038699133565526e-17 4.268978935397705" Properties=species:S:1:pos:R:3:tags:I:1 spacegroup="P 1" unit_cell=conventional n_minim_iter=1 energy=-1703.854412467049 free_energy=-1703.854412467049 pbc="T T T"
Ti       1.48115574       1.48115574       2.13448947        0
Al       0.00000000       0.00000000       0.00000001        1
