2
Lattice="2.8579168319556616 1.6090463951385638e-67 2.7004542126616736e-51 -1.9277824795157077e-67 2.8579168319556616 3.373214832608628e-17 -3.8916171543560494e-51 -4.861130637341656e-17 4.118536102857803" Properties=species:S:1:pos:R:3:tags:I:1 spacegroup="P 1" unit_cell=conventional n_minim_iter=1 energy=-1704.190132599728 free_energy=-1704.190132599728 pbc="T T T"
Ti       1.42895842       1.42895842       2.05926806        0
Al       0.00000000       0.00000000       0.00000001        1
