2
Lattice="2.921446786093522 1.644814631129845e-67 2.760483857458716e-51 -1.9706360472409797e-67 2.921446786093522 3.4481995841649326e-17 -3.9781257107191704e-51 -4.96919095701063e-17 4.21008894540523" Properties=species:S:1:pos:R:3:tags:I:1 spacegroup="P 1" unit_cell=conventional n_minim_iter=1 energy=-1704.007829903178 free_energy=-1704.007829903178 pbc="T T T"
Ti       1.46072339       1.46072339       2.10504448        0
Al       0.00000000       0.00000000       0.00000001        1
