2
Lattice="2.5700921011609092 1.4469971219271667e-67 2.4284877586025375e-51 -1.7336328573177213e-67 2.5700921011609092 3.033493732171962e-17 -3.499687043834854e-51 -4.371559491881295e-17 3.703752673256622" Properties=species:S:1:pos:R:3:tags:I:1 spacegroup="P 1" unit_cell=conventional n_minim_iter=1 energy=-1703.5983355109047 free_energy=-1703.5983355109047 pbc="T T T"
Ti       1.28504605       1.28504605       1.85187634        0
Al       0.00000000       0.00000000       0.00000000        1
