2
Lattice="2.9823276995262202 1.6790914208517463e-67 2.818010415723714e-51 -2.0117027280275428e-67 2.9823276995262202 3.520057658520933e-17 -4.0610270759507914e-51 -5.072745430747541e-17 4.2978242626628544" Properties=species:S:1:pos:R:3:tags:I:1 spacegroup="P 1" unit_cell=conventional n_minim_iter=1 energy=-1703.7699781937124 free_energy=-1703.7699781937124 pbc="T T T"
Ti       1.49116385       1.49116385       2.14891214        0
Al       0.00000000       0.00000000       0.00000001        1
