2
Lattice="2.7452815821971006 1.5456312038485046e-67 2.5940248262975627e-51 -1.8518053696738353e-67 2.7452815821971006 3.240270832660189e-17 -3.7382420577666764e-51 -4.669545403886387e-17 3.9562177535629433" Properties=species:S:1:pos:R:3:tags:I:1 spacegroup="P 1" unit_cell=conventional n_minim_iter=1 energy=-1704.287290689604 free_energy=-1704.287290689604 pbc="T T T"
Ti       1.37264079       1.37264079       1.97810888        0
Al       0.00000000       0.00000000       0.00000000        1
