2
Lattice="2.768547789658999 1.5587303979280948e-67 2.6160091357255413e-51 -1.8674993837922002e-67 2.768547789658999 3.267732064292783e-17 -3.76992358574647e-51 -4.7091197094236074e-17 3.989746621281195" Properties=species:S:1:pos:R:3:tags:I:1 spacegroup="P 1" unit_cell=conventional n_minim_iter=1 stress="0.0006271488652617075 1.0417567611792838e-17 1.7518320107458488e-19 1.0417567611792838e-17 0.0006271488652619398 3.91408255849849e-18 1.7518320107458488e-19 3.91408255849849e-18 -0.001497941027021857" pbc="T T T"
Ti       1.38427389       1.38427389       1.99487332        0
Al       0.00000000       0.00000000       0.00000000        1
