2
Lattice="2.9823276995262202 1.6790914208517463e-67 2.818010415723714e-51 -2.0117027280275428e-67 2.9823276995262202 3.520057658520933e-17 -4.0610270759507914e-51 -5.072745430747541e-17 4.2978242626628544" Properties=species:S:1:pos:R:3:tags:I:1 spacegroup="P 1" unit_cell=conventional n_minim_iter=1 stress="0.1147119423739667 -7.201849766497116e-19 -1.0141490748702084e-17 -7.201849766497116e-19 0.1147119423739666 -9.892985481190393e-18 -1.0141490748702084e-17 -9.892985481190393e-18 0.1108453188094895" pbc="T T T"
Ti       1.49116385       1.49116385       2.14891214        0
Al       0.00000000       0.00000000       0.00000001        1
