2
Lattice="2.9005785966821884 1.6330655541203513e-67 2.7407654425012396e-51 -1.9565595949535782e-67 2.9005785966821884 3.4235687463235713e-17 -3.949709557041974e-51 -4.933695524197819e-17 4.180015854918185" Properties=species:S:1:pos:R:3:tags:I:1 spacegroup="P 1" unit_cell=conventional n_minim_iter=1 stress="0.07575351751974085 1.6157391423889766e-17 4.237276177874633e-18 1.6157391423889766e-17 0.07575351751974087 -7.780893588512704e-18 4.237276177874633e-18 -7.780893588512704e-18 0.07336293127143668" pbc="T T T"
Ti       1.45028930       1.45028930       2.09000793        0
Al       0.00000000      -0.00000000       0.00000001        1
