2
Lattice="2.6975278394872237 1.5187451913856704e-67 2.548902171142127e-51 -1.819593505599257e-67 2.6975278394872237 3.183906829544218e-17 -3.673215923263212e-51 -4.588319393689347e-17 3.887399966005904" Properties=species:S:1:pos:R:3:tags:I:1 spacegroup="P 1" unit_cell=conventional n_minim_iter=1 stress="-0.04548265570915043 4.307058238713874e-17 -2.660516262350854e-17 4.307058238713874e-17 -0.04548265570915043 6.534666819156046e-18 -2.660516262350854e-17 6.534666819156046e-18 -0.04853280629509125" pbc="T T T"
Ti       1.34876392       1.34876392       1.94369999        0
Al       0.00000000       0.00000000       0.00000000        1
