2
Lattice="2.921446786093522 1.644814631129845e-67 2.760483857458716e-51 -1.9706360472409797e-67 2.921446786093522 3.4481995841649326e-17 -3.9781257107191704e-51 -4.96919095701063e-17 4.21008894540523" Properties=species:S:1:pos:R:3:tags:I:1 spacegroup="P 1" unit_cell=conventional n_minim_iter=1 stress="0.09345210067945835 -1.3111859298492743e-17 1.4756443723837768e-17 -1.3111859298492743e-17 0.09345210067945844 3.321478631201931e-17 1.4756443723837768e-17 3.321478631201931e-17 0.0915817867548553" pbc="T T T"
Ti       1.46072339       1.46072339       2.10504448        0
Al       0.00000000       0.00000000       0.00000001        1
