2
Lattice="2.3548431936761087 8.075914088499809e-48 4.901208758644689e-33 -2.924235765270504e-48 2.3548431936761087 -3.7269928771601274e-17 2.8756127933508564e-32 2.1654991196185366e-16 4.1360582033041995" Properties=species:S:1:pos:R:3:tags:I:1 spacegroup="P 1" unit_cell=conventional n_minim_iter=2 stress="-0.014986447610405075 -4.0540062828119633e-17 -2.9346164883041823e-17 -4.0540062828119633e-17 -0.014986447610405065 -8.097612829357384e-18 -2.9346164883041823e-17 -8.097612829357384e-18 -0.02791908071007933" pbc="T T T"
Ti       1.17742160       1.17742160       2.06802911        0
Al      -0.00000000       0.00000000       0.00000001        1
