2
Lattice="2.9214467860935223 1.6448146311298453e-67 2.7604838574587164e-51 -1.9706360472409807e-67 2.9214467860935223 3.448199584164934e-17 -3.978125710719171e-51 -4.969190957010631e-17 4.210088945405231" Properties=species:S:1:pos:R:3:tags:I:1 spacegroup="P 1" unit_cell=conventional n_minim_iter=1 stress="0.08620920941649211 9.395186791703544e-18 3.2625403987720718e-18 9.395186791703544e-18 0.08620920941649213 -8.055010648863331e-18 3.2625403987720718e-18 -8.055010648863331e-18 0.08308603875922156" pbc="T T T"
Ti       1.46072339       1.46072339       2.10504448        0
Al      -0.00000000      -0.00000000       0.00000001        1
