2
Lattice="2.6567799614262033 -1.7175736591777178e-16 2.6567799614262033 2.6567799614262033 2.6567799614262033 -1.877385373176381e-16 -6.762300084930994e-17 2.6567799614262033 2.6567799614262033" Properties=species:S:1:pos:R:3:forces:R:3 n_minim_iter=1 energy=-326.2724189065934 stress="-0.05335111879382946 -3.754647047240493e-16 3.5522545704564646e-17 -3.754647047240493e-16 -0.053351118793829574 -6.909318706087976e-17 3.5522545704564646e-17 -6.909318706087976e-17 -0.05335111879382914" free_energy=-326.2724189065934 pbc="T T T"
Si       0.00000000      -0.00000000      -0.00000000      -0.00000000      -0.00000000      -0.00000000
Si       1.32838998       1.32838998       1.32838998       0.00000000       0.00000000       0.00000000
