2
Lattice="2.504622303092735 -1.6192057138491055e-16 2.504622303092735 2.504622303092735 2.504622303092735 -1.7698647782006975e-16 -6.375013308904965e-17 2.504622303092735 2.504622303092735" Properties=species:S:1:pos:R:3:forces:R:3 n_minim_iter=1 energy=-325.4386621452785 stress="-0.24476603168331226 6.97242375605948e-17 -3.679087233037602e-17 6.97242375605948e-17 -0.2447660316833124 1.0523635645643055e-16 -3.679087233037602e-17 1.0523635645643055e-16 -0.24476603168331243" free_energy=-325.4386621452785 pbc="T T T"
Si       0.00000000      -0.00000000      -0.00000000      -0.00000000       0.00000000       0.00000000
Si       1.25231115       1.25231115       1.25231115       0.00000000      -0.00000000      -0.00000000
