2
Lattice="2.680502466298639 -1.7329099497588688e-16 2.680502466298639 2.680502466298639 2.680502466298639 -1.8941486295654074e-16 -6.822680959163248e-17 2.680502466298639 2.680502466298639" Properties=species:S:1:pos:R:3:forces:R:3 n_minim_iter=1 energy=-326.3413711966388 stress="-0.016491779095540924 1.7223850760293317e-16 1.7337383149914483e-16 1.7223850760293317e-16 -0.016491779095541118 -1.6656526697225805e-16 1.7337383149914483e-16 -1.6656526697225805e-16 -0.01649177909554106" free_energy=-326.3413711966388 pbc="T T T"
Si      -0.00000000      -0.00000000      -0.00000000      -0.00000000       0.00000000       0.00000000
Si       1.34025123       1.34025123       1.34025123       0.00000000      -0.00000000      -0.00000000
