1
Lattice="2.8806506602424364 3.297515959102493e-17 1.7761378374659344e-50 1.4403253301212182 2.494716651198366 1.7227738180298578e-50 -3.2970815798144186e-49 -1.6384592223831869e-49 2.6607210622584385" Properties=species:S:1:pos:R:3 cutoff=-1.0 nneightol=1.2 n_minim_iter=1 energy=-162.60111097921555 free_energy=-162.60111097921555 pbc="T T T"
Si       0.00000000       0.00000000       0.00000000
