1
Lattice="2.841718176087176 3.2529494694543974e-17 1.75213303217348e-50 1.420859088043588 2.461000130887475 1.6994902365462573e-50 -2.6051759249891745e-49 -1.265028645536522e-49 2.624760964066863" Properties=species:S:1:pos:R:3 cutoff=-1.0 nneightol=1.2 n_minim_iter=1 energy=-162.66959606941117 free_energy=-162.66959606941117 pbc="T T T"
Si       0.00000000       0.00000000       0.00000000
