1
Lattice="2.408444445395288 2.3494683669482876e-17 1.115216999118497e-50 1.204222222697644 2.0857740733158425 1.3904463113340803e-49 -2.6810398126652036e-49 -6.880503111909527e-49 2.2838023732629673" Properties=species:S:1:pos:R:3 cutoff=-1.0 nneightol=1.2 n_minim_iter=1 energy=-162.358066897705 free_energy=-162.358066897705 pbc="T T T"
Si       0.00000000       0.00000000       0.00000000
