1
Lattice="2.821845370835802 3.2302008268046747e-17 1.7398799527457273e-50 1.4109226854179007 2.4437897766953247 1.68760530060092e-50 -2.2655483157666156e-49 -1.08176705593586e-49 2.6064053917552785" Properties=species:S:1:pos:R:3 cutoff=-1.0 nneightol=1.2 n_minim_iter=1 energy=-162.70181426758234 free_energy=-162.70181426758234 pbc="T T T"
Si       0.00000000       0.00000000       0.00000000
