1
Lattice="2.674159187624115 3.0611426508860135e-17 1.6488203106678062e-50 1.3370795938120572 2.315889790246041 1.59928154332157e-50 -1.486439943977208e-51 1.3185555967277046e-50 2.4699946343874197" Properties=species:S:1:pos:R:3 cutoff=-1.0 nneightol=1.2 n_minim_iter=2 stress="0.0083249140089707 -7.164070272832561e-19 -4.38120212878599e-18 -7.164070272832561e-19 0.008324914008970351 4.725650603002442e-17 -4.38120212878599e-18 4.725650603002442e-17 -0.0034213923839300124" pbc="T T T"
Si       0.00000000       0.00000000       0.00000000
