1
Lattice="2.8417181760871757 3.252949469454397e-17 1.7521330321734793e-50 1.4208590880435876 2.4610001308874754 1.6994902365462569e-50 -2.28150340704558e-49 -1.089385384796877e-49 2.624760964066862" Properties=species:S:1:pos:R:3 cutoff=-1.0 nneightol=1.2 n_minim_iter=1 stress="0.07873975060127497 2.346265020787852e-16 -6.454557933451996e-18 2.346265020787852e-16 0.07873975060127483 8.626927486306945e-19 -6.454557933451996e-18 8.626927486306945e-19 0.08907789783518542" pbc="T T T"
Si       0.00000000       0.00000000       0.00000000
