1
Lattice="2.434912987240944 2.3752887681223782e-17 1.127473112339041e-50 1.217456493620472 2.108696502955312 1.4057271646857313e-49 -2.4966793470013414e-49 -4.0011904763134095e-49 2.3089011123264696" Properties=species:S:1:pos:R:3 cutoff=-1.0 nneightol=1.2 n_minim_iter=1 stress="-0.2766301727685013 5.96286548114033e-17 -9.67227995836505e-17 5.96286548114033e-17 -0.27663017276850116 -2.7890114373137346e-16 -9.67227995836505e-17 -2.7890114373137346e-16 -0.2788585093092385" pbc="T T T"
Si       0.00000000       0.00000000       0.00000000
