1
Lattice="2.4349129872409434 2.3752887681223772e-17 1.1274731123390407e-50 1.2174564936204715 2.1086965029553135 1.4057271646857319e-49 -2.2828545461284722e-49 -1.046261861745916e-49 2.30890111232647" Properties=species:S:1:pos:R:3 cutoff=-1.0 nneightol=1.2 n_minim_iter=2 stress="-0.22200331045587007 1.0160306659649319e-16 3.097351942983434e-17 1.0160306659649319e-16 -0.22200331045586688 1.4799246812241213e-16 3.097351942983434e-17 1.4799246812241213e-16 -0.2219826086139299" pbc="T T T"
Si       0.00000000       0.00000000       0.00000000
