8
Lattice="-3.1779341839009843 3.1777388295259064 3.1777994184196614 3.1776973147442114 -3.177892666201448 3.1777163859384348 3.1778184886334158 3.177776970933872 -3.177953255095208" Properties=species:S:1:pos:R:3:forces:R:3 cutoff=-1.0 nneightol=1.2 n_minim_iter=1 energy=-1303.1770134321614 stress="-0.11698093156936566 -2.8994055907077782e-05 -5.9360621843754624e-05 -2.8994055907077782e-05 -0.11698092900690121 -3.8552385316127833e-05 -5.9360621843754624e-05 -3.8552385316127833e-05 -0.11698092915094928" free_energy=-1303.1770134321614 pbc="T T T"
Si       2.51055497       0.66718978      -0.66733166      -0.08123421       0.08040366      -0.07973670
Si       3.84496083      -0.66730548       0.66709479       0.08123421      -0.08040366       0.07973670
Si       0.66717687       0.66718714       0.66717446       0.08154983       0.08118957       0.08116411
Si       0.66714041      -0.66729492       2.51053235       0.07984181      -0.07975259      -0.08100139
Si      -0.66729413       2.51053574       0.66718476      -0.07941111      -0.08069164       0.08013535
Si       0.66717844       3.84498006      -0.66733860       0.07941111       0.08069164      -0.08013535
Si      -0.66737728       0.66714108       3.84498345      -0.07984181       0.07975259       0.08100139
Si       2.51040475       2.51043599       2.51038809      -0.08154983      -0.08118957      -0.08116411
8
Lattice="-3.1753601280830255 3.178017488143047 3.1771937951570925 3.1785824615739022 -3.175924479583085 3.1783231200940003 3.1769344447762147 3.1774987962794836 -3.175100786598217" Properties=species:S:1:pos:R:3:forces:R:3 cutoff=-1.0 nneightol=1.2 n_minim_iter=2 energy=-1303.1828735994793 stress="-0.1141739361587405 0.0003947603728957089 0.000808075600889894 0.0003947603728957089 -0.11417345569823123 0.0005248500778124249 0.000808075600889894 0.0005248500778124249 -0.11417353858294979" free_energy=-1303.1828735994793 pbc="T T T"
Si       2.50456566       0.67336110      -0.67142606       0.00296299       0.00868008      -0.01816495
Si       3.85095125      -0.67178678       0.67464839      -0.00296299      -0.00868008       0.01816494
Si       0.67354725       0.67340334       0.67357627      -0.00635611      -0.00126781      -0.00087894
Si       0.67402787      -0.67192715       2.50487534       0.01626366      -0.01763162      -0.00001054
Si      -0.67193415       2.50483122       0.67342810      -0.02225326      -0.00425115       0.01201327
Si       0.67350846       3.85068507      -0.67133509       0.02225326       0.00425115      -0.01201327
Si      -0.67080554       0.67402015       3.85064157      -0.01626366       0.01763162       0.00001054
Si       2.50660953       2.50618846       2.50683986       0.00635610       0.00126781       0.00087894
8
Lattice="-3.178070986884523 3.1777237253381507 3.177831078289375 3.1776514973318335 -3.17799633696839 3.177684200458758 3.177865793996344 3.1777911441305577 -3.178103689940516" Properties=species:S:1:pos:R:3:forces:R:3 cutoff=-1.0 nneightol=1.2 n_minim_iter=3 energy=-1303.1830043863522 stress="-0.11403016967130064 -5.098885179867692e-05 -0.00010433622618750912 -5.098885179867692e-05 -0.11403058981274308 -6.777753813615738e-05 -0.00010433622618750912 -6.777753813615738e-05 -0.11403042699977628" free_energy=-1303.1830043863522 pbc="T T T"
Si       2.50451959       0.67321783      -0.67347184      -0.00511270       0.00356684      -0.00230979
Si       3.85099770      -0.67342302       0.67305235       0.00511270      -0.00356684       0.00230979
Si       0.67319800       0.67321719       0.67319502       0.00548364       0.00480824       0.00475348
Si       0.67313066      -0.67340491       2.50447986       0.00259125      -0.00240964      -0.00473893
Si      -0.67340383       2.50448542       0.67320721      -0.00181192      -0.00419389       0.00316004
Si       0.67319864       3.85102945      -0.67347982       0.00181192       0.00419389      -0.00316004
Si      -0.67355015       0.67313230       3.85103542      -0.00259125       0.00240964       0.00473893
Si       2.50424830       2.50430134       2.50421657      -0.00548364      -0.00480823      -0.00475348
