8
Lattice="-3.3768726457480387 3.376871559786624 3.376871896939707 3.3768713249261566 -3.376872410893359 3.3768714272245677 3.3768719992235083 3.3768717643688255 -3.376872748046449" Properties=species:S:1:pos:R:3:forces:R:3 cutoff=-1.0 nneightol=1.2 n_minim_iter=2 energy=-1304.008143539835 stress="0.022049787438959464 -1.1153384107990118e-07 -2.2786753244299292e-07 -1.1153384107990118e-07 0.022049787439822863 -1.468196611660933e-07 -2.2786753244299292e-07 -1.468196611660933e-07 0.022049787440939675" free_energy=-1304.008143539835 pbc="T T T"
Si       2.69984704       0.67702453      -0.67702532      -0.00176498       0.00176315      -0.00176251
Si       4.05389629      -0.67702518       0.67702400       0.00176499      -0.00176315       0.00176251
Si       0.67702448       0.67702453       0.67702447       0.00176719       0.00176650       0.00176660
Si       0.67702425      -0.67702511       2.69984692       0.00176169      -0.00176203      -0.00176390
Si      -0.67702510       2.69984694       0.67702450      -0.00176109      -0.00176327       0.00176194
Si       0.67702446       4.05389638      -0.67702535       0.00176109       0.00176327      -0.00176194
Si      -0.67702557       0.67702426       4.05389641      -0.00176169       0.00176203       0.00176390
Si       2.69984619       2.69984638       2.69984611      -0.00176719      -0.00176650      -0.00176660
