2
Lattice="4.958732240728479 4.7601695602393584e-17 2.5457771389328253e-15 4.7601695602397406e-17 4.958732240728479 -4.691978653374677e-15 2.4793661203642388 2.479366120364241 1.4351997180858922" Properties=species:S:1:pos:R:3 cutoff=-1.0 nneightol=1.2 n_minim_iter=1 energy=-325.5832924877178 free_energy=-325.5832924877178 pbc="T T T"
Si      -0.00000000      -1.23968306      -0.35879993
Si      -0.00000000       1.23968306       0.35879993
2
Lattice="4.893771632579493 -5.997784103698554e-17 2.571061205417592e-15 -5.997784103698194e-17 4.893771632579491 -4.372389341433368e-15 2.4468858162897456 2.446885816289747 1.4735546872873297" Properties=species:S:1:pos:R:3 cutoff=-1.0 nneightol=1.2 n_minim_iter=2 stress="0.03747555179418747 1.3309896217111612e-17 -3.901059528710722e-16 1.3309896217111612e-17 0.037475551794186185 -4.216855078142909e-16 -3.901059528710722e-16 -4.216855078142909e-16 0.035576117422065796" pbc="T T T"
Si      -0.00000000      -1.22344291      -0.36838867
Si      -0.00000000       1.22344291       0.36838867
