2
Lattice="4.643636095453391 2.1113044430461772e-17 1.0638038220470169e-16 2.1113044430461266e-17 4.643636095453391 -2.8940399303836044e-16 2.3218180477266954 2.3218180477266954 1.280801917118868" Properties=species:S:1:pos:R:3 cutoff=-1.0 nneightol=1.2 n_minim_iter=1 energy=-325.58381069113824 free_energy=-325.58381069113824 pbc="T T T"
Si      -0.00000000      -1.16090902      -0.32020048
Si      -0.00000000       1.16090903       0.32020048
