2
Lattice="4.4855783358546475 1.1919257724538163e-17 -1.7816455493978964e-16 1.1919257724537392e-17 4.4855783358546475 2.296218004122005e-16 2.2427891679273237 2.2427891679273237 1.2201378850244566" Properties=species:S:1:pos:R:3 cutoff=-1.0 nneightol=1.2 n_minim_iter=1 energy=-325.09689428919216 free_energy=-325.09689428919216 pbc="T T T"
Si      -0.00000000      -1.12139458      -0.30503447
Si      -0.00000000       1.12139459       0.30503447
