14
Lattice="5.699756812954277 0.4416361006496387 -6.830207339284113e-15 0.27468037042269644 2.5804800986858742 -3.016827951237323e-14 4.827582646961764e-15 1.7676871291058827e-13 15.162639579374673" Properties=species:S:1:pos:R:3 unique_starting_index=0 config_type=initial n_minim_iter=1 energy=-2278.79671840273 free_energy=-2278.79671840273 pbc="T T T"
Si       1.88950333       1.18485661      12.05452786
Si       1.09771527       0.32620149       4.47320807
Si       4.08493386       1.83725959       3.10811172
Si       4.87672192       2.69591471      10.68943151
Si       4.61107930       1.15212793       5.44906287
Si       4.07589611       0.80056627      13.03038266
Si       1.36335788       1.86998827       9.71357671
Si       1.89854108       2.22154993       2.13225692
Si       2.42284198       0.71267977       6.51458092
Si       0.56437661       0.79837833      14.09590071
Si       3.55159520       2.30943643       8.64805866
Si       5.41006057       2.22373787       1.06673887
Si       2.84987841       0.22081805      -0.00000000
Si       0.13734019       1.29024005       7.58131979
14
Lattice="5.690745460278732 0.43581660850464754 -6.793988403222676e-15 0.2718353861693558 2.5775894677502835 -3.013762979374207e-14 4.7276162015043325e-15 1.763878815682497e-13 15.131147598268736" Properties=species:S:1:pos:R:3 unique_starting_index=0 config_type=initial n_minim_iter=2 stress="-0.0014360507601722987 0.0007438346060340971 -2.4180535525385884e-15 0.0007438346060340971 -0.0015310506526247656 2.3298034228838953e-14 -2.4180535525385884e-15 2.3298034228838953e-14 -0.0009780293759150509" pbc="T T T"
Si       1.88569358       1.18211159      12.02908409
Si       1.09559685       0.32459145       4.46351029
Si       4.07688727       1.83129449       3.10206350
Si       4.86698400       2.68881462      10.66763730
Si       4.60315982       1.14683811       5.43741611
Si       4.06887607       0.79568154      13.00298991
Si       1.35942103       1.86656797       9.69373149
Si       1.89370478       2.21772454       2.12815769
Si       2.41788897       0.70964281       6.50074765
Si       0.56340145       0.79706023      14.06632145
Si       3.54469187       2.30376327       8.63039995
Si       5.39917940       2.21634584       1.06482615
Si       2.84537273       0.21790830      -0.00000000
Si       0.13591769       1.28879473       7.56557380
14
Lattice="5.69502122105737 0.41116796834404123 -6.5290937462163256e-15 0.26047396037164694 2.5828573936565746 -3.0197908004206955e-14 4.664657445181773e-15 1.7608531563072e-13 15.105931709078535" Properties=species:S:1:pos:R:3 unique_starting_index=0 config_type=initial n_minim_iter=3 stress="0.000131912121639693 -0.0008839877823332511 -2.8024624790125766e-15 -0.0008839877823332511 0.00026692722128607494 -1.7233533635307224e-15 -2.8024624790125766e-15 -1.7233533635307224e-15 -0.0013096641577198312" pbc="T T T"
Si       1.88337251       1.17808605      12.00645793
Si       1.09437508       0.31892663       4.45349208
Si       4.07212267       1.81593931       3.09947378
Si       4.86112010       2.67509873      10.65243963
Si       4.60362929       1.13027892       5.42640410
Si       4.06913952       0.77790173      12.97936996
Si       1.35186589       1.86374645       9.67952761
Si       1.88635566       2.21612363       2.12656175
Si       2.41341812       0.70036503       6.48811441
Si       0.56432947       0.79664765      14.04108027
Si       3.54207706       2.29366034       8.61781730
Si       5.39116571       2.19737771       1.06485144
Si       2.84751061       0.20558398      -0.00000000
Si       0.13023698       1.29142870       7.55296585
14
Lattice="5.6766956590641 0.3855776988082456 -6.17800710603876e-15 0.24795873124345846 2.583457229301892 -3.0196324656756345e-14 4.8087438802178165e-15 1.7688975612937065e-13 15.17372165401589" Properties=species:S:1:pos:R:3 unique_starting_index=0 config_type=initial n_minim_iter=4 stress="-0.0005097898132776242 -0.0022418511371642418 3.277746517026583e-15 -0.0022418511371642418 0.0014643418906695271 9.617803170536711e-15 3.277746517026583e-15 9.617803170536711e-15 0.0011403887190601777" pbc="T T T"
Si       1.87907204       1.17761391      12.04779847
Si       1.08325515       0.30690355       4.46093764
Si       4.04558235       1.79142101       3.12592318
Si       4.84139924       2.66213138      10.71278401
Si       4.58860460       1.11688162       5.44076659
Si       4.05041825       0.75321354      13.02762742
Si       1.33604979       1.85215331       9.73295506
Si       1.87423614       2.21582139       2.14609423
Si       2.38401989       0.68893359       6.50875665
Si       0.57830731       0.79558387      14.09561748
Si       3.54063450       2.28010134       8.66496500
Si       5.34634708       2.17345105       1.07810417
Si       2.83834783       0.19278885      -0.00000000
Si       0.12397937       1.29172861       7.58686083
14
Lattice="5.696992311464365 0.4094780556950844 -6.48779857161817e-15 0.26007030012469856 2.5794188140859062 -3.015569094595909e-14 4.733499442631786e-15 1.7648944626361308e-13 15.140116615923672" Properties=species:S:1:pos:R:3 unique_starting_index=0 config_type=initial n_minim_iter=5 stress="0.0017684835600899366 -0.0008792753348731561 2.4107459584746916e-15 -0.0008792753348731561 -0.0005173160432904606 9.869179764114281e-15 2.4107459584746916e-15 9.869179764114281e-15 -0.0006445038490284976" pbc="T T T"
Si       1.89244807       1.18566328      12.01771336
Si       1.08608324       0.30878516       4.44765505
Si       4.06461454       1.80323359       3.12240326
Si       4.87097937       2.68011171      10.69246156
Si       4.60896816       1.13678213       5.42670632
Si       4.06655546       0.76714436      12.99676463
Si       1.34809446       1.85211474       9.71341029
Si       1.89050715       2.22175251       2.14335199
Si       2.38965797       0.69706208       6.49225296
Si       0.58887334       0.79738635      14.06231127
Si       3.56740465       2.29183479       8.64786366
Si       5.36818927       2.19151052       1.07780535
Si       2.84849616       0.20473903      -0.00000000
Si       0.13003515       1.28970941       7.57005831
14
Lattice="5.681706262093365 0.4338713730274147 -6.760972347587409e-15 0.26991363358892395 2.585403572203894 -3.0227975723536665e-14 4.753015843979613e-15 1.7659703874532736e-13 15.149201634249168" Properties=species:S:1:pos:R:3 unique_starting_index=0 config_type=initial n_minim_iter=6 stress="-0.0012029459596051293 0.0007929666785673885 1.1707724631166035e-15 0.0007929666785673885 0.0010215431349400658 -1.4809668167464664e-14 1.1707724631166035e-15 -1.4809668167464664e-14 -0.0004411920219977145" pbc="T T T"
Si       1.89322679       1.19692019      12.02378081
Si       1.08258315       0.31271728       4.44918000
Si       4.05839310       1.82235475       3.12542082
Si       4.86903674       2.70655767      10.70002164
Si       4.59936838       1.15912420       5.43032292
Si       4.05814783       0.78438465      13.00492374
Si       1.35225151       1.86015074       9.71887871
Si       1.89347207       2.23489030       2.14427789
Si       2.38357290       0.70736690       6.49527988
Si       0.59223705       0.80227057      14.06988070
Si       3.56804699       2.31190805       8.65392175
Si       5.35938285       2.21700437       1.07932093
Si       2.84085313       0.21693569      -0.00000000
Si       0.13495682       1.29270179       7.57460082
14
Lattice="5.684909732627363 0.4281938225190683 -6.682126625490921e-15 0.2679086527417225 2.5800983619277633 -3.0164082922953506e-14 4.79471447774187e-15 1.7682381276161172e-13 15.168265490944714" Properties=species:S:1:pos:R:3 unique_starting_index=0 config_type=initial n_minim_iter=7 stress="-0.0002855458966736583 0.00035250530247183255 4.271551088544125e-15 0.00035250530247183255 -0.00018262689394006926 -5.612917714370945e-16 4.271551088544125e-15 -5.612917714370945e-16 0.0002944300998771747" pbc="T T T"
Si       1.89388770       1.19333612      12.03898131
Si       1.08252149       0.31080997       4.45484856
Si       4.05893068       1.81495606       3.12928418
Si       4.87029690       2.69748221      10.71341693
Si       4.60045248       1.15318840       5.43830255
Si       4.06086644       0.77915151      13.02243530
Si       1.35236590       1.85510378       9.72996294
Si       1.89195194       2.22914067       2.14583019
Si       2.38459907       0.70339600       6.50336515
Si       0.59181013       0.80075009      14.08749789
Si       3.56821932       2.30489618       8.66490034
Si       5.36100826       2.20754210       1.08076760
Si       2.84245487       0.21409691      -0.00000000
Si       0.13395433       1.29004918       7.58413275
14
Lattice="5.69570032350353 0.4118134979438243 -6.482132787495082e-15 0.26180741010714115 2.569842092576332 -3.004115323432784e-14 4.83292725509062e-15 1.7704385090242696e-13 15.186707139371439" Properties=species:S:1:pos:R:3 unique_starting_index=0 config_type=initial n_minim_iter=8 stress="0.002530454880781209 -0.0010181004938214435 2.0664674930710125e-15 -0.0010181004938214435 -0.002764517824774578 5.141262440759582e-15 2.0664674930710125e-15 5.141262440759582e-15 0.0008292792847174858" pbc="T T T"
Si       1.90161971       1.19000081      12.05054806
Si       1.07713415       0.30082698       4.45719449
Si       4.05588802       1.79165478       3.13615907
Si       4.88037358       2.68082861      10.72951264
Si       4.59974114       1.14178565       5.45362899
Si       4.07471305       0.76085565      13.04698256
Si       1.35776659       1.83986994       9.73307815
Si       1.88279468       2.22079995       2.13972458
Si       2.38329450       0.68824039       6.50811732
Si       0.59545936       0.80258740      14.10147089
Si       3.57421323       2.29341520       8.67858982
Si       5.36204837       2.17906819       1.08523625
Si       2.84785016       0.20590675      -0.00000000
Si       0.13090371       1.28492105       7.59335357
14
Lattice="5.671757837703351 0.4346689889898594 -6.73690895160533e-15 0.27031945513232425 2.5786389782729464 -3.014576770751397e-14 4.8464997873166835e-15 1.7715626736507803e-13 15.19613542758373" Properties=species:S:1:pos:R:3 unique_starting_index=0 config_type=initial n_minim_iter=9 stress="2.5515135912438414e-05 -0.0002060591001483763 3.4581121915790444e-15 -0.0002060591001483763 0.000385449451422697 -1.1512940283075596e-14 3.4581121915790444e-15 -1.1512940283075596e-14 0.0013126264790673723" pbc="T T T"
Si       1.92259361       1.22123072      12.04633337
Si       1.04844504       0.28542326       4.44826566
Si       4.01948368       1.79207724       3.14980206
Si       4.89363226       2.72788471      10.74786977
Si       4.56236617       1.17952933       5.48135598
Si       4.08043032       0.76179364      13.07942370
Si       1.37971113       1.83377863       9.71477945
Si       1.86164698       2.25151433       2.11671173
Si       2.35730683       0.67778155       6.50161698
Si       0.61373182       0.82887243      14.09968470
Si       3.58477046       2.33552641       8.69451844
Si       5.32834548       2.18443554       1.09645073
Si       2.83587892       0.21733449      -0.00000000
Si       0.13515973       1.28931949       7.59806771
14
Lattice="5.676676135273027 0.44505028340788294 -6.8949609505019744e-15 0.2750573959097579 2.581208001084678 -3.0180843273350644e-14 4.738672881425862e-15 1.7658607353798241e-13 15.148213829147227" Properties=species:S:1:pos:R:3 unique_starting_index=0 config_type=initial n_minim_iter=10 stress="-0.00025977184864257045 0.0003560057111205216 3.46472452300481e-15 0.0003560057111205216 8.401856268856021e-05 -6.3393008887937766e-15 3.46472452300481e-15 -6.3393008887937766e-15 -0.0012750815671370179" pbc="T T T"
Si       1.93535546       1.23174975      12.00474932
Si       1.04051130       0.28137940       4.43064241
Si       4.01637807       1.79450854       3.14346450
Si       4.91122223       2.74487889      10.71757142
Si       4.56387935       1.19375292       5.46762441
Si       4.08866355       0.76442651      13.04173132
Si       1.38785418       1.83250537       9.68058942
Si       1.86306998       2.26183178       2.10648250
Si       2.35374506       0.67511919       6.47869756
Si       0.62212170       0.83800995      14.05280447
Si       3.59798847       2.35113909       8.66951627
Si       5.32961183       2.18824833       1.09540936
Si       2.83833807       0.22252514      -0.00000000
Si       0.13752870       1.29060400       7.57410691
14
Lattice="5.6801932122064915 0.4390292879771846 -6.821549975496025e-15 0.2727327248805707 2.578217015180657 -3.014478014573109e-14 4.751843831476388e-15 1.7665688037657196e-13 15.154156284605033" Properties=species:S:1:pos:R:3 unique_starting_index=0 config_type=initial n_minim_iter=11 stress="-0.0004502118656161089 0.0005156428599346095 -3.164505468935341e-15 0.0005156428599346095 -0.00088820798520152 -1.5942570746271637e-14 -3.164505468935341e-15 -1.5942570746271637e-14 -0.0005584875023480544" pbc="T T T"
Si       1.95084685       1.23341246      12.01259844
Si       1.02561612       0.27521069       4.43552029
Si       4.00207908       1.78383384       3.14155785
Si       4.92730982       2.74203561      10.71863599
Si       4.56306402       1.19198442       5.47167006
Si       4.09359217       0.75566802      13.04874820
Si       1.38986192       1.82526189       9.68248622
Si       1.85933377       2.26157828       2.10540808
Si       2.35472284       0.65837881       6.48437808
Si       0.62174013       0.85024434      14.06145622
Si       3.59820310       2.35886749       8.66977821
Si       5.33118581       2.16700196       1.09270007
Si       2.84009661       0.21951464      -0.00000000
Si       0.13636636       1.28910851       7.57707814
14
Lattice="5.6840362545925975 0.4225140955368775 -6.637279405909427e-15 0.2652738079454875 2.5803737580389874 -3.0168353921407964e-14 4.730411532601741e-15 1.765414036524542e-13 15.144475840319755" Properties=species:S:1:pos:R:3 unique_starting_index=0 config_type=initial n_minim_iter=12 stress="0.0002781568423659786 3.931430363289819e-05 3.188245666119997e-15 3.931430363289819e-05 -3.9863623130025594e-05 9.36629011171682e-15 3.188245666119997e-15 9.36629011171682e-15 2.5444294610940203e-05" pbc="T T T"
Si       1.96407077       1.23449881      12.00727836
Si       1.01058426       0.26694512       4.43504044
Si       3.98523929       1.76838905       3.13719748
Si       4.93872580       2.73594273      10.70943540
Si       4.56009320       1.18448761       5.46870163
Si       4.09859808       0.73947041      13.04093955
Si       1.38921686       1.81840024       9.67577421
Si       1.85071198       2.26341745       2.10353629
Si       2.35308363       0.63781369       6.48204157
Si       0.62157140       0.86363023      14.05427949
Si       3.59622643       2.36507416       8.66243427
Si       5.32773866       2.13925762       1.09019635
Si       2.84201813       0.21125705      -0.00000000
Si       0.13263690       1.29018688       7.57223792
14
Lattice="5.674866985333608 0.39983374751200146 -6.3582806431235866e-15 0.2544564076902528 2.5817589387712045 -3.017997980185791e-14 4.7662198344411816e-15 1.7673535318851575e-13 15.160827736990964" Properties=species:S:1:pos:R:3 unique_starting_index=0 config_type=initial n_minim_iter=13 stress="-0.00023844710835402817 -0.0004572321380895555 9.033547742539192e-15 -0.0004572321380895555 0.0004655529760425339 1.5786059248774195e-14 9.033547742539192e-15 1.5786059248774195e-14 0.0010316443295344284" pbc="T T T"
Si       1.98146046       1.24107935      12.02140818
Si       0.98320124       0.24971699       4.44099431
Si       3.94786293       1.74051334       3.13941956
Si       4.94612216       2.73187569      10.71983343
Si       4.53621163       1.18016672       5.47322060
Si       4.10331705       0.71046337      13.05363447
Si       1.39311176       1.80142597       9.68760713
Si       1.82600634       2.27112931       2.10719326
Si       2.33653856       0.60071301       6.48513243
Si       0.62812314       0.89008334      14.06554630
Si       3.59278483       2.38087968       8.67569530
Si       5.30120026       2.09150935       1.09528144
Si       2.83743349       0.19991687      -0.00000000
Si       0.12722820       1.29087947       7.58041387
14
Lattice="5.6770954122649355 0.3971253340689507 -6.355509390496429e-15 0.25313065285838593 2.58442986689446 -3.021394575750829e-14 4.680937779267971e-15 1.7627920593106574e-13 15.122670006474012" Properties=species:S:1:pos:R:3 unique_starting_index=0 config_type=initial n_minim_iter=14 stress="-0.0004047716698306311 -0.0005423452068906018 1.3285769672457092e-15 -0.0005423452068906018 0.00014783357627542012 9.481918287282612e-15 1.3285769672457092e-15 9.481918287282612e-15 -0.0011601267461697504" pbc="T T T"
Si       1.97823749       1.24036999      12.00511221
Si       0.98687554       0.25040761       4.44377721
Si       3.95198858       1.74118521       3.11755780
Si       4.94335052       2.73114759      10.67889280
Si       4.52460418       1.18249337       5.44683168
Si       4.11760426       0.70540957      13.00816669
Si       1.40562188       1.79906183       9.67583832
Si       1.81262180       2.27614564       2.11450332
Si       2.34160536       0.58480379       6.46697015
Si       0.62350768       0.90597382      14.02830515
Si       3.58862071       2.39675142       8.65569986
Si       5.30671839       2.07558139       1.09436486
Si       2.83854771       0.19856267      -0.00000000
Si       0.12656533       1.29221493       7.56133500
14
Lattice="5.6770635985137226 0.4042165498403433 -6.425256262268514e-15 0.2564759107044163 2.582670151967952 -3.0193409847762606e-14 4.720615348145417e-15 1.764984452210876e-13 15.14124192205705" Properties=species:S:1:pos:R:3 unique_starting_index=0 config_type=initial n_minim_iter=15 stress="-0.0001095770767427736 -6.242634370658491e-05 -9.972978100077054e-15 -6.242634370658491e-05 -7.461019005267175e-05 -8.463508105332801e-15 -9.972978100077054e-15 -8.463508105332801e-15 -0.00015686668881716734" pbc="T T T"
Si       1.98555393       1.24557104      12.02023491
Si       0.98121582       0.24787231       4.44961394
Si       3.94798558       1.74131566       3.12100702
Si       4.95232368       2.73901439      10.69162798
Si       4.52098073       1.19165059       5.45466140
Si       4.12285263       0.70600931      13.02528236
Si       1.41255878       1.79523611       9.68658053
Si       1.81068688       2.28087739       2.11595957
Si       2.33922937       0.57974380       6.47370781
Si       0.62754038       0.91369955      14.04432877
Si       3.59431014       2.40714291       8.66753411
Si       5.30599913       2.07318715       1.09691315
Si       2.83853180       0.20210827      -0.00000000
Si       0.12823796       1.29133508       7.57062096
14
Lattice="5.677973781225542 0.4091603968991105 -6.475614717872318e-15 0.2587801707825993 2.5823843650752774 -3.0190235009694776e-14 4.743765288940115e-15 1.766220006599355e-13 15.151734386580294" Properties=species:S:1:pos:R:3 unique_starting_index=0 config_type=initial n_minim_iter=16 stress="0.0004027585446670103 0.00032616949864648105 6.62979159914609e-15 0.00032616949864648105 0.00012013517103140378 2.5679557225877833e-14 6.62979159914609e-15 2.5679557225877833e-14 0.000557615541771958" pbc="T T T"
Si       1.99009671       1.24857302      12.03013408
Si       0.97828027       0.24719936       4.45426689
Si       3.94665724       1.74297174       3.12160031
Si       4.95847368       2.74434540      10.69746750
Si       4.51920730       1.19957492       5.45854725
Si       4.12714346       0.70535786      13.03441444
Si       1.41754666       1.79196984       9.69318714
Si       1.80961049       2.28618690       2.11731994
Si       2.33861737       0.57547111       6.47881654
Si       0.62975960       0.92030127      14.05468374
Si       3.59813658       2.41607365       8.67291784
Si       5.30699435       2.07124349       1.09705065
Si       2.83898689       0.20458020      -0.00000000
Si       0.12939009       1.29119218       7.57586719
14
Lattice="5.663018104073706 0.3951703023344393 -6.290814743222994e-15 0.2517547436792423 2.58200856801903 -3.0181875845405124e-14 4.795816619667228e-15 1.7690957320043577e-13 15.175913707355575" Properties=species:S:1:pos:R:3 unique_starting_index=0 config_type=initial n_minim_iter=17 stress="0.00017805360775402802 4.609854877459213e-05 -1.8603473651895534e-15 4.609854877459213e-05 7.259431449987962e-05 -1.2932260373448745e-14 -1.8603473651895534e-15 -1.2932260373448745e-14 0.00018492053225652841" pbc="T T T"
Si       1.97652674       1.23826353      12.05197247
Si       0.98085969       0.25032590       4.46401562
Si       3.93824611       1.73891534       3.12394124
Si       4.93391316       2.72685297      10.71189809
Si       4.50423380       1.20730658       5.46774189
Si       4.11617072       0.67645316      13.05569874
Si       1.41053904       1.76987229       9.70817182
Si       1.79860212       2.30072571       2.12021497
Si       2.32786752       0.56288834       6.49873371
Si       0.62951890       0.92570109      14.08669056
Si       3.58690533       2.41429053       8.67718000
Si       5.28525395       2.05147778       1.08922315
Si       2.83150905       0.19758515      -0.00000000
Si       0.12587737       1.29100428       7.58795685
14
Lattice="5.656969501116196 0.3818158013061735 -6.1368664549353076e-15 0.2453578048802762 2.5827751241694368 -3.018894272145976e-14 4.785084295429273e-15 1.768681264575509e-13 15.17234234645847" Properties=species:S:1:pos:R:3 unique_starting_index=0 config_type=initial n_minim_iter=18 stress="-0.00023378280454998306 -7.049379664451567e-05 3.4447343462323647e-15 -7.049379664451567e-05 -0.00010088742256442308 1.1760687996238446e-14 3.4447343462323647e-15 1.1760687996238446e-14 -0.00038643082279565084" pbc="T T T"
Si       1.98244640       1.23814855      12.04909000
Si       0.96871725       0.24414692       4.46291883
Si       3.91988090       1.72644238       3.12325235
Si       4.93361005       2.72044401      10.70942352
Si       4.49309079       1.20889745       5.46512672
Si       4.11504236       0.65521382      13.05129789
Si       1.40923652       1.75569348       9.70721563
Si       1.78728494       2.30937711       2.12104445
Si       2.31868700       0.54475181       6.49581992
Si       0.63247665       0.93754365      14.08199109
Si       3.58364030       2.41983912       8.67652243
Si       5.26985066       2.02704727       1.09035126
Si       2.82848475       0.19090790      -0.00000000
Si       0.12267890       1.29138756       7.58617117
14
Lattice="5.60649814978375 0.31031685463243186 -5.2493695833707605e-15 0.21065939118166072 2.5814333439782704 -3.0154365674591525e-14 4.911616667995773e-15 1.7798432527891997e-13 15.264904759586658" Properties=species:S:1:pos:R:3 unique_starting_index=0 config_type=initial n_minim_iter=19 stress="0.00033805085491223823 -0.0005162502582091038 -1.901500335282538e-15 -0.0005162502582091038 -0.0005069493678392768 -2.2690286605237807e-14 -1.901500335282538e-15 -2.2690286605237807e-14 0.002483913200875594" pbc="T T T"
Si       1.98331860       1.20370324      12.14340305
Si       0.92526017       0.24217186       4.51095067
Si       3.83383894       1.68804696       3.12150171
Si       4.89189737       2.64957834      10.75395409
Si       4.41516306       1.26130013       5.50033185
Si       4.09991386       0.49489183      13.13278423
Si       1.40199448       1.63045007       9.76457291
Si       1.71724368       2.39685837       2.13212053
Si       2.28937919       0.44417311       6.53823703
Si       0.61919958       1.00170199      14.17068941
Si       3.52777835       2.44757708       8.72666773
Si       5.19795796       1.89004821       1.09421535
Si       2.80324907       0.15515843      -0.00000000
Si       0.10532970       1.29071667       7.63245238
14
Lattice="5.539255119591591 0.21256070230947466 -4.189662534307499e-15 0.16282183383086374 2.5858131883487143 -3.018021208128261e-14 4.661086136543113e-15 1.7895892935122542e-13 15.340544291059144" Properties=species:S:1:pos:R:3 unique_starting_index=0 config_type=initial n_minim_iter=20 stress="0.004885817017827004 0.00017083524745978317 1.5174971990470943e-14 0.00017083524745978317 -0.0014718471021565097 2.442298819734017e-15 1.5174971990470943e-14 2.442298819734017e-15 0.005514803320068297" pbc="T T T"
Si       1.98927945       1.15689103      12.22514397
Si       0.86175902       0.24229592       4.55487182
Si       3.71279750       1.64148286       3.11540032
Si       4.84031793       2.55607797      10.78567247
Si       4.31113260       1.34725814       5.52672558
Si       4.07916100       0.26448951      13.19699772
Si       1.39094436       1.45111575       9.81381872
Si       1.62291595       2.53388438       2.14354657
Si       2.24890475       0.30995492       6.56673201
Si       0.60213373       1.08923203      14.23700416
Si       3.45317220       2.48841897       8.77381228
Si       5.09994323       1.70914186       1.10354013
Si       2.76962756       0.10628035      -0.00000000
Si       0.08141092       1.29290659       7.67027215
14
Lattice="5.4964801279699325 0.15237122671003367 -3.601885282264351e-15 0.13290996800265792 2.5935642905765888 -3.025551144726416e-14 4.324266770001723e-15 1.7919910535413648e-13 15.354573303308891" Properties=species:S:1:pos:R:3 unique_starting_index=0 config_type=initial n_minim_iter=21 stress="0.006652397968358536 -0.0002098995352700861 8.795403784658139e-15 -0.0002098995352700861 -0.0013777620556654436 4.133575652549545e-15 8.795403784658139e-15 4.133575652549545e-15 0.0061188381126571255" pbc="T T T"
Si       1.98432500       1.12731802      12.24190256
Si       0.83037005       0.24564974       4.56461590
Si       3.64506510       1.61861750       3.11267075
Si       4.79902004       2.50028578      10.78995740
Si       4.25691969       1.38554063       5.52632005
Si       4.05425548       0.13979836      13.20360670
Si       1.37247040       1.36039489       9.82825326
Si       1.57513461       2.60613716       2.15096660
Si       2.22551490       0.24861797       6.56654899
Si       0.58918015       1.12434979      14.24383565
Si       3.40387519       2.49731755       8.78802431
Si       5.04020995       1.62158573       1.11073766
Si       2.74824006       0.07618561      -0.00000000
Si       0.06645498       1.29678215       7.67728665
