16
Lattice="6.895495645606897 0.7922309935143417 0.8530175635763659 2.2919031352618493 7.439719754235035 2.510534750374135 3.8807457381442543 4.977917758312155 11.997417820574515" Properties=species:S:1:pos:R:3 unique_starting_index=30 config_type=initial n_minim_iter=1 energy=-2630.6134143597774 free_energy=-2630.6134143597774 pbc="T T T"
Si       7.50068601       8.12243031       8.88896157
Si       5.56745851       5.08743820       6.47200857
Si       4.22241560       4.52464408       5.10093034
Si       8.84572892       8.68522443      10.26003979
Si       8.91968057       7.19028500      11.58514814
Si       4.14846395       6.01958351       3.77582200
Si       5.28232083       4.83088524       1.55998842
Si       7.78582369       8.37898327      13.80098172
Si       3.68317403       5.74859380       6.59308923
Si       9.38497049       7.46127471       8.76788091
Si       9.77862972       8.22905659       6.96367374
Si       3.28951480       4.98081192       8.39729640
Si       4.09617198       3.82821893       6.97187869
Si       8.97197254       9.38164958       8.38909144
Si       5.50933874       7.49201121       3.85026618
Si       7.55880578       5.71785729      11.51070395
16
Lattice="6.893326421088431 0.7901774136044963 0.8533551260273029 2.289701518157483 7.436442967088764 2.5086297066679153 3.879454275154451 4.972432777712056 11.995846652586392" Properties=species:S:1:pos:R:3 unique_starting_index=30 config_type=initial n_minim_iter=2 stress="-0.004324534548128465 0.0023720907650683757 0.0006868495554793032 0.0023720907650683757 -0.003796499335830192 0.0025502961600834995 0.0006868495554793032 0.0025502961600834995 -0.004104406672559907" pbc="T T T"
Si       7.49737704       8.11606727       8.88700466
Si       5.56510518       5.08298589       6.47082683
Si       4.22054126       4.52106139       5.09986911
Si       8.84194095       8.67799177      10.25796237
Si       8.91630020       7.18307465      11.58343941
Si       4.14618201       6.01597851       3.77439208
Si       5.27973990       4.82785102       1.55907133
Si       7.78274231       8.37120214      13.79876015
Si       3.68132967       5.74436613       6.59151230
Si       9.38115255       7.45468703       8.76631919
Si       9.77437388       8.22266548       6.96200273
Si       3.28810833       4.97638768       8.39582875
Si       4.09466210       3.82441614       6.97093260
Si       8.96782011       9.37463702       8.38689888
Si       5.50623578       7.48757909       3.84858649
Si       7.55624643       5.71147407      11.50924500
16
Lattice="6.893744681281725 0.7892314926030615 0.8533228226690459 2.2889202046010975 7.436267847524224 2.5078869380896953 3.8790704311154536 4.970572310577591 11.996605842407371" Properties=species:S:1:pos:R:3 unique_starting_index=30 config_type=initial n_minim_iter=3 stress="-0.002112459594178443 0.0010895467597594917 -0.00048627726196793635 0.0010895467597594917 0.000478475283505352 -0.0007752544874191884 -0.00048627726196793635 -0.0007752544874191884 0.0028713142597607396" pbc="T T T"
Si       7.49686929       8.11436133       8.88692047
Si       5.56486603       5.08171033       6.47089513
Si       4.22026220       4.52009791       5.09984147
Si       8.84147312       8.67597374      10.25797414
Si       8.91599794       7.18074717      11.58381479
Si       4.14573738       6.01532449       3.77400081
Si       5.27954268       4.82725785       1.55855121
Si       7.78219264       8.36881380      13.79926439
Si       3.68086067       5.74334896       6.59147106
Si       9.38087465       7.45272269       8.76634454
Si       9.77404131       8.22097273       6.96166019
Si       3.28769400       4.97509892       8.39615541
Si       4.09444879       3.82316937       6.97127645
Si       8.96728653       9.37290228       8.38653915
Si       5.50565704       7.48679182       3.84801695
Si       7.55607828       5.70927983      11.50979865
16
Lattice="6.895200773245383 0.7879238441773189 0.8534299957588427 2.2881624490745907 7.435763239541422 2.5073038454010588 3.879498152496814 4.969396659002749 11.994740925814963" Properties=species:S:1:pos:R:3 unique_starting_index=30 config_type=initial n_minim_iter=4 stress="0.0006247118776625113 -0.00098306764004344 0.00032798130425251796 -0.00098306764004344 7.235073771417535e-05 -6.001475699378215e-06 0.00032798130425251796 -6.001475699378215e-06 -0.0009839862247375839" pbc="T T T"
Si       7.49739273       8.11256597       8.88551893
Si       5.56546864       5.08051777       6.46995584
Si       4.22056347       4.51914174       5.09904232
Si       8.84229790       8.67394201      10.25643245
Si       8.91710487       7.17864475      11.58208044
Si       4.14575650       6.01443900       3.77339432
Si       5.27999565       4.82623362       1.55828494
Si       7.78286572       8.36685012      13.79718983
Si       3.68092199       5.74239876       6.59038974
Si       9.38193939       7.45068498       8.76508502
Si       9.77500350       8.21889271       6.96069838
Si       3.28785788       4.97419103       8.39477638
Si       4.09490028       3.82219843       6.97028621
Si       8.96796109       9.37088532       8.38518856
Si       5.50561606       7.48561571       3.84740083
Si       7.55724532       5.70746803      11.50807393
16
Lattice="6.896779587300556 0.7871068991596104 0.8532818275656475 2.2879510338405264 7.4348749812557635 2.506518614287635 3.8798708756534723 4.967676865555493 11.993656561097756" Properties=species:S:1:pos:R:3 unique_starting_index=30 config_type=initial n_minim_iter=5 stress="0.0019782606792295102 0.0023141281488293242 0.0006220136160007377 0.0023141281488293242 -0.0019395074852632016 -0.00207849977341215 0.0006220136160007377 -0.00207849977341215 -0.0006982352229683169" pbc="T T T"
Si       7.49846014       8.11007684       8.88418416
Si       5.56614135       5.07958191       6.46927284
Si       4.22102368       4.51806315       5.09823820
Si       8.84357782       8.67159559      10.25521881
Si       8.91832626       7.17631846      11.58059716
Si       4.14627523       6.01334029       3.77285984
Si       5.28118464       4.82531969       1.55754760
Si       7.78341686       8.36433905      13.79590940
Si       3.68160245       5.74093612       6.58949761
Si       9.38299904       7.44872263       8.76395939
Si       9.77649984       8.21672925       6.95958610
Si       3.28810166       4.97292949       8.39387090
Si       4.09526101       3.82118252       6.96979695
Si       8.96934049       9.36847622       8.38366005
Si       5.50594839       7.48422524       3.84674960
Si       7.55865311       5.70543350      11.50670740
16
Lattice="6.896577918102274 0.7857071861365654 0.8530685629077244 2.28619403050301 7.43517719637741 2.507063617657515 3.8782739469024836 4.968228227704674 11.99396827878544" Properties=species:S:1:pos:R:3 unique_starting_index=30 config_type=initial n_minim_iter=6 stress="0.00011236361594056568 -0.0007281388969078573 -0.0005899591987078615 -0.0007281388969078573 -0.001931818018366494 0.0010364005303508444 -0.0005899591987078615 0.0010364005303508444 0.0013787481888640398" pbc="T T T"
Si       7.49643648       8.10947811       8.88450822
Si       5.56460942       5.07963450       6.46959224
Si       4.21977706       4.51793057       5.09839228
Si       8.84126884       8.67118204      10.25570818
Si       8.91616916       7.17589927      11.58074240
Si       4.14487673       6.01321334       3.77335805
Si       5.28030728       4.82464454       1.55759754
Si       7.78073861       8.36446807      13.79650292
Si       3.68032843       5.74107237       6.58987096
Si       9.38071747       7.44804024       8.76422950
Si       9.77442350       8.21570808       6.95986738
Si       3.28662239       4.97340453       8.39423308
Si       4.09403687       3.82129746       6.97008946
Si       8.96700902       9.36781515       8.38401099
Si       5.50398996       7.48391402       3.84730923
Si       7.55705593       5.70519859      11.50679123
16
Lattice="6.896111621443066 0.7850483400016488 0.8532369728889647 2.2852852080405643 7.437330353682087 2.5059070706761615 3.8782026360573107 4.9684364798278375 11.990753765956025" Properties=species:S:1:pos:R:3 unique_starting_index=30 config_type=initial n_minim_iter=7 stress="-0.0017493853891510371 0.00011249625143132613 0.00010248858222288722 0.00011249625143132613 0.002635760691565425 -0.0005279605657913504 0.00010248858222288722 -0.0005279605657913504 -0.001799592868404313" pbc="T T T"
Si       7.49573408       8.11017634       8.88192369
Si       5.56386539       5.08063883       6.46797412
Si       4.21926016       4.51852424       5.09697127
Si       8.84033931       8.67229093      10.25292654
Si       8.91542644       7.17635688      11.57759573
Si       4.14417302       6.01445829       3.77230208
Si       5.27974818       4.82544401       1.55692380
Si       7.77985128       8.36537116      13.79297400
Si       3.68007581       5.74215375       6.58799790
Si       9.37952366       7.44866142       8.76189991
Si       9.77330455       8.21667686       6.95790151
Si       3.28629492       4.97413832       8.39199630
Si       4.09365745       3.82165165       6.96838117
Si       8.96594201       9.36916352       8.38151664
Si       5.50285990       7.48565208       3.84613336
Si       7.55673956       5.70516310      11.50376445
16
Lattice="6.901059951423186 0.7803395258446779 0.8557914815964842 2.283406345477187 7.4340705688469635 2.503867498810563 3.883239990883578 4.961578092046412 11.9873646191579" Properties=species:S:1:pos:R:3 unique_starting_index=30 config_type=initial n_minim_iter=8 stress="-0.000784035898815745 8.907690106535362e-05 0.003291123704137469 8.907690106535362e-05 0.0012610295213620597 0.0005173036444128684 0.003291123704137469 0.0005173036444128684 0.0005325392840188831" pbc="T T T"
Si       7.50082440       8.09877278       8.87939053
Si       5.56688189       5.07721541       6.46763307
Si       4.22164469       4.51331265       5.09589285
Si       8.84606160       8.66267554      10.25113075
Si       8.92250204       7.16678330      11.57478560
Si       4.14520424       6.00920489       3.77223800
Si       5.28241127       4.81941979       1.55618375
Si       7.78529502       8.35656839      13.79083985
Si       3.68294133       5.73793270       6.58649525
Si       9.38476496       7.43805548       8.76052835
Si       9.77899067       8.20640778       6.95617867
Si       3.28871561       4.96958040       8.39084493
Si       4.09681037       3.81758308       6.96741915
Si       8.97089592       9.35840511       8.37960445
Si       5.50357480       7.48100597       3.84553871
Si       7.56413148       5.69498221      11.50148489
16
Lattice="6.904017660956228 0.7770412044662631 0.8513273347301441 2.280352817480738 7.430049943500738 2.4983267620337672 3.876894694045055 4.953669078564687 11.977424429062829" Properties=species:S:1:pos:R:3 unique_starting_index=30 config_type=initial n_minim_iter=9 stress="-1.937440762884549e-05 -3.133586867652523e-05 -0.001983386850670508 -3.133586867652523e-05 0.0003931872077923433 -0.0003785825828205899 -0.001983386850670508 -0.0003785825828205899 -0.0021335584774365463" pbc="T T T"
Si       7.49749149       8.08812134       8.86742503
Si       5.56377368       5.07263889       6.45965349
Si       4.21955049       4.50802823       5.08955401
Si       8.84171469       8.65273200      10.23752452
Si       8.91821331       7.15680077      11.56074244
Si       4.14305187       6.00395946       3.76633609
Si       5.28348709       4.81445053       1.54977690
Si       7.77777808       8.34630970      13.77730163
Si       3.67948124       5.73270515       6.57954891
Si       9.38178393       7.42805508       8.74752962
Si       9.77768394       8.19665162       6.94317661
Si       3.28358123       4.96410860       8.38390192
Si       4.09352675       3.81282953       6.96055827
Si       8.96773842       9.34793069       8.36652026
Si       5.50131784       7.47591286       3.83791288
Si       7.55994733       5.68484737      11.48916565
16
Lattice="6.906138376825672 0.7751903023621474 0.8513590514149282 2.279581185367971 7.427471348705153 2.4966076143516047 3.8774259983895982 4.948752178709605 11.97698897800722" Properties=species:S:1:pos:R:3 unique_starting_index=30 config_type=initial n_minim_iter=10 stress="6.465017197911309e-05 0.00030317130166150196 -0.0010714725253588673 0.00030317130166150196 0.00073221668697826 -0.0005261789871568189 -0.0010714725253588673 -0.0005261789871568189 -0.0009423459938831585" pbc="T T T"
Si       7.49900079       8.08160849       8.86577775
Si       5.56414477       5.06980534       6.45917789
Si       4.22028788       4.50462228       5.08894090
Si       8.84285768       8.64679155      10.23601474
Si       8.91995998       7.15060528      11.55951124
Si       4.14318558       6.00080854       3.76544440
Si       5.28521245       4.81156055       1.54817029
Si       7.77793311       8.33985328      13.77678535
Si       3.67964953       5.72941197       6.57948370
Si       9.38349603       7.42200186       8.74547194
Si       9.77952327       8.19042691       6.94142134
Si       3.28362229       4.96098692       8.38353430
Si       4.09447687       3.81001095       6.96056443
Si       8.96866869       9.34140288       8.36439121
Si       5.50153083       7.47294280       3.83656203
Si       7.56161473       5.67847103      11.48839362
16
Lattice="6.909446055004019 0.7735879316472416 0.851754482324308 2.279620883152686 7.424064535089823 2.4955263697907535 3.879339851373156 4.9441342910172015 11.977065655251241" Properties=species:S:1:pos:R:3 unique_starting_index=30 config_type=initial n_minim_iter=11 stress="0.0006731536901893329 0.00010233327890437374 -0.0006363916095493015 0.00010233327890437374 0.0007596374002052592 -0.0005086684142287974 -0.0006363916095493015 -0.0005086684142287974 -0.00041327663307863706" pbc="T T T"
Si       7.50229918       8.07493855       8.86491647
Si       5.56610761       5.06684821       6.45943004
Si       4.22205354       4.50134698       5.08931642
Si       8.84635325       8.64043978      10.23503009
Si       8.92402112       7.14450306      11.55922464
Si       4.14438567       5.99728370       3.76512186
Si       5.28794026       4.80799648       1.54728334
Si       7.78046653       8.33379028      13.77706316
Si       3.68129590       5.72540573       6.57925136
Si       9.38711089       7.41638102       8.74509515
Si       9.78354271       8.18361243       6.94081977
Si       3.28486408       4.95817433       8.38352674
Si       4.09730128       3.80654545       6.96130456
Si       8.97110551       9.33524131       8.36304195
Si       5.50323525       7.46962620       3.83567526
Si       7.56517154       5.67216056      11.48867125
16
Lattice="6.910400656624592 0.7732775282596382 0.8503999000354476 2.279488221073782 7.420867291022927 2.4954390807969986 3.8775032467392374 4.9423594157711745 11.9770402447299" Properties=species:S:1:pos:R:3 unique_starting_index=30 config_type=initial n_minim_iter=12 stress="0.0002268680364165434 1.6980886332626535e-05 -0.0009907956932450192 1.6980886332626535e-05 0.0003726881942241966 -0.00028103852390439583 -0.0009907956932450192 -0.00028103852390439583 -0.00014932686894915016" pbc="T T T"
Si       7.50164187       8.07067884       8.86370941
Si       5.56575025       5.06582540       6.45916982
Si       4.22199149       4.49923270       5.08931681
Si       8.84540064       8.63727153      10.23356241
Si       8.92298009       7.14172414      11.55776960
Si       4.14441203       5.99478009       3.76510962
Si       5.28912239       4.80495594       1.54614131
Si       7.77826973       8.33154829      13.77673791
Si       3.68066381       5.72344810       6.57918857
Si       9.38672831       7.41305614       8.74369066
Si       9.78347269       8.17963740       6.93965328
Si       3.28391943       4.95686684       8.38322595
Si       4.09753661       3.80468731       6.96225357
Si       8.96985551       9.33181692       8.36062566
Si       5.50307326       7.46707164       3.83513107
Si       7.56431887       5.66943259      11.48774816
16
Lattice="6.9142548462362745 0.7743045735444359 0.8495092517058571 2.2818645440429575 7.415162081253788 2.4982201185919735 3.878437349263743 4.943021962606986 11.979875129737357" Properties=species:S:1:pos:R:3 unique_starting_index=30 config_type=initial n_minim_iter=13 stress="0.0005481964300948774 8.036704879652772e-05 4.071890310773073e-06 8.036704879652772e-05 -2.9614600450796003e-05 0.0003298985888005011 4.071890310773073e-06 0.0003298985888005011 0.0009664709309570418" pbc="T T T"
Si       7.50562561       8.06581724       8.86531711
Si       5.56893113       5.06667138       6.46228739
Si       4.22510894       4.49611496       5.09317860
Si       8.84944780       8.63637366      10.23442590
Si       8.92680019       7.14086695      11.55933852
Si       4.14775655       5.99162167       3.76826598
Si       5.29504995       4.80015608       1.54653552
Si       7.77950679       8.33233254      13.78106898
Si       3.68303265       5.72248879       6.58111117
Si       9.39152409       7.40999983       8.74649333
Si       9.78847369       8.17583474       6.94198424
Si       3.28608305       4.95665388       8.38562026
Si       4.10262661       3.80449043       6.96657995
Si       8.97193013       9.32799819       8.36102455
Si       5.50600343       7.46381909       3.83809194
Si       7.56855331       5.66866952      11.48951256
16
Lattice="6.915213868642474 0.7742774432996068 0.8492222218227506 2.2817850672749582 7.416727822810793 2.4989037496079605 3.878147092963506 4.94498770518162 11.980563499403136" Properties=species:S:1:pos:R:3 unique_starting_index=30 config_type=initial n_minim_iter=14 stress="0.0006830208047887913 -0.00010840547785133434 -7.720843386306643e-05 -0.00010840547785133434 0.00025373652842311355 0.0005395898728355814 -7.720843386306643e-05 0.0005395898728355814 0.001032022495777548" pbc="T T T"
Si       7.50579167       8.06732541       8.86578787
Si       5.56935436       5.06866756       6.46290160
Si       4.22599745       4.49702043       5.09411802
Si       8.84914857       8.63897254      10.23457145
Si       8.92705528       7.14339172      11.55932621
Si       4.14809075       5.99260126       3.76936326
Si       5.29614803       4.80024297       1.54688232
Si       7.77899800       8.33575000      13.78180715
Si       3.68313623       5.72375049       6.58183003
Si       9.39200980       7.41224248       8.74685944
Si       9.78868049       8.17799870       6.94216981
Si       3.28646554       4.95799427       8.38651966
Si       4.10384336       3.80628599       6.96807800
Si       8.97130267       9.32970698       8.36061147
Si       5.50604184       7.46598938       3.83846776
Si       7.56910419       5.67000359      11.49022171
16
Lattice="6.915381926199308 0.7751097690757978 0.8517137732545821 2.283067670094454 7.420538083246165 2.5000406312934964 3.8825302241292667 4.947806991774434 11.983178021621953" Properties=species:S:1:pos:R:3 unique_starting_index=30 config_type=initial n_minim_iter=15 stress="0.00032750012008088994 -9.015170449928334e-05 0.0006783693595029776 -9.015170449928334e-05 8.453653643497387e-05 0.0004166517184091597 0.0006783693595029776 0.0004166517184091597 0.0010222548961739018" pbc="T T T"
Si       7.50770373       8.06910515       8.86882628
Si       5.57327609       5.07434969       6.46610615
Si       4.23026663       4.49897364       5.09845713
Si       8.85071319       8.64448120      10.23647529
Si       8.92995666       7.14848254      11.56135480
Si       4.15102316       5.99497231       3.77357762
Si       5.29881910       4.80055380       1.54979479
Si       7.78216072       8.34290104      13.78513764
Si       3.68558396       5.72520494       6.58538462
Si       9.39539586       7.41824991       8.74954780
Si       9.78989460       8.18301127       6.94414233
Si       3.29108522       4.96044358       8.39079010
Si       4.11034769       3.80921341       6.97270110
Si       8.97063213       9.33424143       8.36223132
Si       5.50568600       7.47084739       3.84091870
Si       7.57529382       5.67260745      11.49401373
16
Lattice="6.915235612060117 0.774901099082051 0.8520011864430435 2.2830018330396786 7.42023113797164 2.4994907333226672 3.8830513275689285 4.946941707857952 11.981928228255187" Properties=species:S:1:pos:R:3 unique_starting_index=30 config_type=initial n_minim_iter=16 stress="0.0002304097936162462 -5.9952204066784146e-05 0.0008186882913058174 -5.9952204066784146e-05 -0.00011176239469402968 0.00023911837382879268 0.0008186882913058174 0.00023911837382879268 0.0006810015213728228" pbc="T T T"
Si       7.50757697       8.06776710       8.86775590
Si       5.57371180       5.07430685       6.46566425
Si       4.23087847       4.49856008       5.09811692
Si       8.85041031       8.64351387      10.23530323
Si       8.92994844       7.14788101      11.55967683
Si       4.15134034       5.99419294       3.77374331
Si       5.29931614       4.80005256       1.54987443
Si       7.78197263       8.34202139      13.78354572
Si       3.68572657       5.72458757       6.58482032
Si       9.39556220       7.41748638       8.74859983
Si       9.78961775       8.18231539       6.94291922
Si       3.29167102       4.95975856       8.39050092
Si       4.11151808       3.80866877       6.97257907
Si       8.96977070       9.33340518       8.36084108
Si       5.50521623       7.47060467       3.84028357
Si       7.57607254       5.67146927      11.49313658
16
Lattice="6.9154163115438445 0.7726822836639575 0.8501643346192227 2.2808697890599916 7.417062170213028 2.4953962747630047 3.8799136946628887 4.940216210190167 11.975577094097416" Properties=species:S:1:pos:R:3 unique_starting_index=30 config_type=initial n_minim_iter=17 stress="-1.4283422141069447e-05 -8.164663533292238e-05 0.0002876193247981509 -8.164663533292238e-05 -7.749139723434388e-06 0.00011003621629148405 0.0002876193247981509 0.00011003621629148405 0.00024943558358468627" pbc="T T T"
Si       7.50379088       8.05948545       8.85991829
Si       5.57240891       5.07047521       6.46121942
Si       4.22996135       4.49340923       5.09384388
Si       8.84623845       8.63655143      10.22729383
Si       8.92640330       7.14015078      11.55117778
Si       4.14979650       5.98980989       3.76995993
Si       5.29888585       4.79689126       1.54725788
Si       7.77731395       8.33306941      13.77387982
Si       3.68420451       5.71987164       6.58031166
Si       9.39199528       7.41008902       8.74082605
Si       9.78659960       8.17488115       6.93516472
Si       3.28960020       4.95507952       8.38597298
Si       4.11054241       3.80425930       6.96846067
Si       8.96565739       9.32570136       8.35267703
Si       5.50278824       7.46667074       3.83489975
Si       7.57341155       5.66328992      11.48623796
16
Lattice="6.916386491906846 0.7707160751352318 0.8487052223156657 2.279339176435172 7.414529266768856 2.49128539122753 3.878002275885822 4.9337495481069205 11.9694518849135" Properties=species:S:1:pos:R:3 unique_starting_index=30 config_type=initial n_minim_iter=18 stress="-4.7115409077740356e-05 -1.0319358015283266e-05 -0.0002076342782042062 -1.0319358015283266e-05 0.0002789390302390699 1.2270153764928925e-05 -0.0002076342782042062 1.2270153764928925e-05 -0.00011579430551551913" pbc="T T T"
Si       7.50173608       8.05214234       8.85240085
Si       5.57199187       5.06685255       6.45704165
Si       4.22989933       4.48895836       5.08979690
Si       8.84382862       8.63003653      10.21964559
Si       8.92489615       7.13348446      11.54301260
Si       4.14883180       5.98551043       3.76642990
Si       5.29903691       4.79420466       1.54493377
Si       7.77469104       8.32479023      13.76450873
Si       3.68361481       5.71568327       6.57586598
Si       9.39011314       7.40331162       8.73357652
Si       9.78522742       8.16811553       6.92805338
Si       3.28850053       4.95087936       8.38138912
Si       4.11060248       3.80020897       6.96439695
Si       8.96312547       9.31878592       8.34504554
Si       5.50143306       7.46336927       3.83049607
Si       7.57229488       5.65562562      11.47894643
16
Lattice="6.916893980295194 0.769820644531743 0.8504615467573363 2.27920618116037 7.4135395934982 2.4920026017817545 3.880426918581509 4.932206531714775 11.973070478532174" Properties=species:S:1:pos:R:3 unique_starting_index=30 config_type=initial n_minim_iter=19 stress="-0.00019471973217331608 -2.3453119862986108e-05 -0.00021312176680082453 -2.3453119862986108e-05 -6.425695896158488e-05 -8.905591036732217e-05 -0.00021312176680082453 -8.905591036732217e-05 -0.000257344474700954" pbc="T T T"
Si       7.50287986       8.04953484       8.85588282
Si       5.57364722       5.06603193       6.45965180
Si       4.23195548       4.48787112       5.09241263
Si       8.84457160       8.62769565      10.22312200
Si       8.92700568       7.13183603      11.54708973
Si       4.14952140       5.98373074       3.76844489
Si       5.29923912       4.79343158       1.54740621
Si       7.77728796       8.32213519      13.76812842
Si       3.68532199       5.71502113       6.57806903
Si       9.39120509       7.40054564       8.73746559
Si       9.78608615       8.16486921       6.93167412
Si       3.29044093       4.95069756       8.38386051
Si       4.11201268       3.79955468       6.96703451
Si       8.96451440       9.31601209       8.34850011
Si       5.50159236       7.46204415       3.83211214
Si       7.57493472       5.65352262      11.48342249
16
Lattice="6.915461045634493 0.770643878127521 0.8499667772249906 2.279341798511055 7.415188503211014 2.491248663575145 3.8794264682136115 4.932882767264635 11.971856017779475" Properties=species:S:1:pos:R:3 unique_starting_index=30 config_type=initial n_minim_iter=20 stress="-6.0103283131646394e-05 -3.0239159246772047e-06 2.53819639588599e-06 -3.0239159246772047e-06 -0.00017457559773125504 -3.4163580315136864e-05 2.53819639588599e-06 -3.4163580315136864e-05 -0.000126755484407105" pbc="T T T"
Si       7.50097513       8.05163432       8.85406649
Si       5.57325418       5.06708083       6.45900497
Si       4.23158653       4.48913045       5.09146438
Si       8.84264279       8.62958470      10.22160708
Si       8.92507240       7.13357132      11.54538437
Si       4.14915691       5.98514383       3.76768709
Si       5.29822590       4.79502465       1.54680659
Si       7.77600342       8.32369050      13.76626487
Si       3.68493630       5.71631829       6.57704237
Si       9.38929302       7.40239686       8.73602909
Si       9.78411489       8.16642385       6.93012679
Si       3.29011442       4.95229129       8.38294467
Si       4.11139195       3.80085730       6.96616357
Si       8.96283736       9.31785784       8.34690789
Si       5.50091128       7.46374262       3.83093795
Si       7.57331803       5.65497253      11.48213351
16
Lattice="6.913061418277411 0.7716046469536643 0.8510244319013989 2.2797469327056916 7.417131713281325 2.491213897411101 3.880403682548502 4.933745380971248 11.972720763303721" Properties=species:S:1:pos:R:3 unique_starting_index=30 config_type=initial n_minim_iter=21 stress="0.00020193701178172874 -2.1777447828680834e-05 0.00024899219001440755 -2.1777447828680834e-05 9.054822500483256e-05 6.153387556155717e-05 0.00024899219001440755 6.153387556155717e-05 0.00028630023002410433" pbc="T T T"
Si       7.49866010       8.05442944       8.85454213
Si       5.57455193       5.06805230       6.46041697
Si       4.23300677       4.49113143       5.09211151
Si       8.84020527       8.63135031      10.22284758
Si       8.92409787       7.13553210      11.54680596
Si       4.14911416       5.98694964       3.76815313
Si       5.29652368       4.79715214       1.54669443
Si       7.77668836       8.32532960      13.76826466
Si       3.68648160       5.71830815       6.57772371
Si       9.38673043       7.40417359       8.73723539
Si       9.78084554       8.16763753       6.93100825
Si       3.29236649       4.95484421       8.38395085
Si       4.11184896       3.80258081       6.96674840
Si       8.96136307       9.31990094       8.34821069
Si       5.50053296       7.46585975       3.83141820
Si       7.57267907       5.65662199      11.48354089
