14
Lattice="8.295485302421442 -2.553995894219673 -0.27780191263663384 -1.7788028709182195 6.68974064090031 -0.44485271411907323 -3.768631387326569 1.0075403760795032 8.068029940036721" Properties=species:S:1:pos:R:3 unique_starting_index=20 config_type=initial n_minim_iter=1 energy=-2302.9572513110634 free_energy=-2302.9572513110634 pbc="T T T"
Si       2.24135779       2.30681608       7.19332201
Si       6.04579999       1.64137679       1.05121616
Si       0.50669325       2.83646904       0.15205330
Si      -3.29774894       3.50190833       6.29415915
Si       4.31402279       2.05649614       4.49775558
Si       4.94049956       1.42267853       2.70591283
Si      -1.56597175       3.08678898       2.84761973
Si      -2.19244851       3.72060659       4.63946248
Si       0.24027049       3.41426918       2.04951558
Si      -0.76628288       3.24575657       5.96493654
Si       2.50778055       1.72901595       5.29585973
Si       3.51433393       1.89752855       1.38043878
Si       3.44266954       2.98435259      -0.29843740
Si      -0.69461850       2.15893254       7.64381271
14
Lattice="8.295282891766856 -2.5540485670133464 -0.2776822570428847 -1.7791009030067233 6.6887745126392195 -0.4447061543183774 -3.7681798639859037 1.0080460474902868 8.070834083569519" Properties=species:S:1:pos:R:3 unique_starting_index=20 config_type=initial n_minim_iter=2 stress="0.0026003982906309038 0.00031551226601071665 -0.00037361436952181644 0.00031551226601071665 0.005425935905029761 2.1580701292937838e-05 -0.00037361436952181644 2.1580701292937838e-05 0.005462081086362935" pbc="T T T"
Si       2.24143714       2.30672440       7.19616367
Si       6.04551623       1.64088673       1.05195768
Si       0.50656498       2.83604759       0.15228201
Si      -3.29751410       3.50188526       6.29648799
Si       4.31394164       2.05621400       4.49971650
Si       4.94047859       1.42232487       2.70718205
Si      -1.56593951       3.08655799       2.84872917
Si      -2.19247647       3.72044712       4.64126362
Si       0.24018596       3.41387751       2.05048605
Si      -0.76611776       3.24561064       5.96725590
Si       2.50781616       1.72889448       5.29795962
Si       3.51411989       1.89716135       1.38118977
Si       3.44237612       2.98368903      -0.29814777
Si      -0.69437400       2.15908296       7.64659344
14
Lattice="8.293428120665 -2.5532521619691306 -0.27717362188127026 -1.7792946590331102 6.684822410419185 -0.4443980032551807 -3.766654502935568 1.0083392788861123 8.070865241929457" Properties=species:S:1:pos:R:3 unique_starting_index=20 config_type=initial n_minim_iter=3 stress="-0.00555455793040387 0.0016392451011307558 0.002388985002359962 0.0016392451011307558 0.0015669838644974071 0.003246946261288715 0.002388985002359962 0.003246946261288715 -0.00030433217597045694" pbc="T T T"
Si       2.24119329       2.30550213       7.19673378
Si       6.04392723       1.63944836       1.05266125
Si       0.50628566       2.83440740       0.15255984
Si      -3.29644828       3.50046117       6.29663237
Si       4.31307787       2.05485968       4.50042613
Si       4.93967728       1.42114788       2.70778331
Si      -1.56559891       3.08504984       2.84886749
Si      -2.19219832       3.71876165       4.64151031
Si       0.24004697       3.41198922       2.05081324
Si      -0.76561606       3.24405645       5.96770476
Si       2.50743199       1.72792031       5.29848038
Si       3.51309502       1.89585308       1.38158886
Si       3.44124340       2.98148604      -0.29747093
Si      -0.69376444       2.15842348       7.64676454
14
Lattice="8.297200374077255 -2.5530686185129636 -0.2778853444859491 -1.782340262993499 6.677157019386086 -0.4462761772036129 -3.7697521668931446 1.0058907863214646 8.072054285493458" Properties=species:S:1:pos:R:3 unique_starting_index=20 config_type=initial n_minim_iter=4 stress="0.00519845157871767 0.0004422740811545686 0.0014705394297165183 0.0004422740811545686 -0.0008053156447602483 0.0012177747243666188 0.0014705394297165183 0.0012177747243666188 -0.0009371836030152639" pbc="T T T"
Si       2.23952323       2.29905452       7.19620369
Si       6.04505286       1.63486075       1.05115342
Si       0.50558472       2.83092467       0.15168907
Si      -3.29994491       3.49511844       6.29673935
Si       4.31292771       2.04919356       4.49941669
Si       4.94091899       1.41654177       2.70674471
Si      -1.56781977       3.08078563       2.84847607
Si      -2.19581105       3.71343742       4.64114806
Si       0.23875215       3.40710868       2.04976314
Si      -0.76795715       3.23822104       5.96753654
Si       2.50635580       1.72287051       5.29812963
Si       3.51306510       1.89175815       1.38035623
Si       3.44133124       2.97638088      -0.29871031
Si      -0.69622329       2.15359830       7.64660307
14
Lattice="8.293888930367443 -2.5540680218065046 -0.2804509080717383 -1.7839713167761504 6.672055060103811 -0.44932134808380936 -3.771979779048972 1.0019628500405067 8.074859095295011" Properties=species:S:1:pos:R:3 unique_starting_index=20 config_type=initial n_minim_iter=5 stress="-0.0010111277582209258 0.0009652986044023959 -0.0006682007698100036 0.0009652986044023959 -0.0013282837257229943 -0.0023917873243995418 -0.0006682007698100036 -0.0023917873243995418 0.001005361380272643" pbc="T T T"
Si       2.23356739       2.29145943       7.19513107
Si       6.04046758       1.63040561       1.04754044
Si       0.50437044       2.82849046       0.14995577
Si      -3.30252975       3.48954428       6.29754640
Si       4.30730320       2.04298667       4.49702203
Si       4.93677512       1.41172637       2.70400349
Si      -1.56936536       3.07696322       2.84806481
Si      -2.19883728       3.70822352       4.64108335
Si       0.23641742       3.40297508       2.04809907
Si      -0.77172700       3.23223012       5.96690083
Si       2.50152041       1.71697481       5.29698777
Si       3.50966484       1.88771977       1.37818601
Si       3.43838176       2.97238812      -0.30171187
Si      -0.70044393       2.14756177       7.64679871
14
Lattice="8.295208013876742 -2.558147664463046 -0.28345235471851643 -1.788568731698904 6.668209375369591 -0.44936809280543977 -3.7756576295638413 1.002982938927261 8.075515850681965" Properties=species:S:1:pos:R:3 unique_starting_index=20 config_type=initial n_minim_iter=6 stress="0.000928016901306684 -0.0020639615753494114 -0.0028324358645412414 -0.0020639615753494114 -0.0024909582190616487 0.0021127714681530557 -0.0028324358645412414 0.0021127714681530557 -0.00038073312645693153" pbc="T T T"
Si       2.22826890       2.28647434       7.19328945
Si       6.03819675       1.62472983       1.04509464
Si       0.50271275       2.82657031       0.14940595
Si      -3.30721510       3.48831482       6.29760077
Si       4.30302589       2.03770658       4.49461531
Si       4.93462965       1.40703524       2.70146226
Si      -1.57204424       3.07533807       2.84808010
Si      -2.20364800       3.70600941       4.64123314
Si       0.23335530       3.40031954       2.04756313
Si      -0.77646356       3.22948667       5.96559633
Si       2.49762636       1.71272510       5.29513227
Si       3.50744522       1.88355798       1.37709908
Si       3.43615122       2.96764167      -0.30249781
Si      -0.70516957       2.14540298       7.64519322
14
Lattice="8.295554300773016 -2.5602614853100953 -0.2809554341056446 -1.7911225287934294 6.666581198794502 -0.4535400536793104 -3.774855754266615 0.9992391548739966 8.07372720604338" Properties=species:S:1:pos:R:3 unique_starting_index=20 config_type=initial n_minim_iter=7 stress="0.00022502895748438459 -0.004563676429767908 0.006448631302303293 -0.004563676429767908 -2.6622638677598794e-05 -0.0029633013114776134 0.006448631302303293 -0.0029633013114776134 -0.0007124039474050432" pbc="T T T"
Si       2.22730880       2.27952411       7.19155454
Si       6.03703761       1.62126686       1.04514409
Si       0.50226721       2.82603476       0.14767718
Si      -3.30746159       3.48429201       6.29408762
Si       4.30190829       2.03236192       4.49323866
Si       4.93466915       1.40337600       2.70100657
Si      -1.57233228       3.07319695       2.84599306
Si      -2.20509313       3.70218287       4.63822515
Si       0.23265670       3.39825192       2.04563125
Si      -0.77691612       3.22485642       5.96211520
Si       2.49691931       1.70730695       5.29360047
Si       3.50649214       1.88070244       1.37711652
Si       3.43485131       2.96547434      -0.30270332
Si      -0.70527529       2.14008453       7.64193504
14
Lattice="8.295129104123935 -2.5581649714062404 -0.28423135774877967 -1.7903546563311623 6.663059680903744 -0.4566896426910823 -3.7793808630145613 0.9933355773576498 8.074646054349763" Properties=species:S:1:pos:R:3 unique_starting_index=20 config_type=initial n_minim_iter=8 stress="0.00031423739147059247 0.0008200246504640453 0.0019393615068881227 0.0008200246504640453 -0.0014307087281155324 -0.00028715329052232886 0.0019393615068881227 -0.00028715329052232886 0.0005139464240426928" pbc="T T T"
Si       2.22187091       2.27242179       7.18844890
Si       6.03608554       1.62025713       1.04130476
Si       0.50352267       2.82580850       0.14527615
Si      -3.31069195       3.47797316       6.29242029
Si       4.29867391       2.02817645       4.48878734
Si       4.93407105       1.40189544       2.69718397
Si      -1.57328033       3.07005384       2.84493772
Si      -2.20867747       3.69633485       4.63654108
Si       0.23249076       3.39613979       2.04375689
Si      -0.78001602       3.21908001       5.95862583
Si       2.49290282       1.70209050       5.28996817
Si       3.50540960       1.87915028       1.37509922
Si       3.43530959       2.96446442      -0.30467999
Si      -0.70991600       2.13376587       7.63840504
14
Lattice="8.29492411665818 -2.5642633994016326 -0.2925279444048382 -1.793871368565398 6.667366018862592 -0.4690354680434482 -3.7930411667172637 0.9773809149766036 8.073703992449104" Properties=species:S:1:pos:R:3 unique_starting_index=20 config_type=initial n_minim_iter=9 stress="-0.0003991547694745738 -0.0012062619562222565 0.0011112708291224375 -0.0012062619562222565 -0.0002312953576592354 4.563079859302176e-05 0.0011112708291224375 4.563079859302176e-05 0.0019494306740313798" pbc="T T T"
Si       2.20354674       2.25070229       7.17604168
Si       6.03166975       1.61419514       1.02865410
Si       0.50446484       2.82978124       0.13609890
Si      -3.32365817       3.46628839       6.28348648
Si       4.28535584       2.01334532       4.47465720
Si       4.93009512       1.39409514       2.68444482
Si      -1.57734426       3.06713822       2.83748338
Si      -2.22208353       3.68638839       4.62769576
Si       0.22763301       3.39522187       2.03704694
Si      -0.79080542       3.20630986       5.94722435
Si       2.48037857       1.68526167       5.27509364
Si       3.49881700       1.87417367       1.36491623
Si       3.43303080       2.96336726      -0.31333109
Si      -0.72501922       2.11711627       7.62547167
14
Lattice="8.29193045654889 -2.560233794295184 -0.29726349622664705 -1.7873307043692137 6.677179493122602 -0.48773352716140683 -3.8043906345794594 0.9495543539059652 8.072927041244137" Properties=species:S:1:pos:R:3 unique_starting_index=20 config_type=initial n_minim_iter=10 stress="-0.0010452474296691276 -0.00016510433346450905 -0.0005887757111687075 -0.00016510433346450905 0.004085931669126923 0.001188705167023896 -0.0005887757111687075 0.001188705167023896 0.0031101449251684323" pbc="T T T"
Si       2.18999438       2.22674080       7.16178316
Si       6.03162212       1.61916446       1.01535015
Si       0.51021474       2.83975925       0.12614686
Si      -3.33141301       3.44733559       6.27257986
Si       4.27537373       2.00332352       4.46198379
Si       4.92926408       1.39341445       2.66917816
Si      -1.57516461       3.06317654       2.82594623
Si      -2.22905496       3.67308560       4.61875186
Si       0.22928910       3.39762732       2.02705435
Si      -0.79539159       3.19019473       5.93491482
Si       2.47092002       1.66887273       5.26087566
Si       3.49560070       1.87630532       1.35301519
Si       3.43609485       2.97053219      -0.32173392
Si      -0.73588574       2.09596786       7.60966394
14
Lattice="8.28648388682877 -2.5396612007518633 -0.2950749508058475 -1.7750994510678542 6.662952182095946 -0.5184728139400543 -3.8120181340754753 0.901531734180635 8.074599749052975" Properties=species:S:1:pos:R:3 unique_starting_index=20 config_type=initial n_minim_iter=11 stress="-0.0031044844368362133 0.0011505580837329438 -0.0023349274468016015 0.0011505580837329438 0.0029927733190122864 0.0031209226811779412 -0.0023349274468016015 0.0031209226811779412 0.00939181924806361" pbc="T T T"
Si       2.17990164       2.18230579       7.15052384
Si       6.03517313       1.62255581       1.00166830
Si       0.51946466       2.84251693       0.11052814
Si      -3.33580682       3.40226690       6.25938368
Si       4.26738309       1.98037151       4.45039444
Si       4.92782119       1.38938521       2.65511840
Si      -1.56801678       3.04445121       2.81065754
Si      -2.22845488       3.63543750       4.60593359
Si       0.23539459       3.38760896       2.01546198
Si      -0.79485146       3.15211807       5.92155111
Si       2.46397171       1.63721376       5.24559001
Si       3.49421776       1.87270465       1.33950088
Si       3.44192748       2.97001496      -0.33125392
Si      -0.74256118       2.05480775       7.59230590
14
Lattice="8.288282678600908 -2.522880597513806 -0.28728014285897346 -1.7689175110897148 6.645092967331651 -0.5497760275391504 -3.8171854598545933 0.8562046996343711 8.074177466204866" Properties=species:S:1:pos:R:3 unique_starting_index=20 config_type=initial n_minim_iter=12 stress="-0.0007809253821625943 0.000987615356468296 -0.004356550242566762 0.000987615356468296 0.001876713234710946 0.004388327346437553 -0.004356550242566762 0.004388327346437553 0.017731954901002288" pbc="T T T"
Si       2.17586857       2.13603178       7.14193451
Si       6.04214495       1.62009914       0.99435417
Si       0.52631114       2.84238529       0.09518679
Si      -3.33996524       3.35831793       6.24276712
Si       4.26546987       1.95306727       4.44328283
Si       4.93087292       1.38114952       2.64259375
Si      -1.56329016       3.02534980       2.79383847
Si      -2.22869321       3.59726755       4.59452754
Si       0.24155721       3.37555939       2.00440047
Si      -0.79318999       3.11421357       5.90777592
Si       2.46062249       1.60285767       5.23272082
Si       3.49536969       1.86420350       1.32934537
Si       3.44776875       2.96607170      -0.34059440
Si      -0.74558904       2.01234537       7.57771570
14
Lattice="8.281930082923699 -2.53856077654879 -0.28584370953455707 -1.7779043436747397 6.655225405713835 -0.5720689873333951 -3.8219382934539343 0.8340358420145126 8.06503694247745" Properties=species:S:1:pos:R:3 unique_starting_index=20 config_type=initial n_minim_iter=13 stress="-0.0009021753542393335 -0.0006800317243680786 -0.0025008831357073197 -0.0006800317243680786 0.0013464291492857033 0.0027596439344204837 -0.0025008831357073197 0.0027596439344204837 0.00843146793861004" pbc="T T T"
Si       2.16207548       2.09868846       7.12479536
Si       6.03298600       1.61135293       0.98243189
Si       0.52001196       2.85201201       0.08232889
Si      -3.35089856       3.33934754       6.22469235
Si       4.24917796       1.92507913       4.42837844
Si       4.92089681       1.36546991       2.62634144
Si      -1.56709051       3.02562134       2.77874581
Si      -2.23880936       3.58523056       4.58078280
Si       0.24012582       3.38168996       1.99466552
Si      -0.80406861       3.09648875       5.89151271
Si       2.44196162       1.56901051       5.21245872
Si       3.48615606       1.85421172       1.31561154
Si       3.43943763       2.96459408      -0.34675049
Si      -0.75735018       1.98610639       7.55387474
14
Lattice="8.27497017900029 -2.5649433441345253 -0.2824160872243459 -1.7957116969997968 6.666329061980767 -0.6096580219197634 -3.8303096926926656 0.7974120469017253 8.053482786138305" Properties=species:S:1:pos:R:3 unique_starting_index=20 config_type=initial n_minim_iter=14 stress="0.002381801499216075 -0.0028854566947656823 -0.0010325363602635626 -0.0028854566947656823 -0.0036970529008632526 -0.0017713904865471436 -0.0010325363602635626 -0.0017713904865471436 0.000244470491946599" pbc="T T T"
Si       2.14170565       2.03253296       7.09723746
Si       6.02208175       1.59280887       0.96450994
Si       0.50724314       2.86626481       0.06417122
Si      -3.37313296       3.30598889       6.19689874
Si       4.22240281       1.87222192       4.40980167
Si       4.90536931       1.33560511       2.60525299
Si      -1.57345402       3.02657585       2.75160701
Si      -2.25642052       3.56319265       4.55615568
Si       0.23640473       3.38900113       1.97746399
Si      -0.82252301       3.06475091       5.86560864
Si       2.41254406       1.50979663       5.18394468
Si       3.47147180       1.83404685       1.29580004
Si       3.42623172       2.96041241      -0.35699847
Si      -0.77728293       1.93838535       7.51840715
14
Lattice="8.266308110566484 -2.5874869178766664 -0.2849602367351781 -1.8026305725782255 6.695914087341669 -0.6049233048113944 -3.826684557427921 0.8127794917666786 8.058592748908488" Properties=species:S:1:pos:R:3 unique_starting_index=20 config_type=initial n_minim_iter=15 stress="-0.00019012067066502295 -0.0006504801509571123 0.0016354328149574848 -0.0006504801509571123 -0.0021158331103091296 -0.003201285005441472 0.0016354328149574848 -0.003201285005441472 -0.01139565640341016" pbc="T T T"
Si       2.13523240       2.04059436       7.09826383
Si       6.01239485       1.59921871       0.96926720
Si       0.50176058       2.88061230       0.07044537
Si      -3.37540187       3.32198796       6.19944200
Si       4.21137240       1.86886639       4.41287852
Si       4.89529313       1.33794090       2.60884771
Si      -1.57437942       3.05234027       2.75583068
Si      -2.25830015       3.58326576       4.55986150
Si       0.23533639       3.41315702       1.98055680
Si      -0.82889052       3.08600876       5.87452141
Si       2.40165659       1.50804964       5.18815241
Si       3.46588350       1.83519790       1.29418780
Si       3.41856780       2.96786347      -0.35424324
Si      -0.78157482       1.95334319       7.52295245
14
Lattice="8.270669429899524 -2.607614832236339 -0.28679296577114677 -1.8104808273823958 6.72741343910885 -0.61924188462658 -3.8364473511381707 0.8017602758296432 8.053763137067234" Properties=species:S:1:pos:R:3 unique_starting_index=20 config_type=initial n_minim_iter=16 stress="0.00044483789270872553 0.001469625399951116 -0.001456463718445362 0.001469625399951116 0.0015714246307771945 -0.0012987354497113798 -0.001456463718445362 -0.0012987354497113798 -0.00161129246148063" pbc="T T T"
Si       2.12143192       2.02175919       7.08418744
Si       6.01442575       1.61244609       0.96048504
Si       0.50230933       2.89979969       0.06354085
Si      -3.39068450       3.30911279       6.18724325
Si       4.19783490       1.84092692       4.40379480
Si       4.89527531       1.33519267       2.59698573
Si      -1.57409365       3.08063196       2.74393349
Si      -2.27153406       3.58636622       4.55074255
Si       0.23651414       3.44191809       1.97134684
Si      -0.84245414       3.08982996       5.86515746
Si       2.38722711       1.47964080       5.17638144
Si       3.46619539       1.83172892       1.28257083
Si       3.42057841       2.97723398      -0.35715222
Si      -0.79683716       1.94432491       7.50488051
14
Lattice="8.275371369721013 -2.6397957194019375 -0.2869806939251999 -1.8280612593528929 6.757441932177226 -0.6155297489937245 -3.837030428568619 0.82035084103458 8.051390511424032" Properties=species:S:1:pos:R:3 unique_starting_index=20 config_type=initial n_minim_iter=17 stress="-0.002376547755527041 0.001213808543169376 0.0004743856073975788 0.001213808543169376 0.0016138840806409964 0.0016291727096965703 0.0004743856073975788 0.0016291727096965703 0.000849579767231947" pbc="T T T"
Si       2.11180815       2.02875193       7.08522024
Si       6.01143427       1.61939765       0.96204229
Si       0.49847154       2.90924512       0.06365983
Si      -3.40115459       3.31859940       6.18683778
Si       4.18756126       1.81827741       4.40539840
Si       4.89222865       1.33135957       2.59677795
Si      -1.57728158       3.11971965       2.74348167
Si      -2.28194897       3.60663748       4.55210212
Si       0.23301341       3.47070028       1.96689225
Si      -0.85353916       3.11041995       5.86725720
Si       2.37726627       1.46729677       5.18198782
Si       3.46381884       1.82757710       1.28162287
Si       3.41577594       2.97871531      -0.35349524
Si      -0.80549626       1.95928174       7.50237531
14
Lattice="8.272006694030633 -2.654857742512339 -0.28808552943731425 -1.836028342326406 6.769283662268213 -0.6229094874603925 -3.8392574850554566 0.8173025365294316 8.053982512444591" Properties=species:S:1:pos:R:3 unique_starting_index=20 config_type=initial n_minim_iter=18 stress="0.0003964224165163922 -0.00031994797796361266 -0.0015809298746619713 -0.00031994797796361266 0.00010569502376525635 0.0030026753497105793 -0.0015809298746619713 0.0030026753497105793 0.006457386173510385" pbc="T T T"
Si       2.10108655       2.01823043       7.08744631
Si       6.00572110       1.62466396       0.95863438
Si       0.49563431       2.91349803       0.05554119
Si      -3.40900024       3.30706450       6.18435312
Si       4.17180438       1.79100961       4.40335951
Si       4.88625010       1.32723037       2.59144434
Si      -1.57508351       3.14071884       2.73962799
Si      -2.28952923       3.60449808       4.55154315
Si       0.23312704       3.48672093       1.95586899
Si      -0.86072043       3.10848505       5.86635323
Si       2.36359383       1.44500753       5.18711851
Si       3.45744130       1.82324341       1.27663426
Si       3.41168993       2.97719063      -0.35640100
Si      -0.81496907       1.95453783       7.49938850
14
Lattice="8.261935993459863 -2.6781509705883084 -0.28876434130615614 -1.8449090243122355 6.793535975558105 -0.6157100529700844 -3.8320836802193132 0.8367487604521863 8.056996892402678" Properties=species:S:1:pos:R:3 unique_starting_index=20 config_type=initial n_minim_iter=19 stress="0.004619979082433918 -0.0011516397221535525 -0.0018929374921578207 -0.0011516397221535525 -0.001373430414706028 0.0025268951438835235 -0.0018929374921578207 0.0025268951438835235 0.005124271648949048" pbc="T T T"
Si       2.09729835       2.03228104       7.10532709
Si       5.99547822       1.64129370       0.96332069
Si       0.48764494       2.91985273       0.04719541
Si      -3.41053493       3.31084007       6.18920181
Si       4.15224521       1.76821622       4.40856800
Si       4.87701608       1.33210794       2.59451613
Si      -1.56730192       3.18391755       2.74395450
Si      -2.29207280       3.62002583       4.55800637
Si       0.23522035       3.51872426       1.94140907
Si      -0.86262102       3.12570197       5.87312239
Si       2.34972294       1.43340951       5.21111343
Si       3.44756431       1.82643179       1.27940011
Si       3.40397314       2.97887926      -0.35486178
Si      -0.81902985       1.97325451       7.50738428
14
Lattice="8.235543398292144 -2.7015328830092527 -0.2910299495563019 -1.85000679831875 6.821614356436683 -0.6356405675721926 -3.8295233314507477 0.821255307933933 8.06845398841052" Properties=species:S:1:pos:R:3 unique_starting_index=20 config_type=initial n_minim_iter=20 stress="0.006999074933002349 -0.0016161225371020412 -0.004689357257613166 -0.0016161225371020412 -0.0018457882886943329 0.0020515085077107316 -0.004689357257613166 0.0020515085077107316 0.012481070288999445" pbc="T T T"
Si       2.07876939       2.00548162       7.11856899
Si       5.97269084       1.65245458       0.95822786
Si       0.47724388       2.93585516       0.02321449
Si      -3.41667757       3.28888220       6.18355561
Si       4.11422638       1.72510071       4.40490666
Si       4.85381500       1.32777861       2.58628810
Si      -1.55821311       3.21623607       2.73687681
Si      -2.29780173       3.61355817       4.55549537
Si       0.23614878       3.54712275       1.91428730
Si      -0.87063827       3.11441284       5.87191149
Si       2.31986449       1.39421403       5.22749618
Si       3.42665154       1.82692394       1.26987198
Si       3.38816794       2.97928214      -0.36469451
Si      -0.83215467       1.96205464       7.50647798
14
Lattice="8.196831772012484 -2.729488461462727 -0.2915575928761347 -1.8532411232001924 6.858732455605043 -0.648992792422584 -3.816835834627368 0.8167347453645382 8.080433776136925" Properties=species:S:1:pos:R:3 unique_starting_index=20 config_type=initial n_minim_iter=21 stress="0.005103283495612064 -0.0003601190558567074 -0.0023930139558576754 -0.0003601190558567074 -0.0014093002092823961 -0.0008627062388756233 -0.0023930139558576754 -0.0008627062388756233 0.006578618162267619" pbc="T T T"
Si       2.06333582       1.98834301       7.14224981
Si       5.94106466       1.66541176       0.96107416
Si       0.46341899       2.95763573      -0.00236642
Si      -3.41430984       3.28056698       6.17880923
Si       4.07412026       1.69446498       4.40564693
Si       4.82201530       1.32577250       2.58584144
Si      -1.54736544       3.25151376       2.73423646
Si      -2.29526049       3.62020624       4.55404195
Si       0.23568305       3.58019836       1.88593170
Si      -0.87391777       3.11193821       5.87421750
Si       2.29107177       1.36578038       5.25395169
Si       3.40067258       1.83404053       1.26566590
Si       3.36585491       2.98177025      -0.37252559
Si      -0.83910010       1.96420849       7.51240898
