20
Lattice="5.364316552785164 -2.981383322741448e-16 -6.969648181660896e-14 2.827080980465798e-16 5.08668482306977 4.957132782396902e-14 2.668356864085164e-13 -2.0014427705841781e-13 20.53749417712917" Properties=species:S:1:pos:R:3 unique_starting_index=4 config_type=initial n_minim_iter=1 energy=-3269.6183022106557 free_energy=-3269.6183022106557 pbc="T T T"
Si       2.27142014       2.81321913      13.24707975
Si       2.27142014       2.27346569       7.29041443
Si       1.74930272       1.09612459      12.36322097
Si       1.74930272       3.99056023       8.17427321
Si       3.09289641       0.26987672      17.55916152
Si       3.09289641       4.81680811       2.97833266
Si       3.61501383       3.63946700      18.44302030
Si       3.61501383       1.44721782       2.09447388
Si       2.63833308       5.01878723       4.91755202
Si       2.63833308       0.06789760      15.61994215
Si       2.36681431       3.61877273      16.87634521
Si       2.36681431       1.46791209       3.66114897
Si       2.72598347       2.47544481       5.35119507
Si       2.72598347       2.61124001      15.18629911
Si       2.99750224       1.07543032      13.92989606
Si       2.99750224       4.01125451       6.60759812
Si       4.71466956       2.38631603      19.55039330
Si       4.71466956       2.70036879       0.98710088
Si       0.64964700       5.24371121       9.28164621
Si       0.64964700      -0.15702638      11.25584796
20
Lattice="5.3632819224666965 -2.9808082952341324e-16 -6.968303926666072e-14 2.8266405623074267e-16 5.085892391449816 4.9378986758719704e-14 2.6672966586791254e-13 -2.0079438096107733e-13 20.529334113290194" Properties=species:S:1:pos:R:3 unique_starting_index=4 config_type=initial n_minim_iter=2 stress="0.0034260063678780207 8.666985225832635e-16 -1.3776769286804487e-14 8.666985225832635e-16 -0.004483318485038596 -2.7570192508390397e-15 -1.3776769286804487e-14 -2.7570192508390397e-15 -0.0028117496190628415" pbc="T T T"
Si       2.27100225       2.81277195      13.24182942
Si       2.27100225       2.27312044       7.28750469
Si       1.74898881       1.09593165      12.35834070
Si       1.74898881       3.98996074       8.17099341
Si       3.09227967       0.26982575      17.55217175
Si       3.09227967       4.81606664       2.97716237
Si       3.61429311       3.63887785      18.43566047
Si       3.61429311       1.44701454       2.09367365
Si       2.63782969       5.01800332       4.91560341
Si       2.63782969       0.06788907      15.61373071
Si       2.36640948       3.61822674      16.86967436
Si       2.36640948       1.46766565       3.65965975
Si       2.72545223       2.47505712       5.34906365
Si       2.72545223       2.61083527      15.18027046
Si       2.99687245       1.07528054      13.92432681
Si       2.99687245       4.01061185       6.60500730
Si       4.71375608       2.38594586      19.54259260
Si       4.71375608       2.69994653       0.98674151
Si       0.64952584       5.24289273       9.27792555
Si       0.64952584      -0.15700034      11.25140857
20
Lattice="5.359359972864905 -2.9786285515483003e-16 -6.963208289851611e-14 2.8279658875602325e-16 5.088277010743101 4.942490777441051e-14 2.667124178604581e-13 -2.0069275533980368e-13 20.528006589009436" Properties=species:S:1:pos:R:3 unique_starting_index=4 config_type=initial n_minim_iter=3 stress="-0.0021342228763213695 1.638371552194218e-15 -2.4710930816428892e-14 1.638371552194218e-15 0.0046023025218754265 6.408708187580675e-15 -2.4710930816428892e-14 6.408708187580675e-15 -0.00364508941351906" pbc="T T T"
Si       2.26947554       2.81413172      13.24099079
Si       2.26947554       2.27414530       7.28701580
Si       1.74786087       1.09626776      12.35773197
Si       1.74786087       3.99200925       8.17027462
Si       3.08988443       0.26999321      17.55101909
Si       3.08988443       4.81828380       2.97698749
Si       3.61149911       3.64040627      18.43427791
Si       3.61149911       1.44787074       2.09372868
Si       2.63591146       5.02035145       4.91537000
Si       2.63591146       0.06792556      15.61263658
Si       2.36497214       3.62001870      16.86890372
Si       2.36497214       1.46825831       3.65910287
Si       2.72344851       2.47621294       5.34863329
Si       2.72344851       2.61206407      15.17937330
Si       2.99438783       1.07588020      13.92310616
Si       2.99438783       4.01239681       6.60490043
Si       4.71032292       2.38700652      19.54100169
Si       4.71032292       2.70127049       0.98700490
Si       0.64903705       5.24540900       9.27699840
Si       0.64903705      -0.15713199      11.25100819
20
Lattice="5.358925909384096 -2.9783873074666055e-16 -6.962644328027345e-14 2.827219828670179e-16 5.086934648618476 4.946527403608245e-14 2.6675885347046106e-13 -2.005011765818575e-13 20.531580590234643" Properties=species:S:1:pos:R:3 unique_starting_index=4 config_type=initial n_minim_iter=4 stress="-0.003978169993619774 9.437667675926186e-15 -2.0866273915768237e-14 9.437667675926186e-15 -0.001924107925536392 1.6813780654753874e-14 -2.0866273915768237e-14 1.6813780654753874e-14 0.0019530070077821676" pbc="T T T"
Si       2.26937988       2.81337189      13.24327483
Si       2.26937988       2.27356276       7.28830576
Si       1.74778924       1.09590258      12.35997440
Si       1.74778924       3.99103207       8.17160619
Si       3.08954603       0.26990456      17.55409605
Si       3.08954603       4.81703008       2.97748454
Si       3.61113667       3.63936990      18.43739648
Si       3.61113667       1.44756475       2.09418411
Si       2.63570229       5.01904818       4.91629613
Si       2.63570229       0.06788647      15.61528446
Si       2.36494638       3.61916366      16.87195156
Si       2.36494638       1.46777099       3.65962903
Si       2.72322362       2.47558085       5.34949416
Si       2.72322362       2.61135380      15.18208643
Si       2.99397953       1.07569634      13.92541933
Si       2.99397953       4.01123831       6.60616126
Si       4.70996342       2.38632509      19.54420350
Si       4.70996342       2.70060956       0.98737709
Si       0.64896249       5.24407688       9.27841320
Si       0.64896249      -0.15714223      11.25316739
20
Lattice="5.36750822652301 -2.983157193236125e-16 -6.973794999404178e-14 2.827408196175938e-16 5.087273572808901 4.951190720549584e-14 2.6664925775302964e-13 -2.0024546185266174e-13 20.52314535640621" Properties=species:S:1:pos:R:3 unique_starting_index=4 config_type=initial n_minim_iter=5 stress="0.0001282197682173538 1.1355720088313602e-15 -3.152074107172485e-14 1.1355720088313602e-15 0.0005185991568325744 1.860658113563178e-14 -3.152074107172485e-14 1.860658113563178e-14 -0.00031170415504813345" pbc="T T T"
Si       2.27356035       2.81366105      13.23773479
Si       2.27356035       2.27361252       7.28541057
Si       1.75090504       1.09553553      12.35528160
Si       1.75090504       3.99173804       8.16786375
Si       3.09394788       0.27002427      17.54698325
Si       3.09394788       4.81724931       2.97616211
Si       3.61660319       3.63917231      18.42943643
Si       3.61660319       1.44810126       2.09370892
Si       2.64000308       5.01945577       4.91475268
Si       2.64000308       0.06781780      15.60839268
Si       2.36956045       3.61982390      16.86527354
Si       2.36956045       1.46744967       3.65787181
Si       2.72750515       2.47581898       5.34682000
Si       2.72750515       2.61145459      15.17632536
Si       2.99794777       1.07618711      13.91944449
Si       2.99794777       4.01108646       6.60370087
Si       4.71774320       2.38613589      19.53556522
Si       4.71774320       2.70113768       0.98758014
Si       0.64976503       5.24477447       9.27399254
Si       0.64976503      -0.15750089      11.24915282
20
Lattice="5.368972197023468 -2.9839708397075904e-16 -6.97569707942427e-14 2.827337622552716e-16 5.08714659173524 4.9551667274248936e-14 2.6662460129614427e-13 -2.0006157458235279e-13 20.521247627333576" Properties=species:S:1:pos:R:3 unique_starting_index=4 config_type=initial n_minim_iter=6 stress="-5.202055738259329e-05 -1.7558819147177812e-15 -3.6769825225447174e-14 -1.7558819147177812e-15 3.085312463677316e-05 1.9389674416819242e-14 -3.6769825225447174e-14 1.9389674416819242e-14 -0.00032346775401888544" pbc="T T T"
Si       2.27448357       2.81372959      13.23621674
Si       2.27448357       2.27341700       7.28503089
Si       1.75117136       1.09503138      12.35395940
Si       1.75117136       3.99211521       8.16728823
Si       3.09448863       0.27015629      17.54565470
Si       3.09448863       4.81699030       2.97559293
Si       3.61780084       3.63860467      18.42791204
Si       3.61780084       1.44854192       2.09333558
Si       2.64073096       5.01945021       4.91455067
Si       2.64073096       0.06769638      15.60669695
Si       2.37045842       3.61990815      16.86380232
Si       2.37045842       1.46723844       3.65744531
Si       2.72824124       2.47587691       5.34607314
Si       2.72824124       2.61126968      15.17517449
Si       2.99851378       1.07633485      13.91806913
Si       2.99851378       4.01081174       6.60317850
Si       4.71898518       2.38618118      19.53369659
Si       4.71898518       2.70096542       0.98755104
Si       0.64998702       5.24453871       9.27307277
Si       0.64998702      -0.15739212      11.24817486
20
Lattice="5.369761955839146 -2.98440977237289e-16 -6.976723182384354e-14 2.8273558130872817e-16 5.087179321436546 4.9575837565994706e-14 2.666111404745956e-13 -1.9995517746190837e-13 20.520211590707824" Properties=species:S:1:pos:R:3 unique_starting_index=4 config_type=initial n_minim_iter=7 stress="-0.00029328077369576456 -1.3756242735708172e-15 -2.9099241481453436e-14 -1.3756242735708172e-15 -0.000886814568795139 2.867351196219053e-14 -2.9099241481453436e-14 2.867351196219053e-14 -0.0010097434921097388" pbc="T T T"
Si       2.27508352       2.81367193      13.23506414
Si       2.27508352       2.27350739       7.28514745
Si       1.75133966       1.09493065      12.35336199
Si       1.75133966       3.99224867       8.16684960
Si       3.09467843       0.27008227      17.54525325
Si       3.09467843       4.81709705       2.97495834
Si       3.61842229       3.63852031      18.42695540
Si       3.61842229       1.44865901       2.09325620
Si       2.64113219       5.01965211       4.91434853
Si       2.64113219       0.06752721      15.60586306
Si       2.37097290       3.62004677      16.86321844
Si       2.37097290       1.46713255       3.65699315
Si       2.72862977       2.47606245       5.34575727
Si       2.72862977       2.61111687      15.17445432
Si       2.99878905       1.07645711      13.91709894
Si       2.99878905       4.01072221       6.60311265
Si       4.71975169       2.38622026      19.53292889
Si       4.71975169       2.70095906       0.98728270
Si       0.65001027       5.24454872       9.27282310
Si       0.65001027      -0.15736940      11.24738849
20
Lattice="5.373626587579785 -2.9865576599008924e-16 -6.98174434832764e-14 2.828969118438831e-16 5.090082094969857 4.961108943748459e-14 2.6637934056036086e-13 -1.9975314686466984e-13 20.502370688492146" Properties=species:S:1:pos:R:3 unique_starting_index=4 config_type=initial n_minim_iter=8 stress="-2.8703548140708207e-06 -7.65565641407034e-15 -3.298527848720794e-14 -7.65565641407034e-15 0.0004535153531857006 2.89651655003808e-14 -3.298527848720794e-14 2.89651655003808e-14 -0.0005081186943513156" pbc="T T T"
Si       2.27877730       2.81442372      13.22028831
Si       2.27877730       2.27565837       7.28208238
Si       1.75130398       1.09561487      12.34237493
Si       1.75130398       3.99446723       8.15999575
Si       3.09484929       0.26938268      17.53326772
Si       3.09484929       4.82069942       2.96910297
Si       3.62232261       3.64065591      18.41118110
Si       3.62232261       1.44942618       2.09118959
Si       2.64373260       5.02305876       4.90953300
Si       2.64373260       0.06702333      15.59283769
Si       2.37294695       3.62136429      16.84918455
Si       2.37294695       1.46871781       3.65318614
Si       2.72989399       2.47801771       5.34165235
Si       2.72989399       2.61206438      15.16071834
Si       3.00067964       1.07632324      13.90437148
Si       3.00067964       4.01375886       6.59799921
Si       4.72382655       2.38731923      19.51504289
Si       4.72382655       2.70276287       0.98732780
Si       0.64980004       5.24780391       9.26385755
Si       0.64980004      -0.15772182      11.23851314
20
Lattice="5.375619379610135 -2.9876652151441933e-16 -6.984333505625428e-14 2.8300952141741943e-16 5.092108246369752 4.964793943925631e-14 2.6625098205286336e-13 -1.9958780646372797e-13 20.492491342382685" Properties=species:S:1:pos:R:3 unique_starting_index=4 config_type=initial n_minim_iter=9 stress="0.0009102221667579257 -7.1003742636174304e-15 -3.0551995077085336e-14 -7.1003742636174304e-15 0.001053775622861516 2.2687947110438838e-14 -3.0551995077085336e-14 2.2687947110438838e-14 0.000485068698245884" pbc="T T T"
Si       2.28131374       2.81495490      13.21224764
Si       2.28131374       2.27715335       7.28024370
Si       1.75098352       1.09598232      12.33611034
Si       1.75098352       3.99612593       8.15638100
Si       3.09430564       0.26890078      17.52648937
Si       3.09430564       4.82320747       2.96600197
Si       3.62463586       3.64203644      18.40262667
Si       3.62463586       1.45007180       2.08986467
Si       2.64521772       5.02553755       4.90631056
Si       2.64521772       0.06657070      15.58618078
Si       2.37396231       3.62266531      16.84146051
Si       2.37396231       1.46944294       3.65103083
Si       2.73040166       2.47948343       5.33993511
Si       2.73040166       2.61262482      15.15255623
Si       3.00165707       1.07661118      13.89727650
Si       3.00165707       4.01549706       6.59521484
Si       4.72621723       2.38790947      19.50517293
Si       4.72621723       2.70419878       0.98731842
Si       0.64940215       5.25025290       9.25892725
Si       0.64940215      -0.15814466      11.23356409
20
Lattice="5.369199139792213 -2.984096970106222e-16 -6.975991937350656e-14 2.834543865393439e-16 5.1001125754979375 4.969688055331526e-14 2.658498069648667e-13 -1.994030549015243e-13 20.461614171699118" Properties=species:S:1:pos:R:3 unique_starting_index=4 config_type=initial n_minim_iter=10 stress="0.0020510842552656826 -1.3044616246055991e-14 -1.8430370023496948e-14 -1.3044616246055991e-14 0.0030587001228945566 1.5178627804977263e-14 -1.8430370023496948e-14 1.5178627804977263e-14 0.0052167539990037" pbc="T T T"
Si       2.28998949       2.81587452      13.18343631
Si       2.28998949       2.28423805       7.27817786
Si       1.74331843       1.09742674      12.31572070
Si       1.74331843       4.00268583       8.14589347
Si       3.07920965       0.26581824      17.50898494
Si       3.07920965       4.83429434       2.95262923
Si       3.62588071       3.64748303      18.37670056
Si       3.62588071       1.45262954       2.08491361
Si       2.64557539       5.03415804       4.89680870
Si       2.64557539       0.06595453      15.56480547
Si       2.37219395       3.62649648      16.81680697
Si       2.37219395       1.47361609       3.64480721
Si       2.72362375       2.48410175       5.33399839
Si       2.72362375       2.61601082      15.12761578
Si       2.99700519       1.07644020      13.87561429
Si       2.99700519       4.02367238       6.58599988
Si       4.72607374       2.38788572      19.47496742
Si       4.72607374       2.71222685       0.98664675
Si       0.64312540       5.26228314       9.24416033
Si       0.64312540      -0.16217056      11.21745384
20
Lattice="5.362635261337674 -2.98044889349397e-16 -6.967463744973226e-14 2.8350349274191237e-16 5.100996129159966 4.975874007397983e-14 2.6569002697119025e-13 -1.9906829733518334e-13 20.44931641372693" Properties=species:S:1:pos:R:3 unique_starting_index=4 config_type=initial n_minim_iter=11 stress="0.0016547258461897902 -1.231654671154599e-14 -1.470882309918348e-14 -1.231654671154599e-14 0.005407350115496354 9.486938343972451e-15 -1.470882309918348e-14 9.486938343972451e-15 0.006842036374801391" pbc="T T T"
Si       2.29318397       2.81638576      13.17030828
Si       2.29318397       2.28461037       7.27900814
Si       1.73862942       1.09716238      12.30806543
Si       1.73862942       4.00383374       8.14125098
Si       3.06945129       0.26588770      17.50366634
Si       3.06945129       4.83510843       2.94565007
Si       3.62400584       3.64766045      18.36590919
Si       3.62400584       1.45333568       2.08340722
Si       2.64405213       5.03638268       4.89211614
Si       2.64405213       0.06461345      15.55720027
Si       2.36995297       3.62546766      16.80644245
Si       2.36995297       1.47552847       3.64287396
Si       2.71858313       2.48588462       5.33254206
Si       2.71858313       2.61511151      15.11677435
Si       2.99268230       1.07496960      13.86753217
Si       2.99268230       4.02602653       6.58178425
Si       4.72374012       2.38586180      19.46294899
Si       4.72374012       2.71513433       0.98636742
Si       0.63889514       5.26563239       9.23829078
Si       0.63889514      -0.16463627      11.21102563
20
Lattice="5.363698951622521 -2.981040071968366e-16 -6.968845756453432e-14 2.8286695078266924e-16 5.089543014283875 4.9723163615424225e-14 2.6548412396375717e-13 -1.98606804134539e-13 20.433468714068905" Properties=species:S:1:pos:R:3 unique_starting_index=4 config_type=initial n_minim_iter=12 stress="0.002212111502037596 -1.3982362295851142e-14 -9.532682464570728e-15 -1.3982362295851142e-14 0.006193900163387589 1.1014084606418518e-14 -9.532682464570728e-15 1.1014084606418518e-14 0.00746250256260799" pbc="T T T"
Si       2.30717279       2.81096390      13.15062072
Si       2.30717279       2.27857911       7.28284799
Si       1.73315701       1.09248154      12.29847221
Si       1.73315701       3.99706147       8.13499650
Si       3.05652616       0.26619240      17.49958235
Si       3.05652616       4.82335062       2.93388636
Si       3.63054194       3.63725305      18.35173086
Si       3.63054194       1.45228997       2.08173785
Si       2.64894631       5.02603195       4.88372183
Si       2.64894631       0.06351106      15.54974688
Si       2.37157412       3.61056128      16.79647515
Si       2.37157412       1.47898173       3.63699356
Si       2.71475264       2.48126045       5.33301252
Si       2.71475264       2.60828257      15.10045619
Si       2.99212483       1.06578977      13.85372792
Si       2.99212483       4.02375324       6.57974080
Si       4.73191311       2.37618568      19.44779460
Si       4.73191311       2.71335733       0.98567412
Si       0.63178584       5.25812884       9.23106024
Si       0.63178584      -0.16858582      11.20240848
20
Lattice="5.361472654686102 -2.9798027392173266e-16 -6.96595321529889e-14 2.827906677334919e-16 5.088170475502012 4.982597276113148e-14 2.655634361889386e-13 -1.98197584432352e-13 20.43957312380787" Properties=species:S:1:pos:R:3 unique_starting_index=4 config_type=initial n_minim_iter=13 stress="-0.0026412542587704686 -9.598685755214325e-15 -3.049018309015843e-14 -9.598685755214325e-15 -0.005439281934943401 1.6374790833654708e-14 -3.049018309015843e-14 1.6374790833654708e-14 -0.008035893569384563" pbc="T T T"
Si       2.31115685       2.80775466      13.15162359
Si       2.31115685       2.28041582       7.28794954
Si       1.72983275       1.08997882      12.30508089
Si       1.72983275       3.99819166       8.13449223
Si       3.05031580       0.26366942      17.50773610
Si       3.05031580       4.82450106       2.93183702
Si       3.63163990       3.63406406      18.35427879
Si       3.63163990       1.45410642       2.08529433
Si       2.64927874       5.02537201       4.88253472
Si       2.64927874       0.06279846      15.55703840
Si       2.37248649       3.60632650      16.80037619
Si       2.37248649       1.48184397       3.63919693
Si       2.71219391       2.48128678       5.33725184
Si       2.71219391       2.60688370      15.10232128
Si       2.98898617       1.06224126      13.85898349
Si       2.98898617       4.02592921       6.58058963
Si       4.73320498       2.37594066      19.45395439
Si       4.73320498       2.71222982       0.98561874
Si       0.62826768       5.25631506       9.23416782
Si       0.62826768      -0.16814458      11.20540530
20
Lattice="5.361307931028655 -2.9797111889964547e-16 -6.965739196247582e-14 2.829610999286537e-16 5.091237012564347 4.98970419151334e-14 2.656689414023991e-13 -1.981102226444844e-13 20.447693524554396" Properties=species:S:1:pos:R:3 unique_starting_index=4 config_type=initial n_minim_iter=14 stress="0.0006398452578003795 -2.4804150499451565e-14 -2.69081947503333e-14 -2.4804150499451565e-14 0.0019066024675083396 2.1952476816573707e-15 -2.69081947503333e-14 2.1952476816573707e-15 0.0008767441278667475" pbc="T T T"
Si       2.32059707       2.80450699      13.15022002
Si       2.32059707       2.28673002       7.29747351
Si       1.72362911       1.08650799      12.31430205
Si       1.72362911       4.00472902       8.13339147
Si       3.04071086       0.25888849      17.52132027
Si       3.04071086       4.83234852       2.92637325
Si       3.63767882       3.63212650      18.35723824
Si       3.63767882       1.45911051       2.09045529
Si       2.65171880       5.02997902       4.88018919
Si       2.65171880       0.06125799      15.56750433
Si       2.37550510       3.60291694      16.80527759
Si       2.37550510       1.48832008       3.64241593
Si       2.70958913       2.48436052       5.34365757
Si       2.70958913       2.60687649      15.10403596
Si       2.98580283       1.05729843      13.86626269
Si       2.98580283       4.03393858       6.58143083
Si       4.73875655       2.37801757      19.46196084
Si       4.73875655       2.71321944       0.98573268
Si       0.62255138       5.25883794       9.23811408
Si       0.62255138      -0.16760093      11.20957945
20
Lattice="5.361531486136178 -2.979835436598675e-16 -6.966029652717325e-14 2.829033131193773e-16 5.090197271263129 4.994623798159345e-14 2.6581994853457214e-13 -1.9798488162239664e-13 20.459316063276376" Properties=species:S:1:pos:R:3 unique_starting_index=4 config_type=initial n_minim_iter=15 stress="0.0002026488364701936 -2.4335771947154225e-14 -2.651074266758258e-14 -2.4335771947154225e-14 -0.000532001628555388 1.1333668333356135e-16 -2.651074266758258e-14 1.1333668333356135e-16 0.00010413244580096439" pbc="T T T"
Si       2.31835085       2.80347818      13.15984319
Si       2.31835085       2.28671909       7.29947287
Si       1.72407766       1.08550067      12.32241763
Si       1.72407766       4.00469660       8.13689843
Si       3.04318064       0.25837954      17.52913091
Si       3.04318064       4.83181773       2.93018516
Si       3.63745382       3.63059931      18.36655646
Si       3.63745382       1.45959796       2.09275960
Si       2.65080195       5.02899153       4.88319362
Si       2.65080195       0.06120574      15.57612244
Si       2.37569419       3.60190147      16.81416305
Si       2.37569419       1.48829580       3.64515301
Si       2.71072954       2.48389290       5.34646441
Si       2.71072954       2.60630437      15.11285166
Si       2.98583730       1.05680284      13.87481104
Si       2.98583730       4.03339443       6.58450502
Si       4.73856576       2.37859497      19.47338640
Si       4.73856576       2.71160230       0.98592967
Si       0.62296573       5.25670093       9.24372837
Si       0.62296573      -0.16650366      11.21558770
20
Lattice="5.362214503480456 -2.980215044419969e-16 -6.966917070628761e-14 2.8282862072323123e-16 5.088853352639981 4.996905745551256e-14 2.659664529492781e-13 -1.979509331570296e-13 20.470592042154756" Properties=species:S:1:pos:R:3 unique_starting_index=4 config_type=initial n_minim_iter=16 stress="-0.0006002104215307961 -2.4688218440800175e-14 -1.4713057218595935e-14 -2.4688218440800175e-14 -0.0010804521035773114 4.763336498427863e-15 -1.4713057218595935e-14 4.763336498427863e-15 -0.0006568134294854017" pbc="T T T"
Si       2.31543179       2.80129179      13.16957492
Si       2.31543179       2.28756156       7.30101712
Si       1.72357993       1.08279910      12.33109984
Si       1.72357993       4.00605425       8.13949220
Si       3.04678272       0.25686512      17.53631314
Si       3.04678272       4.83198823       2.93427890
Si       3.63863457       3.62722578      18.37478822
Si       3.63863457       1.46162758       2.09580382
Si       2.64892746       5.02867708       4.88616480
Si       2.64892746       0.06017627      15.58442724
Si       2.37647848       3.59947870      16.82280426
Si       2.37647848       1.48937465       3.64778778
Si       2.71328704       2.48425040       5.34913122
Si       2.71328704       2.60460295      15.12146082
Si       2.98573602       1.05505202      13.88308380
Si       2.98573602       4.03380133       6.58750824
Si       4.74037798       2.37864566      19.48452362
Si       4.74037798       2.71020769       0.98606843
Si       0.62183652       5.25463437       9.24922760
Si       0.62183652      -0.16578102      11.22136445
20
Lattice="5.368007668924705 -2.9834347736569115e-16 -6.9744439055213e-14 2.829661934783891e-16 5.09132865932752 4.999864912136712e-14 2.65365745998846e-13 -1.9747448861227906e-13 20.424357538581503" Properties=species:S:1:pos:R:3 unique_starting_index=4 config_type=initial n_minim_iter=17 stress="0.0018381917305575377 -2.341357971919613e-14 -1.7531146540679778e-14 -2.341357971919613e-14 0.004534507025082086 4.863309983807201e-15 -1.7531146540679778e-14 4.863309983807201e-15 0.003552002825292401" pbc="T T T"
Si       2.31118278       2.79479153      13.13944441
Si       2.31118278       2.29653713       7.28491313
Si       1.71798207       1.07562542      12.30284807
Si       1.71798207       4.01570324       8.12150947
Si       3.05682489       0.24912720      17.49709190
Si       3.05682489       4.84220146       2.92726564
Si       3.65002560       3.62128975      18.33368824
Si       3.65002560       1.47003891       2.09066930
Si       2.64405694       5.03810100       4.87655070
Si       2.64405694       0.05322766      15.54780684
Si       2.37977858       3.59470421      16.78810735
Si       2.37977858       1.49662445       3.63625019
Si       2.72395073       2.49243667       5.33562807
Si       2.72395073       2.59889199      15.08872947
Si       2.98822909       1.04903988      13.84842895
Si       2.98822909       4.04228878       6.57592858
Si       4.75731346       2.37346374      19.43943046
Si       4.75731346       2.71786492       0.98492708
Si       0.61069421       5.26352925       9.22725169
Si       0.61069421      -0.17220059      11.19710585
20
Lattice="5.367258602784681 -2.9830184571931833e-16 -6.97347067297448e-14 2.8295719653551295e-16 5.0911667799433875 5.01701163528184e-14 2.652551462302163e-13 -1.966923310538313e-13 20.415845026125705" Properties=species:S:1:pos:R:3 unique_starting_index=4 config_type=initial n_minim_iter=18 stress="0.0005682989888900727 -2.3159390235108067e-14 -1.271011678900821e-14 -2.3159390235108067e-14 0.0017096502497063702 1.3080273790707918e-14 -1.271011678900821e-14 1.3080273790707918e-14 0.0011694772691812126" pbc="T T T"
Si       2.31244106       2.79267260      13.13198092
Si       2.31244106       2.29849418       7.28386411
Si       1.71521464       1.07377288      12.29790740
Si       1.71521464       4.01739390       8.11793763
Si       3.05481754       0.24708921      17.49178662
Si       3.05481754       4.84407757       2.92405841
Si       3.65204396       3.61935627      18.32586014
Si       3.65204396       1.47181051       2.08998488
Si       2.64382559       5.03956605       4.87356383
Si       2.64382559       0.05160073      15.54228120
Si       2.38032574       3.59216750      16.78158235
Si       2.38032574       1.49899928       3.63426268
Si       2.72343302       2.49398266       5.33435869
Si       2.72343302       2.59718412      15.08148634
Si       2.98693287       1.04658411      13.84218519
Si       2.98693287       4.04458267       6.57365984
Si       4.76022180       2.37208249      19.43110714
Si       4.76022180       2.71908429       0.98473789
Si       0.60703681       5.26466768       9.22318462
Si       0.60703681      -0.17350090      11.19266040
20
Lattice="5.366949707847685 -2.9828467793653357e-16 -6.973069337778313e-14 2.8295027855211936e-16 5.091042306674337 5.03673134788646e-14 2.6518508874123605e-13 -1.958381032014684e-13 20.4104529239996" Properties=species:S:1:pos:R:3 unique_starting_index=4 config_type=initial n_minim_iter=19 stress="-0.000360797448621098 -1.8108835276850375e-14 -2.6992991421703676e-14 -1.8108835276850375e-14 -0.0008684755254740305 1.5498822635547578e-14 -2.6992991421703676e-14 1.5498822635547578e-14 -0.0005777640076254374" pbc="T T T"
Si       2.31216228       2.79067015      13.12766755
Si       2.31216228       2.30037216       7.28278537
Si       1.71325078       1.07206878      12.29455725
Si       1.71325078       4.01897353       8.11589567
Si       3.05478743       0.24514900      17.48801184
Si       3.05478743       4.84589331       2.92244109
Si       3.65369893       3.61758993      18.32112213
Si       3.65369893       1.47345237       2.08933079
Si       2.64378710       5.04120856       4.87184481
Si       2.64378710       0.04983375      15.53860811
Si       2.38113734       3.58999498      16.77759486
Si       2.38113734       1.50104733       3.63285806
Si       2.72316261       2.49568741       5.33338165
Si       2.72316261       2.59535490      15.07707127
Si       2.98581236       1.04447383      13.83808452