217
Lattice="16.38100760036662 2.331842455367487e-16 2.5742203449934995e-16 2.3318424553674875e-16 16.38100760036662 1.6214245030153854e-16 2.574220344993499e-16 1.6214245030153854e-16 16.381007600366623" Properties=species:S:1:pos:R:3:forces:R:3 n_minim_iter=1 energy=-35403.04359829109 stress="-0.0012422290358660676 0.0006968964204928124 -0.0002602753129438621 0.0006968964204928124 -0.0012422290358660756 0.00026027531294393533 -0.0002602753129438621 0.00026027531294393533 -0.006077549687245981" free_energy=-35403.04359829109 pbc="T T T"
Si       0.00000000       0.00000000       0.00000000      -0.01343687       0.01343687      -0.04828388
Si       1.36508397       1.36508397       1.36508397       0.12764791      -0.07179210      -0.29493064
Si       2.73016793       2.73016793       0.00000000       0.05813592       0.04250502      -0.08312570
Si       4.09525190       4.09525190       1.36508397       0.01266760      -0.00202623       0.00715766
Si       2.73016793       0.00000000       2.73016793       0.06727430       0.00791523      -0.00747721
Si       4.09525190       1.36508397       4.09525190       0.04729986       0.01253496       0.01654927
Si       0.00000000       2.73016793       2.73016793       0.06543812       0.00289284       0.23504712
Si       1.36508397       4.09525190       4.09525190       0.04255264       0.08097951       0.17937463
Si       0.00000000       0.00000000       5.46033587       2.38508583      -2.38508583       7.41846298
Si       1.36508397       1.36508397       6.82541983       0.00866863       0.18339888      -0.08390027
Si       2.73016793       2.73016793       5.46033587       0.01732674      -0.00436919      -0.04299852
Si       4.09525190       4.09525190       6.82541983      -0.00637373      -0.01072208      -0.01393489
Si       2.73016793       0.00000000       8.19050380      -0.01891498      -0.06838706       0.00390247
Si       4.09525190       1.36508397       9.55558777      -0.00555861       0.00315148      -0.00103252
Si       0.00000000       2.73016793       8.19050380      -0.04476595      -0.06205864       0.01893844
Si       1.36508397       4.09525190       9.55558777      -0.00564379      -0.00648636      -0.00390151
Si       0.00000000       0.00000000      10.92067173       0.00042481      -0.00042481       0.00106621
Si       1.36508397       1.36508397      12.28575570      -0.00240978      -0.00317520       0.00125798
Si       2.73016793       2.73016793      10.92067173       0.00051679      -0.00199481      -0.00497869
Si       4.09525190       4.09525190      12.28575570       0.00000059       0.00000056       0.00001800
Si       2.73016793       0.00000000      13.65083967      -0.00390813      -0.00666521      -0.01020274
Si       4.09525190       1.36508397      15.01592363      -0.00223823      -0.00669590       0.00493266
Si       0.00000000       2.73016793      13.65083967      -0.00817970      -0.00865930      -0.00153901
Si       1.36508397       4.09525190      15.01592363      -0.01569806      -0.01921870       0.00450717
Si       0.00000000       5.46033587       0.00000000       0.08767839       0.08393737      -0.11034068
Si       1.36508397       6.82541983       1.36508397      -0.00313896       0.00737897       0.01435057
Si       2.73016793       8.19050380       0.00000000      -0.00013542      -0.00012206      -0.00006663
Si       4.09525190       9.55558777       1.36508397      -0.00000044       0.00000018      -0.00000040
Si       2.73016793       5.46033587       2.73016793      -0.03185365      -0.02913589      -0.06355528
Si       4.09525190       6.82541983       4.09525190      -0.00957430      -0.00974560       0.00453230
Si       0.00000000       8.19050380       2.73016793       0.00137827      -0.00137030      -0.01976396
Si       1.36508397       9.55558777       4.09525190      -0.00736597      -0.00262539      -0.00151735
Si       0.00000000       5.46033587       5.46033587      -0.01311659      -0.00406054      -0.06256266
Si       1.36508397       6.82541983       6.82541983      -0.01259346      -0.00901653      -0.01610308
Si       2.73016793       8.19050380       5.46033587      -0.00023065      -0.00386991       0.00352908
Si       4.09525190       9.55558777       6.82541983       0.00009031       0.00089605       0.00001503
Si       2.73016793       5.46033587       8.19050380      -0.00022470       0.00096606       0.00091293
Si       4.09525190       6.82541983       9.55558777      -0.00000000      -0.00000000      -0.00000000
Si       0.00000000       8.19050380       8.19050380       0.00552202       0.00134627       0.00261291
Si       1.36508397       9.55558777       9.55558777      -0.00000000      -0.00000000      -0.00000000
Si       0.00000000       5.46033587      10.92067173      -0.00177359      -0.00107322      -0.00623351
Si       1.36508397       6.82541983      12.28575570       0.00000206       0.00000307       0.00009229
Si       2.73016793       8.19050380      10.92067173       0.00000000       0.00000000      -0.00000000
Si       4.09525190       9.55558777      12.28575570      -0.00000000      -0.00000000      -0.00000000
Si       2.73016793       5.46033587      13.65083967      -0.00015244       0.00009737       0.00012487
Si       4.09525190       6.82541983      15.01592363       0.00002585       0.00003642      -0.00002523
Si       0.00000000       8.19050380      13.65083967       0.00019688      -0.00028382       0.00023719
Si       1.36508397       9.55558777      15.01592363       0.00001997      -0.00003774      -0.00001163
Si       0.00000000      10.92067173       0.00000000       0.00605824      -0.00816711       0.00200693
Si       1.36508397      12.28575570       1.36508397      -0.02768407      -0.01806521       0.02645475
Si       2.73016793      13.65083967       0.00000000       0.00530296      -0.00530296      -0.01156357
Si       4.09525190      15.01592363       1.36508397       0.01806521       0.02768407       0.02645475
Si       2.73016793      10.92067173       2.73016793       0.00209499      -0.01921961      -0.00982602
Si       4.09525190      12.28575570       4.09525190      -0.02380462       0.02380462      -0.04754628
Si       0.00000000      13.65083967       2.73016793      -0.00791523      -0.06727430      -0.00747721
Si       1.36508397      15.01592363       4.09525190       0.10560275      -0.10560275      -0.16379096
Si       0.00000000      10.92067173       5.46033587       0.01092161       0.00238006       0.00496055
Si       1.36508397      12.28575570       6.82541983      -0.04607051       0.04759175      -0.01835770
Si       2.73016793      13.65083967       5.46033587       0.19600102      -0.19600102       0.17948964
Si       4.09525190      15.01592363       6.82541983      -0.04759175       0.04607051      -0.01835770
Si       2.73016793      10.92067173       8.19050380       0.00051288       0.00147167      -0.00197179
Si       4.09525190      12.28575570       9.55558777       0.00029053      -0.00029053       0.00025698
Si       0.00000000      13.65083967       8.19050380       0.06838706       0.01891498       0.00390247
Si       1.36508397      15.01592363       9.55558777      -0.01096178       0.01096178      -0.05161645
Si       0.00000000      10.92067173      10.92067173       0.00000000      -0.00000000      -0.00000000
Si       1.36508397      12.28575570      12.28575570      -0.00000000       0.00000000       0.00000016
Si       2.73016793      13.65083967      10.92067173      -0.00000036       0.00000036      -0.00024767
Si       4.09525190      15.01592363      12.28575570      -0.00000000       0.00000000       0.00000016
Si       2.73016793      10.92067173      13.65083967       0.00000012       0.00000001      -0.00000011
Si       4.09525190      12.28575570      15.01592363      -0.00000038       0.00000038       0.00000039
Si       0.00000000      13.65083967      13.65083967       0.00666521       0.00390813      -0.01020274
Si       1.36508397      15.01592363      15.01592363      -0.02702962       0.02702962       0.01986953
Si       5.46033587       0.00000000       0.00000000       0.00816711      -0.00605824       0.00200693
Si       6.82541983       1.36508397       1.36508397      -0.00462043      -0.00196506       0.00423308
Si       8.19050380       2.73016793       0.00000000      -0.00752668       0.00290925       0.00352660
Si       9.55558777       4.09525190       1.36508397      -0.02912555      -0.02091407       0.01143519
Si       8.19050380       0.00000000       2.73016793       0.00137030      -0.00137827      -0.01976396
Si       9.55558777       1.36508397       4.09525190      -0.00787664      -0.01416223       0.02155822
Si       5.46033587       2.73016793       2.73016793      -0.00083312       0.00208870      -0.01424435
Si       6.82541983       4.09525190       4.09525190      -0.00546182      -0.00562150       0.00036372
Si       5.46033587       0.00000000       5.46033587      -0.00238006      -0.01092161       0.00496055
Si       6.82541983       1.36508397       6.82541983       0.00073382      -0.00011939      -0.00652013
Si       8.19050380       2.73016793       5.46033587       0.00282225       0.01811560       0.00498872
Si       9.55558777       4.09525190       6.82541983       0.04197874      -0.05698627      -0.02496169
Si       8.19050380       0.00000000       8.19050380      -0.00134627      -0.00552202       0.00261291
Si       9.55558777       1.36508397       9.55558777       0.00833893      -0.00306569      -0.00348123
Si       5.46033587       2.73016793       8.19050380       0.00080733       0.00514104       0.00242029
Si       6.82541983       4.09525190       9.55558777      -0.00000000      -0.00000000      -0.00000000
Si       5.46033587       0.00000000      10.92067173       0.00000000       0.00000000      -0.00000000
Si       6.82541983       1.36508397      12.28575570      -0.00000000       0.00000000      -0.00000000
Si       8.19050380       2.73016793      10.92067173       0.00000000       0.00000000      -0.00000000
Si       9.55558777       4.09525190      12.28575570       0.00000012      -0.00000002       0.00006327
Si       8.19050380       0.00000000      13.65083967       0.00028382      -0.00019688       0.00023719
Si       9.55558777       1.36508397      15.01592363       0.00879742       0.01203736       0.00927246
Si       5.46033587       2.73016793      13.65083967      -0.00006592       0.00004489       0.00005539
Si       6.82541983       4.09525190      15.01592363       0.00013705       0.00022058       0.00038798
Si       5.46033587       5.46033587       0.00000000       0.00011909      -0.00005629       0.00001542
Si       6.82541983       6.82541983       1.36508397       0.00010064      -0.00024242      -0.00018447
Si       8.19050380       8.19050380       0.00000000      -0.00005770       0.00005770      -0.00010794
Si       9.55558777       9.55558777       1.36508397       0.00024242      -0.00010064      -0.00018447
Si       8.19050380       5.46033587       2.73016793      -0.01581242       0.00190234      -0.00438239
Si       9.55558777       6.82541983       4.09525190       0.02842615      -0.02842615      -0.06390582
Si       5.46033587       8.19050380       2.73016793       0.00000000       0.00000000       0.00000000
Si       6.82541983       9.55558777       4.09525190      -0.00000000       0.00000000       0.00000000
Si       5.46033587       5.46033587       5.46033587      -0.00436915      -0.00094869       0.00340482
Si       6.82541983       6.82541983       6.82541983       0.00140712       0.00015925       0.00003557
Si       8.19050380       8.19050380       5.46033587       0.00389616      -0.00389616       0.00211735
Si       9.55558777       9.55558777       6.82541983      -0.00015925      -0.00140712       0.00003557
Si       8.19050380       5.46033587       8.19050380       0.00250126       0.00088143      -0.00321918
Si       9.55558777       6.82541983       9.55558777      -0.00045067       0.00045067       0.00014552
Si       5.46033587       8.19050380       8.19050380       0.00000000       0.00000000      -0.00000000
Si       6.82541983       9.55558777       9.55558777      -0.00000000      -0.00000000      -0.00000000
Si       5.46033587       5.46033587      10.92067173       0.00000000      -0.00000000      -0.00000000
Si       6.82541983       6.82541983      12.28575570      -0.00000000      -0.00000000      -0.00000000
Si       8.19050380       8.19050380      10.92067173       0.00000000       0.00000000      -0.00000000
Si       9.55558777       9.55558777      12.28575570       0.00000000       0.00000000      -0.00000000
Si       8.19050380       5.46033587      13.65083967      -0.00000113       0.00005654      -0.00004016
Si       9.55558777       6.82541983      15.01592363       0.00027420      -0.00027420       0.00038474
Si       5.46033587       8.19050380      13.65083967       0.00000000       0.00000000       0.00000000
Si       6.82541983       9.55558777      15.01592363      -0.00000000      -0.00000000      -0.00000000
Si       5.46033587      10.92067173       0.00000000       0.00000013      -0.00000013      -0.00000021
Si       6.82541983      12.28575570       1.36508397      -0.00000018       0.00000044      -0.00000040
Si       8.19050380      13.65083967       0.00000000       0.00012206       0.00013542      -0.00006663
Si       9.55558777      15.01592363       1.36508397      -0.00737897       0.00313896       0.01435057
Si       8.19050380      10.92067173       2.73016793       0.00000000      -0.00000000       0.00000000
Si       9.55558777      12.28575570       4.09525190       0.00974560       0.00957430       0.00453230
Si       5.46033587      13.65083967       2.73016793       0.01921961      -0.00209499      -0.00982602
Si       6.82541983      15.01592363       4.09525190       0.00262539       0.00736597      -0.00151735
Si       5.46033587      10.92067173       5.46033587      -0.00287633       0.00287633       0.00154534
Si       6.82541983      12.28575570       6.82541983      -0.00089605      -0.00009031       0.00001503
Si       8.19050380      13.65083967       5.46033587       0.00386991       0.00023065       0.00352908
Si       9.55558777      15.01592363       6.82541983       0.00901653       0.01259346      -0.01610308
Si       8.19050380      10.92067173       8.19050380       0.00000000      -0.00000000       0.00000000
Si       9.55558777      12.28575570       9.55558777       0.00000000       0.00000000      -0.00000000
Si       5.46033587      13.65083967       8.19050380      -0.00147167      -0.00051288      -0.00197179
Si       6.82541983      15.01592363       9.55558777       0.00000000      -0.00000000      -0.00000000
Si       5.46033587      10.92067173      10.92067173       0.00000000      -0.00000000      -0.00000000
Si       6.82541983      12.28575570      12.28575570      -0.00000000       0.00000000      -0.00000000
Si       8.19050380      13.65083967      10.92067173       0.00000000      -0.00000000      -0.00000000
Si       9.55558777      15.01592363      12.28575570      -0.00000307      -0.00000206       0.00009229
Si       8.19050380      10.92067173      13.65083967       0.00000000      -0.00000000       0.00000000
Si       9.55558777      12.28575570      15.01592363      -0.00003642      -0.00002585      -0.00002523
Si       5.46033587      13.65083967      13.65083967      -0.00000001      -0.00000012      -0.00000011
Si       6.82541983      15.01592363      15.01592363       0.00003774      -0.00001997      -0.00001163
Si      10.92067173       0.00000000       0.00000000      -0.08393737      -0.08767839      -0.11034068
Si      12.28575570       1.36508397       1.36508397      -0.11905514       0.10112249      -0.26270498
Si      13.65083967       2.73016793       0.00000000       0.00052082      -0.00052082      -0.09725382
Si      15.01592363       4.09525190       1.36508397      -0.10112249       0.11905514      -0.26270498
Si      13.65083967       0.00000000       2.73016793      -0.00289284      -0.06543812       0.23504712
Si      14.01592363       2.36508397       3.59525190       2.03720607      -2.03720607      -5.45694816
Si      10.92067173       2.73016793       2.73016793      -0.13203593       0.02233822       0.00313206
Si      12.28575570       4.09525190       4.09525190      -0.33613674       0.33613674      -0.23842427
Si      10.92067173       0.00000000       5.46033587       0.00406054       0.01311659      -0.06256266
Si      12.28575570       1.36508397       6.82541983      -0.04495041      -0.19452698      -0.11970099
Si      13.65083967       2.73016793       5.46033587      -1.51603459       1.51603459       6.43023135
Si      15.01592363       4.09525190       6.82541983       0.19452698       0.04495041      -0.11970099
Si      13.65083967       0.00000000       8.19050380       0.06205864       0.04476595       0.01893844
Si      15.01592363       1.36508397       9.55558777       0.00584142      -0.00584142      -0.00311276
Si      10.92067173       2.73016793       8.19050380       0.01832941       0.08024607       0.00056970
Si      12.28575570       4.09525190       9.55558777       0.00230733      -0.00230733      -0.02494430
Si      10.92067173       0.00000000      10.92067173       0.00107322       0.00177359      -0.00623351
Si      12.28575570       1.36508397      12.28575570       0.00241419       0.00291903      -0.00019855
Si      13.65083967       2.73016793      10.92067173      -0.00062318       0.00062318       0.00341776
Si      15.01592363       4.09525190      12.28575570      -0.00291903      -0.00241419      -0.00019855
Si      13.65083967       0.00000000      13.65083967       0.00865930       0.00817970      -0.00153901
Si      15.01592363       1.36508397      15.01592363      -0.00896011       0.00896011       0.04060524
Si      10.92067173       2.73016793      13.65083967       0.00423792       0.00916674      -0.01191268
Si      12.28575570       4.09525190      15.01592363       0.03689771      -0.03689771       0.02691943
Si      10.92067173       5.46033587       0.00000000      -0.00000032       0.00000032      -0.00858647
Si      12.28575570       6.82541983       1.36508397       0.02091407       0.02912555       0.01143519
Si      13.65083967       8.19050380       0.00000000      -0.00290925       0.00752668       0.00352660
Si      15.01592363       9.55558777       1.36508397       0.00196506       0.00462043       0.00423308
Si      13.65083967       5.46033587       2.73016793      -0.02233822       0.13203593       0.00313206
Si      15.01592363       6.82541983       4.09525190       0.01416223       0.00787664       0.02155822
Si      10.92067173       8.19050380       2.73016793      -0.00190234       0.01581242      -0.00438239
Si      12.28575570       9.55558777       4.09525190       0.00562150       0.00546182       0.00036372
Si      10.92067173       5.46033587       5.46033587      -0.23291966       0.23291966       0.25079243
Si      12.28575570       6.82541983       6.82541983       0.05698627      -0.04197874      -0.02496169
Si      13.65083967       8.19050380       5.46033587      -0.01811560      -0.00282225       0.00498872
Si      15.01592363       9.55558777       6.82541983       0.00011939      -0.00073382      -0.00652013
Si      13.65083967       5.46033587       8.19050380      -0.08024607      -0.01832941       0.00056970
Si      15.01592363       6.82541983       9.55558777       0.00306569      -0.00833893      -0.00348123
Si      10.92067173       8.19050380       8.19050380      -0.00088143      -0.00250126      -0.00321918
Si      12.28575570       9.55558777       9.55558777      -0.00000000       0.00000000      -0.00000000
Si      10.92067173       5.46033587      10.92067173       0.00000063      -0.00000063      -0.00026144
Si      12.28575570       6.82541983      12.28575570       0.00000002      -0.00000012       0.00006327
Si      13.65083967       8.19050380      10.92067173      -0.00000000       0.00000000      -0.00000000
Si      15.01592363       9.55558777      12.28575570       0.00000000       0.00000000      -0.00000000
Si      13.65083967       5.46033587      13.65083967      -0.00916674      -0.00423792      -0.01191268
Si      15.01592363       6.82541983      15.01592363      -0.01203736      -0.00879742       0.00927246
Si      10.92067173       8.19050380      13.65083967      -0.00005654       0.00000113      -0.00004016
Si      12.28575570       9.55558777      15.01592363      -0.00022058      -0.00013705       0.00038798
Si      10.92067173      10.92067173       0.00000000       0.00005629      -0.00011909       0.00001542
Si      12.28575570      12.28575570       1.36508397       0.00202623      -0.01266760       0.00715766
Si      13.65083967      13.65083967       0.00000000      -0.04250502      -0.05813592      -0.08312570
Si      15.01592363      15.01592363       1.36508397       0.07179210      -0.12764791      -0.29493064
Si      13.65083967      10.92067173       2.73016793      -0.00208870       0.00083312      -0.01424435
Si      15.01592363      12.28575570       4.09525190      -0.01253496      -0.04729986       0.01654927
Si      10.92067173      13.65083967       2.73016793       0.02913589       0.03185365      -0.06355528
Si      12.28575570      15.01592363       4.09525190      -0.08097951      -0.04255264       0.17937463
Si      10.92067173      10.92067173       5.46033587       0.00094869       0.00436915       0.00340482
Si      12.28575570      12.28575570       6.82541983       0.01072208       0.00637373      -0.01393489
Si      13.65083967      13.65083967       5.46033587       0.00436919      -0.01732674      -0.04299852
Si      15.01592363      15.01592363       6.82541983      -0.18339888      -0.00866863      -0.08390027
Si      13.65083967      10.92067173       8.19050380      -0.00514104      -0.00080733       0.00242029
Si      15.01592363      12.28575570       9.55558777      -0.00315148       0.00555861      -0.00103252
Si      10.92067173      13.65083967       8.19050380      -0.00096606       0.00022470       0.00091293
Si      12.28575570      15.01592363       9.55558777       0.00648636       0.00564379      -0.00390151
Si      10.92067173      10.92067173      10.92067173      -0.00000000      -0.00000000      -0.00000000
Si      12.28575570      12.28575570      12.28575570      -0.00000056      -0.00000059       0.00001800
Si      13.65083967      13.65083967      10.92067173       0.00199481      -0.00051679      -0.00497869
Si      15.01592363      15.01592363      12.28575570       0.00317520       0.00240978       0.00125798
Si      13.65083967      10.92067173      13.65083967      -0.00004489       0.00006592       0.00005539
Si      15.01592363      12.28575570      15.01592363       0.00669590       0.00223823       0.00493266
Si      10.92067173      13.65083967      13.65083967      -0.00009737       0.00015244       0.00012487
Si      12.28575570      15.01592363      15.01592363       0.01921870       0.01569806       0.00450717
Si      -0.50000000       0.50000000       3.72000000      -2.58902058       2.58902058      -6.73284874
217
Lattice="16.38100760036662 2.331842455367487e-16 2.5742203449934995e-16 2.3318424553674875e-16 16.38100760036662 1.6214245030153854e-16 2.574220344993499e-16 1.6214245030153854e-16 16.381007600366623" Properties=species:S:1:pos:R:3:forces:R:3 n_minim_iter=2 energy=-35405.11412810283 stress="-0.0013491770500288006 0.0005028286067464519 -4.484469952028563e-05 0.0005028286067464519 -0.001349177050028799 4.484469952031053e-05 -4.484469952028563e-05 4.484469952031053e-05 -0.0031939053125768333" free_energy=-35405.11412810283 pbc="T T T"
Si      -0.00080844       0.00080844      -0.01340097      -0.01383716       0.01383716      -0.02709215
Si       1.36721426       1.36547956       1.34567710       0.12266702      -0.13455275      -0.16135322
Si       2.73207417       2.73141169      -0.00810792       0.08793613       0.07931872      -0.08153608
Si       4.09604885       4.09570550       1.36172852      -0.00255330      -0.01751284       0.01821657
Si       2.73310885      -0.00032775       2.72487283       0.00180995       0.03007224       0.05344650
Si       4.09787213       1.36486332       4.09561373      -0.03608002      -0.01577318       0.00531697
Si       0.00076337       2.73219924       2.71071840       0.20589993       0.08903769       0.22655884
Si       1.36661241       4.09770403       4.09496513      -0.02199220      -0.01819303       0.18059186
Si       0.03513681      -0.03513681       5.56956411       0.92969896      -0.92969896       1.92046876
Si       1.37081416       1.36343844       6.84416177       0.28655986       0.43154935       0.12642578
Si       2.73273147       2.72970815       5.46402424      -0.06006369      -0.07725986      -0.09039734
Si       4.09584708       4.09497693       6.82773706      -0.00636152      -0.00302439      -0.00762048
Si       2.73262146      -0.00351592       8.19966733       0.01584348      -0.04809271       0.00040407
Si       4.09602669       1.36427147       9.55914105       0.00825568       0.00651463       0.00230645
Si       0.00064078       2.72874419       8.20481600      -0.04130679      -0.04125986      -0.03249919
Si       1.36539824       4.09486852       9.56031967       0.01270381       0.01326372       0.00096712
Si       0.00080799      -0.00080799      10.92456369       0.01136657      -0.01136657       0.01029236
Si       1.36542124       1.36469290      12.28606352       0.00292311      -0.00028523      -0.00022381
Si       2.73064649       2.72971817      10.92282976       0.00599940      -0.00290943      -0.00589716
Si       4.09546541       4.09525819      12.28577675       0.00349093       0.00196020       0.00072188
Si       2.73043821      -0.00026859      13.64884103       0.00224150      -0.00721607      -0.00565925
Si       4.09580170       1.36510619      15.01285116       0.00817686      -0.02263736       0.00297981
Si      -0.00004218       2.73021661      13.64772268       0.00016550      -0.00100857       0.00105675
Si       1.36540979       4.09569046      15.01088541      -0.01824521      -0.02370517       0.00515237
Si       0.00169601       5.46310570      -0.00876344       0.11352599       0.10143018      -0.09639228
Si       1.36535303       6.82642101       1.36171299      -0.01719205      -0.00564003       0.02484502
Si       2.73036739       8.19068170      -0.00182185       0.00588524       0.00549926       0.00045834
Si       4.09546210       9.55534032       1.36407470       0.00163553      -0.00198898      -0.00168410
Si       2.73010515       5.46059467       2.72659181      -0.02560673      -0.02468046      -0.04965167
Si       4.09511880       6.82539169       4.09497349      -0.01206590      -0.01302156      -0.00147517
Si       0.00002581       8.19110316       2.72824298       0.00395731      -0.00444093      -0.00821041
Si       1.36533478       9.55504354       4.09536397      -0.00542659      -0.00273176      -0.00212831
Si      -0.00026223       5.46206602       5.46303442      -0.06907415      -0.03688780      -0.08898045
Si       1.36496094       6.82564376       6.82745808      -0.00668684      -0.00991756      -0.01105210
Si       2.73033730       8.19031787       5.46119899      -0.00022993      -0.00644776       0.00295662
Si       4.09567203       9.55519480       6.82686834      -0.00325571       0.00214191      -0.00525407
Si       2.73047859       5.46032195       8.19332591      -0.01146265      -0.00874790      -0.00720068
Si       4.09538805       6.82541348       9.55697304       0.00242253       0.00294286      -0.00067095
Si       0.00006426       8.19063067       8.19292326       0.00010636      -0.00307417      -0.00108538
Si       1.36546421       9.55528613       9.55737059      -0.00111224       0.00079165      -0.00137641
Si      -0.00010033       5.46042360      10.92264916      -0.00241832       0.00451910      -0.00822410
Si       1.36519913       6.82553181      12.28573068       0.00066636       0.00360354       0.00071635
Si       2.73036586       8.19042508      10.92151685       0.00094249      -0.00121218      -0.00030672
Si       4.09544607       9.55546371      12.28591631      -0.00028243       0.00002618      -0.00067724
Si       2.73040919       5.46057472      13.64931438       0.00704583       0.00627458      -0.00398599
Si       4.09539502       6.82564524      15.01444381      -0.00303774      -0.00245311       0.00244867
Si       0.00008068       8.19068996      13.64971035       0.00204965       0.00443045      -0.00146788
Si       1.36525838       9.55550235      15.01448316       0.00009833      -0.00256869       0.00014434
Si       0.00014499      10.92003005      -0.00225891       0.00016816      -0.00264946       0.00377690
Si       1.36508591      12.28419276       1.36299316      -0.00551190      -0.01527975       0.02817113
Si       2.73075395      13.65025366      -0.00291867      -0.00768759       0.00768759       0.00761294
Si       4.09681484      15.01592169       1.36299316       0.01527975       0.00551190       0.02817113
Si       2.73080823      10.91937330       2.72950236      -0.00559627      -0.00450426      -0.00305691
Si       4.09650244      12.28450516       4.09576579      -0.01166031       0.01166031      -0.03501470
Si       0.00032775      13.64789875       2.72487283      -0.03007224      -0.00180995       0.05344650
Si       1.37058249      15.01042511       4.09755475       0.18037558      -0.18037558      -0.05314955
Si       0.00087673      10.91949150       5.46236109       0.01498086       0.01051806      -0.00062796
Si       1.36669353      12.28408694       6.83065628      -0.04880297       0.01487772      -0.03286939