2
Lattice="2.7038336776654526 3.939595360876904e-17 2.7038336776654526 2.7038336776654526 2.7038336776654526 -8.599218643512955e-17 -7.342245758489449e-17 2.7038336776654526 2.7038336776654526" Properties=species:S:1:pos:R:3 n_minim_iter=1 energy=-326.34414016553995 free_energy=-326.34414016553995 pbc="T T T"
Si       0.00000000      -0.00000000      -0.00000000
Si       1.35191684       1.35191684       1.35191684
