2
Lattice="2.917586880645669 4.251042449427311e-17 2.917586880645669 2.917586880645669 2.917586880645669 -9.279035062459683e-17 -7.922691427507118e-17 2.917586880645669 2.917586880645669" Properties=species:S:1:pos:R:3 n_minim_iter=1 energy=-325.98241632081664 free_energy=-325.98241632081664 pbc="T T T"
Si       0.00000000      -0.00000000      -0.00000000
Si       1.45879344       1.45879344       1.45879344
