2
Lattice="2.8773391622091307 4.1923998908453165e-17 2.8773391622091307 2.8773391622091307 2.8773391622091307 -9.151032022332907e-17 -7.813398965318874e-17 2.8773391622091307 2.8773391622091307" Properties=species:S:1:pos:R:3 n_minim_iter=1 energy=-326.11495840997674 free_energy=-326.11495840997674 pbc="T T T"
Si       0.00000000      -0.00000000      -0.00000000
Si       1.43866958       1.43866958       1.43866958
