2
Lattice="2.6805236067222338 3.905631641840419e-17 2.6805236067222338 2.6805236067222338 2.6805236067222338 -8.525083759295666e-17 -7.278947386652943e-17 2.6805236067222338 2.6805236067222338" Properties=species:S:1:pos:R:3 n_minim_iter=1 stress="-0.017088787824675527 -1.545278990368901e-17 1.3148099809591329e-17 -1.545278990368901e-17 -0.017088787824675527 -1.6070817682144713e-17 1.3148099809591329e-17 -1.6070817682144713e-17 -0.017088787824675437" pbc="T T T"
Si      -0.00000000      -0.00000000      -0.00000000
Si       1.34026180       1.34026180       1.34026180
