10
Lattice="5.922481689387229 -0.26898740373169394 -0.2547541223429586 0.07159314810625599 5.928154688065934 -0.2547541223417733 0.0715931481073981 0.06759301685904531 5.933241007456214" Properties=species:S:1:pos:R:3 unique_starting_index=178 config_type=initial n_minim_iter=3 energy=-1627.3852827758274 free_energy=-1627.3852827758274 pbc="T T T"
Si       4.43974523       2.00027387       2.98023339
Si       2.25195322       3.21032960       4.14930294
Si       3.33436368       4.25527149       1.83545844
Si       1.73347593       2.71784189       0.62292513
Si       2.81291195       0.70752162       1.53836878
Si       0.86790336       1.68641451       2.67999792
Si       2.65866562       0.83780284       4.01215189
Si       0.98911097       4.14777631       2.38440568
Si       4.19773626       2.42158058       0.61865745
Si       4.41511381       4.16842771       3.94785826
