10
Lattice="6.365998641650585 -2.204031316461939 1.4116749978464689 -5.9616407000359946 7.699503039246098 -2.1014920091019236 1.8877174496981148 -1.4039300137381867 5.437543886328777" Properties=species:S:1:pos:R:3 unique_starting_index=126 config_type=initial n_minim_iter=1 energy=-1628.391486042596 free_energy=-1628.391486042596 pbc="T T T"
Si       3.37378968      -1.93183753       4.31512395
Si      -1.36475537       3.70441949       2.01576449
Si       0.99144694       1.28327708       2.87203726
Si       2.51415100       0.49358723       4.48191588
Si       6.57653857      -2.94543471       3.32436701
Si       1.77545106       2.64323870       1.02292633
Si       2.65521491       0.21884213       0.84109601
Si       4.14359843      -0.50576214       2.51093633
Si      -0.34515333       5.55656777      -0.76666768
Si       4.01809712       2.11584979       0.00558731
10
Lattice="6.374203166692364 -2.203032428276513 1.4126252063572733 -5.969689602174509 7.695427224055625 -2.102173658651036 1.89076477491525 -1.4028504958997297 5.439125184712423" Properties=species:S:1:pos:R:3 unique_starting_index=126 config_type=initial n_minim_iter=2 stress="0.0005196301578405501 -2.935520969734354e-05 0.00021322243015895706 -2.935520969734354e-05 0.00026307243994546926 -4.5006345183612795e-05 0.00021322243015895706 -4.5006345183612795e-05 0.0004997708574593164" pbc="T T T"
Si       3.37905566      -1.93120079       4.31619288
Si      -1.36656847       3.70227669       2.01637994
Si       0.99297637       1.28238162       2.87254975
Si       2.51782914       0.49362269       4.48398346
Si       6.58500361      -2.94341964       3.32570259
Si       1.77759098       2.64245985       1.02404879
Si       2.65853809       0.21924875       0.84152573
Si       4.14931691      -0.50591023       2.51176957
Si      -0.34589280       5.55314598      -0.76655338
Si       4.02271678       2.11466814       0.00664791
10
Lattice="6.377621132051943 -2.1998615171379576 1.4092703615279722 -5.972679851542725 7.684844778162117 -2.0973568138229908 1.8902686248703133 -1.3999151202981719 5.434440288964987" Properties=species:S:1:pos:R:3 unique_starting_index=126 config_type=initial n_minim_iter=3 stress="0.00023982578786987295 1.3370911241033032e-05 -7.019183519064649e-05 1.3370911241033032e-05 -0.0010144037995759136 0.00013720494035488406 -7.019183519064649e-05 0.00013720494035488406 -0.000554764427627877" pbc="T T T"
Si       3.38081506      -1.92898812       4.31106965
Si      -1.36819575       3.69708382       2.01604727
Si       0.99287894       1.28051988       2.86957161
Si       2.51803886       0.49410243       4.48127343
Si       6.58721334      -2.93795294       3.32054385
Si       1.77819985       2.64063543       1.02425112
Si       2.65977224       0.22036889       0.83995573
Si       4.15150069      -0.50566911       2.50792922
Si      -0.34573677       5.54490583      -0.76491518
Si       4.02447516       2.11220959       0.00675993
10
Lattice="6.378248897014833 -2.203210804129634 1.4057460089831346 -5.9731062784251066 7.695151639512641 -2.0950139783008437 1.8869813898640224 -1.402346973029277 5.436062503557974" Properties=species:S:1:pos:R:3 unique_starting_index=126 config_type=initial n_minim_iter=4 stress="0.0012189797352630976 -6.474619128886217e-05 -0.0005821192418761009 -6.474619128886217e-05 0.00045709716074655995 0.0001435978991360236 -0.0005821192418761009 0.0001435978991360236 0.0004446447882036256" pbc="T T T"
Si       3.38260566      -1.93671723       4.30853878
Si      -1.37024459       3.69906528       2.01720419
Si       0.99210928       1.27931526       2.86715753
Si       2.51542377       0.49527547       4.48606458
Si       6.58270930      -2.93952839       3.31729945
Si       1.77722783       2.65001673       1.02706016
Si       2.65943891       0.22533570       0.83778461
Si       4.15238423      -0.51088236       2.50297308
Si      -0.34503528       5.54925288      -0.76664497
Si       4.02274408       2.11576868       0.00756603
10
Lattice="6.372007889960341 -2.2034296962363618 1.4130071887327142 -5.967814811599916 7.69561784924398 -2.1037950077790133 1.890112540946732 -1.4040950045674991 5.439054279319062" Properties=species:S:1:pos:R:3 unique_starting_index=126 config_type=initial n_minim_iter=5 stress="0.0003058817157066992 -0.00015560399853487797 0.0003495113872179024 -0.00015560399853487797 -0.0002517540641059076 -7.772275982667285e-05 0.0003495113872179024 -7.772275982667285e-05 0.000747263583437085" pbc="T T T"
Si       3.38417933      -1.93948535       4.31209963
Si      -1.36634424       3.69711881       2.01459602
Si       0.99445831       1.27777483       2.86712198
Si       2.51681807       0.49416921       4.49054573
Si       6.57631946      -2.93967646       3.32521133
Si       1.77606475       2.65235488       1.02968426
Si       2.65698155       0.22719788       0.84020764
Si       4.15063358      -0.51327938       2.50616584
Si      -0.34479024       5.54855945      -0.76979686
Si       4.01714823       2.11622449       0.01231768
10
Lattice="6.367592903483095 -2.203277812222324 1.4123513238129073 -5.961684555294375 7.700855610602901 -2.1028122914031604 1.8890211361586762 -1.4051438916047836 5.433757256764372" Properties=species:S:1:pos:R:3 unique_starting_index=126 config_type=initial n_minim_iter=6 stress="-0.00024122520942039842 9.212755627073642e-05 0.00011191812155662813 9.212755627073642e-05 2.4890163251924824e-05 0.00015558437145912115 0.00011191812155662813 0.00015558437145912115 9.968033178057263e-07" pbc="T T T"
Si       3.38241586      -1.94053434       4.30776582
Si      -1.36384492       3.69854633       2.01217840
Si       0.99542935       1.27917590       2.86424144
Si       2.51569815       0.49535623       4.48685606
Si       6.57039203      -2.94031685       3.32278107
Si       1.77590525       2.65715119       1.02966536
Si       2.65547665       0.22937455       0.83958943
Si       4.14858180      -0.51340803       2.50299450
Si      -0.34209431       5.55314102      -0.77053984
Si       4.01513622       2.11987605       0.01299497
10
Lattice="6.366467466273128 -2.2058908839806195 1.4121612071240903 -5.960812135230866 7.707090413760284 -2.1062284434933325 1.8882956941647844 -1.41020722067053 5.429484829670911" Properties=species:S:1:pos:R:3 unique_starting_index=126 config_type=initial n_minim_iter=7 stress="-0.0005879841118568348 9.537891618665461e-06 -0.00018837745536436936 9.537891618665461e-06 8.570838724880923e-05 -0.00019232203180397325 -0.00018837745536436936 -0.00019232203180397325 -0.0004418600847833244" pbc="T T T"
Si       3.38225389      -1.94492520       4.30439326
Si      -1.36404850       3.69649353       2.00752274
Si       0.99634650       1.27770878       2.86076943
Si       2.51445245       0.49222631       4.48308517
Si       6.56713503      -2.94486088       3.32182512
Si       1.77504075       2.66053411       1.02814392
Si       2.65469438       0.23037648       0.83843942
Si       4.14821463      -0.51712711       2.49897237
Si      -0.34125972       5.55586201      -0.77631019
Si       4.01383863       2.12114182       0.01174277
10
Lattice="6.36943929808199 -2.205413124397775 1.4123822153114167 -5.962746452547253 7.708410762102492 -2.105717687505047 1.8901922455838254 -1.4102644071035146 5.425193115931896" Properties=species:S:1:pos:R:3 unique_starting_index=126 config_type=initial n_minim_iter=8 stress="-0.0004366954358334715 7.428039630662262e-05 -0.00012509263225359354 7.428039630662262e-05 0.00024978957666391745 0.00011547038553580907 -0.00012509263225359354 0.00011547038553580907 -0.0006383117599616414" pbc="T T T"
Si       3.38561248      -1.94446007       4.30058011
Si      -1.36400225       3.69332826       2.00550609
Si       1.00007942       1.27851631       2.85919889
Si       2.51614287       0.49302944       4.48142355
Si       6.56730960      -2.94462810       3.32136976
Si       1.77608581       2.66600673       1.03039480
Si       2.65586937       0.23363811       0.83866787
Si       4.15138846      -0.51868410       2.49499675
Si      -0.33888745       5.55580907      -0.77954437
Si       4.01540250       2.12281204       0.01377541
10
Lattice="6.37277131268353 -2.2039405085713573 1.4124622597528231 -5.96512398135753 7.704387743150689 -2.10743592376199 1.8904896297571003 -1.4107837501591818 5.426340619509046" Properties=species:S:1:pos:R:3 unique_starting_index=126 config_type=initial n_minim_iter=9 stress="-0.00012349341011071496 0.00014513146195001552 -9.899474216085207e-05 0.00014513146195001552 5.4785752101082366e-05 -9.606211483927698e-05 -9.899474216085207e-05 -9.606211483927698e-05 -0.00019332986395636154" pbc="T T T"
Si       3.38755298      -1.94360017       4.30107797
Si      -1.36545256       3.68831104       2.00498564
Si       1.00205256       1.27739877       2.85996654
Si       2.51697048       0.49198164       4.48285310
Si       6.56834892      -2.94316753       3.32292408
Si       1.77703102       2.66705675       1.03119792
Si       2.65706725       0.23528420       0.83892587
Si       4.15382322      -0.51996192       2.49319277
Si      -0.33704418       5.55188233      -0.78406307
Si       4.01775182       2.12211723       0.01334524
10
Lattice="6.376333271828954 -2.2053200547915672 1.4121470620719105 -5.970677602664267 7.7033725710895915 -2.1060741944951356 1.891745292998496 -1.4098165196993213 5.427109290266362" Properties=species:S:1:pos:R:3 unique_starting_index=126 config_type=initial n_minim_iter=10 stress="0.00014009751906721317 -0.00019520180588247253 5.507446530615191e-05 -0.00019520180588247253 -6.805541859541782e-06 3.148895566899761e-05 5.507446530615191e-05 3.148895566899761e-05 6.308342170933614e-05" pbc="T T T"
Si       3.39011369      -1.94254843       4.30131735
Si      -1.36849142       3.68701829       2.00614212
Si       1.00278137       1.27730766       2.86129381
Si       2.51802600       0.49190484       4.48448950
Si       6.57087731      -2.94361863       3.32363751
Si       1.77667200       2.66640668       1.03256977
Si       2.65780794       0.23522457       0.83960733
Si       4.15582947      -0.52174608       2.49236935
Si      -0.33840344       5.54878744      -0.78488312
Si       4.01865717       2.11937443       0.01391365
10
Lattice="6.378396844828199 -2.2008379737122263 1.4116700794831292 -5.970094379355604 7.694989438724722 -2.105351360868359 1.8912051326062684 -1.407265852175894 5.4299921863136404" Properties=species:S:1:pos:R:3 unique_starting_index=126 config_type=initial n_minim_iter=11 stress="0.00047504917373861156 0.00011190408923030705 0.0001570787879707797 0.00011190408923030705 -0.00023065643598118145 -3.3007442698887664e-05 0.0001570787879707797 -3.3007442698887664e-05 0.0006617308327589446" pbc="T T T"
Si       3.39130070      -1.93762398       4.30307244
Si      -1.37065582       3.68385792       2.00800643
Si       1.00456303       1.27750283       2.86397736
Si       2.52005151       0.49373513       4.48819211
Si       6.56981348      -2.93717940       3.32587447
Si       1.77871475       2.66591412       1.03378464
Si       2.65829629       0.23773604       0.84106989
Si       4.15741039      -0.52118302       2.49096670
Si      -0.33408604       5.54246069      -0.78769158
Si       4.02188996       2.11828405       0.01343956
10
Lattice="6.37611441697103 -2.204417010616068 1.41067918515906 -5.969850081142575 7.7020604328641955 -2.1038198070572802 1.8908551673353187 -1.4088190547114472 5.425835902794773" Properties=species:S:1:pos:R:3 unique_starting_index=126 config_type=initial n_minim_iter=12 stress="6.478617141932145e-05 -0.00023155848785897122 4.062419149483173e-05 -0.00023155848785897122 -3.948915058754699e-05 2.040988378357446e-05 4.062419149483173e-05 2.040988378357446e-05 5.373721072990585e-05" pbc="T T T"
Si       3.39165600      -1.93841932       4.29992063
Si      -1.37440087       3.68802255       2.00636679
Si       1.00418796       1.27804184       2.86208276
Si       2.52082644       0.49423636       4.48615478
Si       6.56517001      -2.93977538       3.32495375
Si       1.77742693       2.66657296       1.03295719
Si       2.65560410       0.23808732       0.84172800
Si       4.15619059      -0.52500117       2.48724897
Si      -0.33387690       5.54393028      -0.78902631
Si       4.01965691       2.11671634       0.01281395
10
Lattice="6.3728900815923355 -2.201900297533917 1.411064810963083 -5.963552488447163 7.702596353728244 -2.104613120444166 1.890019849217046 -1.4091451817381124 5.423764444325196" Properties=species:S:1:pos:R:3 unique_starting_index=126 config_type=initial n_minim_iter=13 stress="-0.00011619206210670608 0.00022916525479182566 -8.518242270560503e-05 0.00022916525479182566 6.051393676679421e-05 -2.3853361210360495e-05 -8.518242270560503e-05 -2.3853361210360495e-05 -0.00018774401314177984" pbc="T T T"
Si       3.39058147      -1.93750297       4.29855838
Si      -1.37276061       3.68813539       2.00482479
Si       1.00534286       1.27849883       2.86060451
Si       2.52125339       0.49602771       4.48475295
Si       6.56065190      -2.93769345       3.32506002
Si       1.77851734       2.67011880       1.03313924
Si       2.65409742       0.24044537       0.84199290
Si       4.15593464      -0.52405235       2.48558271
Si      -0.32984566       5.54549825      -0.79007142
Si       4.01945281       2.11984395       0.01261650
10
Lattice="6.371381059534133 -2.203526764272637 1.411631529652473 -5.963680751927245 7.704904033155397 -2.1037736710016937 1.8906111539867885 -1.408522764440537 5.4238522675135314" Properties=species:S:1:pos:R:3 unique_starting_index=126 config_type=initial n_minim_iter=14 stress="-5.358013487125514e-05 7.87794146818392e-05 -5.195633063264677e-05 7.87794146818392e-05 -1.6419625123406433e-06 -7.861762245723367e-05 -5.195633063264677e-05 -7.861762245723367e-05 -0.00012210538571431982" pbc="T T T"
Si       3.39204734      -1.93493447       4.29916427
Si      -1.37764470       3.68824469       2.00551050
Si       1.00587398       1.27766055       2.86097491
Si       2.52263919       0.49893327       4.48577118
Si       6.55768897      -2.93929796       3.32756897
Si       1.77738952       2.67329220       1.03601649
Si       2.65019449       0.24132794       0.84431970
Si       4.15884136      -0.52618609       2.48333548
Si      -0.32932577       5.54313976      -0.79027105
Si       4.01756791       2.11796890       0.01184218
10
Lattice="6.368918189649155 -2.2046723182053776 1.4120811914741653 -5.962862286298176 7.706413566825157 -2.1016242406892425 1.8909308480805338 -1.4064626452760076 5.425204934359996" Properties=species:S:1:pos:R:3 unique_starting_index=126 config_type=initial n_minim_iter=15 stress="1.5848236882113363e-05 -2.4971457772394e-05 4.3907715317397974e-06 -2.4971457772394e-05 4.473427043545478e-06 -5.727237817019743e-06 4.3907715317397974e-06 -5.727237817019743e-06 3.846685797586487e-06" pbc="T T T"
Si       3.39251795      -1.93142743       4.30064922
Si      -1.38185040       3.68985305       2.00779346
Si       1.00542671       1.27733830       2.86216336
Si       2.52371717       0.50309694       4.48771444
Si       6.55495431      -2.94012972       3.32987882
Si       1.77621374       2.67545186       1.03909237
Si       2.64630020       0.24148188       0.84716301
Si       4.16095168      -0.52683354       2.48228855
Si      -0.32948769       5.54116991      -0.78784537
Si       4.01517618       2.11617745       0.01142246
10
Lattice="6.365911518799168 -2.2054483403458094 1.412742996080487 -5.961312185951378 7.707234891085874 -2.09985243267147 1.8911208511873199 -1.4043648209674686 5.426923770701795" Properties=species:S:1:pos:R:3 unique_starting_index=126 config_type=initial n_minim_iter=16 stress="1.3699775043897254e-05 -3.837498049998622e-05 2.92701520946e-05 -3.837498049998622e-05 -1.3168122171533032e-05 4.0358026301017003e-05 2.92701520946e-05 4.0358026301017003e-05 0.00010364495772031195" pbc="T T T"
Si       3.39222758      -1.92762715       4.30218643
Si      -1.38544997       3.69147439       2.01027162
Si       1.00437220       1.27668192       2.86323498
Si       2.52475195       0.50779815       4.48984451
Si       6.55233382      -2.94095572       3.33220321
Si       1.77528340       2.67672179       1.04166353
Si       2.64287731       0.24096161       0.85104403
Si       4.16272898      -0.52694230       2.48082646
Si      -0.33002747       5.53938605      -0.78484823
Si       4.01236493       2.11453878       0.01120279
10
Lattice="6.367088796882839 -2.2056742505711107 1.4133016961687503 -5.96244593492476 7.70757688022617 -2.1012414279993785 1.8919452656918245 -1.4054439336287319 5.425472209300098" Properties=species:S:1:pos:R:3 unique_starting_index=126 config_type=initial n_minim_iter=17 stress="-1.6948550846903123e-05 2.5643922048714563e-05 -1.0677585259202588e-05 2.5643922048714563e-05 2.860242364009378e-05 1.5759457814465824e-05 -1.0677585259202588e-05 1.5759457814465824e-05 -8.7081621217412e-06" pbc="T T T"
Si       3.39301016      -1.92771777       4.30032633
Si      -1.38541331       3.69004016       2.00908529
Si       1.00478954       1.27581168       2.86198580
Si       2.52572222       0.50841593       4.48930691
Si       6.55305005      -2.94204454       3.33209468
Si       1.77607615       2.67679076       1.04117044
Si       2.64423739       0.24070315       0.85300699
Si       4.16410449      -0.52816448       2.47768066
Si      -0.33025356       5.53947444      -0.78644911
Si       4.01224711       2.11469053       0.01233315
10
Lattice="6.368040344446537 -2.2063188629171493 1.413812291092896 -5.964055807151789 7.70758513925284 -2.1022631525411315 1.8926542593492184 -1.406110265785683 5.425114872283058" Properties=species:S:1:pos:R:3 unique_starting_index=126 config_type=initial n_minim_iter=18 stress="2.103051363208011e-05 -6.245798498215758e-05 5.4939223280463106e-05 -6.245798498215758e-05 -3.7276180252108975e-05 -8.811480889800126e-05 5.4939223280463106e-05 -8.811480889800126e-05 -8.338098427087233e-05" pbc="T T T"
Si       3.39401915      -1.92717207       4.29991948
Si      -1.38636690       3.68914853       2.00872811
Si       1.00498442       1.27505713       2.86192315
Si       2.52618594       0.50891056       4.48883613
Si       6.55380692      -2.94342249       3.33207038
Si       1.77621075       2.67623579       1.04142397
Si       2.64354405       0.23976694       0.85302129
Si       4.16634102      -0.52965015       2.47706120
Si      -0.33076004       5.53882341      -0.78738896
Si       4.01201534       2.11380909       0.01294830
