24
Lattice="38.757274776500886 0.0 0.0 0.0 44.953609621550996 0.0 0.0 0.0 57.5480968662879" Properties=species:S:1:pos:R:3 unique_starting_index=110 config_type=initial n_minim_iter=1 energy=-3805.0792370400013 free_energy=-3805.0792370400013 pbc="T T T"
Si      35.70514860      10.90746365      49.28730134
Si       3.05212618      34.04614597      20.51325291
Si       3.05212618      10.90746365      37.03484396
Si      35.70514860      34.04614597       8.26079552
Si      10.87961331      25.69339695       8.65205205
Si      27.87766147      19.26021267      37.42610048
Si      27.87766147      25.69339695      20.12199638
Si      10.87961331      19.26021267      48.89604482
Si      20.52881011      14.38959929      51.17924547
Si      18.22846467      30.56401033      22.40519703
Si      18.22846467      14.38959929      35.14289983
Si      20.52881011      30.56401033       6.36885140
Si       5.09467746       4.96834596      51.13502596
Si      33.66259732      39.98526366      22.36097752
Si      33.66259732       4.96834596      35.18711934
Si       5.09467746      39.98526366       6.41307091
Si      11.19918631      10.05227617      56.44636249
Si      27.55808846      34.90133345      27.67231406
Si      27.55808846      10.05227617      29.87578281
Si      11.19918631      34.90133345       1.10173437
Si      24.78777811      38.59250869       3.77710239
Si      13.96949667       6.36110094      32.55115082
Si      13.96949667      38.59250869      24.99694604
Si      24.78777811       6.36110094      53.77099448
