6
Lattice="3.5420874405952514 1.719810528823621e-32 4.700441575330674e-32 -2.3933970672818187e-32 4.929392831532018 -1.895527542195593e-15 -7.709776390564254e-32 2.2340818037347688e-15 5.80981630877824" Properties=species:S:1:pos:R:3 unique_starting_index=136 config_type=initial n_minim_iter=1 energy=-975.716585906522 free_energy=-975.716585906522 pbc="T T T"
Si       1.77104372       0.00000000       5.26345357
Si      -0.00000000       2.46469642       1.07758561
Si       1.77104372       0.00000000       1.82732254
Si      -0.00000000       2.46469642       3.45127089
Si       1.77104372       2.46469642      -0.64126460
Si      -0.00000000       0.00000000       3.54617275
6
Lattice="3.542578779668176 1.716076287652455e-32 4.741997835724173e-32 -2.4050101301049977e-32 4.941923847277707 -1.9110881294131743e-15 -7.605136920910391e-32 2.210541055823551e-15 5.78152194023046" Properties=species:S:1:pos:R:3 unique_starting_index=136 config_type=initial n_minim_iter=2 stress="-0.0030898917277821583 2.3006600370984162e-17 -6.346382213338883e-17 2.3006600370984162e-17 -0.0006750106470727398 4.760639097697849e-17 -6.346382213338883e-17 4.760639097697849e-17 -0.00023656592385113236" pbc="T T T"
Si       1.77128939       0.00000000       5.23567293
Si      -0.00000000       2.47096192       1.07038347
Si       1.77128939       0.00000000       1.82037750
Si      -0.00000000       2.47096192       3.43660998
Si       1.77128939       2.47096192      -0.63882714
Si      -0.00000000       0.00000000       3.52958811
6
Lattice="3.609959227672142 1.7256637117266052e-32 5.101394502254678e-32 -2.475820173662684e-32 5.021476647392956 -1.883391202578098e-15 -6.99667069491553e-32 2.2314939306590227e-15 5.6575526432420995" Properties=species:S:1:pos:R:3 unique_starting_index=136 config_type=initial n_minim_iter=3 stress="-0.002182576471082667 -5.0393208264965704e-17 -7.911493791124884e-17 -5.0393208264965704e-17 0.005889551927607148 1.719488419136419e-17 -7.911493791124884e-17 1.719488419136419e-17 -0.005301021676483268" pbc="T T T"
Si       1.80497961       0.00000000       5.10454834
Si      -0.00000000       2.51073832       1.02998339
Si       1.80497961       0.00000000       1.79879293
Si      -0.00000000       2.51073832       3.38178062
Si       1.80497961       2.51073832      -0.63079537
Si      -0.00000000       0.00000000       3.45957169
6
Lattice="3.6267654498382265 1.746231511443085e-32 5.318000631402886e-32 -2.439656569533243e-32 4.9826984953073685 -1.864373309017082e-15 -6.677463319134724e-32 2.2360850863349527e-15 5.6582735741894465" Properties=species:S:1:pos:R:3 unique_starting_index=136 config_type=initial n_minim_iter=4 stress="-0.0010897185585364302 3.602092314452487e-17 -2.4907220755386307e-18 3.602092314452487e-17 -0.0023705797101408453 5.988664504537647e-17 -2.4907220755386307e-18 5.988664504537647e-17 -0.002945977134736866" pbc="T T T"
Si       1.81338272       0.00000000       5.09692946
Si      -0.00000000       2.49134925       1.02035072
Si       1.81338272       0.00000000       1.80878607
Si      -0.00000000       2.49134925       3.39048090
Si       1.81338272       2.49134925      -0.63189302
Si      -0.00000000       0.00000000       3.46102981
6
Lattice="3.6326866408239313 1.7428319418952417e-32 5.42009639719429e-32 -2.4554144806577884e-32 4.997161257152572 -1.7378050675201375e-15 -6.538651735035518e-32 2.3963725266854367e-15 5.669954968921469" Properties=species:S:1:pos:R:3 unique_starting_index=136 config_type=initial n_minim_iter=5 stress="0.0005870585348829021 -4.864154052430469e-17 1.7150907821955735e-17 -4.864154052430469e-17 0.00040940320819995556 -4.50951760443493e-17 1.7150907821955735e-17 -4.50951760443493e-17 0.0012837607020593437" pbc="T T T"
Si       1.81634332       0.00000000       5.10553660
Si      -0.00000000       2.49858063       1.01906676
Si       1.81634332       0.00000000       1.81591072
Si      -0.00000000       2.49858063       3.39939586
Si       1.81634332       2.49858063      -0.63318773
Si      -0.00000000       0.00000000       3.46816521
6
Lattice="3.636068740491178 1.7422156113194918e-32 5.544741387250565e-32 -2.4595696709990564e-32 4.9992470438134085 -1.7085321061272463e-15 -6.326163585940888e-32 2.4284405448535523e-15 5.659963688455316" Properties=species:S:1:pos:R:3 unique_starting_index=136 config_type=initial n_minim_iter=6 stress="0.0002110148936452628 1.98459293808952e-17 -1.3252642215450932e-17 1.98459293808952e-17 0.00012582559972768395 -4.123071649661588e-17 -1.3252642215450932e-17 -4.123071649661588e-17 0.00020853592827720639" pbc="T T T"
Si       1.81803437       0.00000000       5.09577001
Si      -0.00000000       2.49962352       1.01532811
Si       1.81803437       0.00000000       1.81465373
Si      -0.00000000       2.49962352       3.39417553
Si       1.81803437       2.49962352      -0.63201218
Si      -0.00000000       0.00000000       3.46199402
6
Lattice="3.6361559537471755 1.739817090150787e-32 5.7523338969552e-32 -2.4624754494676714e-32 4.998234600995411 -1.698138630967698e-15 -5.967811434095919e-32 2.4362540188462315e-15 5.648092263545063" Properties=species:S:1:pos:R:3 unique_starting_index=136 config_type=initial n_minim_iter=7 stress="-0.0014893261453698843 -8.016636978416574e-18 6.194236006497788e-17 -8.016636978416574e-18 -0.0009115019532481952 -9.449286622187499e-17 6.194236006497788e-17 -9.449286622187499e-17 -0.0016918873310829737" pbc="T T T"
Si       1.81807798       0.00000000       5.08748580
Si      -0.00000000       2.49911730       1.00791706
Si       1.81807798       0.00000000       1.81612908
Si      -0.00000000       2.49911730       3.38465259
Si       1.81807798       2.49911730      -0.62849855
Si      -0.00000000       0.00000000       3.45254468
6
Lattice="3.64615014381314 1.738888650425599e-32 5.964827438652808e-32 -2.4744860825783506e-32 5.0063875861405815 -1.508878567065087e-15 -5.634228502564964e-32 2.663004970587136e-15 5.646342319632396" Properties=species:S:1:pos:R:3 unique_starting_index=136 config_type=initial n_minim_iter=8 stress="0.00022263286917161422 -2.5026512092237095e-17 1.0376381256183807e-16 -2.5026512092237095e-17 0.000356638876997858 6.645373340845236e-17 1.0376381256183807e-16 6.645373340845236e-17 -7.602837430099663e-05" pbc="T T T"
Si       1.82307507       0.00000000       5.09139625
Si      -0.00000000       2.50319379       1.00037614
Si       1.82307507       0.00000000       1.82279502
Si      -0.00000000       2.50319379       3.37811723
Si       1.82307507       2.50319379      -0.62525875
Si      -0.00000000       0.00000000       3.44842991
6
Lattice="3.6429217523382915 1.7365545907168578e-32 6.070801872333577e-32 -2.473738365855524e-32 5.002653128769318 -1.4846938926694747e-15 -5.463316308612505e-32 2.6909375196714445e-15 5.651489883628153" Properties=species:S:1:pos:R:3 unique_starting_index=136 config_type=initial n_minim_iter=9 stress="6.527365614643778e-05 -7.604357769705533e-17 -4.110932683314102e-17 -7.604357769705533e-17 0.00010399583681977796 -6.944427721036413e-19 -4.110932683314102e-17 -6.944427721036413e-19 0.00011799402928995122" pbc="T T T"
Si       1.82146088       0.00000000       5.09794919
Si      -0.00000000       2.50132656       1.00172527
Si       1.82146088       0.00000000       1.82401967
Si      -0.00000000       2.50132656       3.37928563
Si       1.82146088       2.50132656      -0.62585594
Si      -0.00000000       0.00000000       3.45160088
6
Lattice="3.6367021678453773 1.733934069047423e-32 6.223561642243161e-32 -2.467617476368145e-32 4.991174261260986 -1.3526902277836273e-15 -5.221578595106998e-32 2.842891586497621e-15 5.662718923693342" Properties=species:S:1:pos:R:3 unique_starting_index=136 config_type=initial n_minim_iter=10 stress="-0.00013342623005351722 -1.047083468424456e-17 -3.4182217005492135e-17 -1.047083468424456e-17 -0.0008772936860932528 8.853262482058677e-17 -3.4182217005492135e-17 8.853262482058677e-17 0.00035822278854260946" pbc="T T T"
Si       1.81835108       0.00000000       5.11744976
Si      -0.00000000       2.49558713       1.00089837
Si       1.81835108       0.00000000       1.83046109
Si      -0.00000000       2.49558713       3.37662862
Si       1.81835108       2.49558713      -0.63020317
Si      -0.00000000       0.00000000       3.46156263
6
Lattice="3.6581979004503697 1.736004217585733e-32 6.481062141868166e-32 -2.482802413808934e-32 4.998277303605436 -1.3292791241669332e-15 -4.794988654819912e-32 2.869310886593857e-15 5.641670975589233" Properties=species:S:1:pos:R:3 unique_starting_index=136 config_type=initial n_minim_iter=11 stress="-0.00012743187909650174 -1.1788057737546623e-17 -1.6204775434718325e-17 -1.1788057737546623e-17 0.0002853020522246081 7.082861826679968e-17 -1.6204775434718325e-17 7.082861826679968e-17 -0.00019911191383909828" pbc="T T T"
Si       1.82909895       0.00000000       5.15140089
Si      -0.00000000       2.49913865       0.94067784
Si       1.82909895       0.00000000       1.88015764
Si      -0.00000000       2.49913865       3.31110558
Si       1.82909895       2.49913865      -0.67545797
Si      -0.00000000       0.00000000       3.49629346
6
Lattice="3.669875982368858 1.7381516076292292e-32 6.610067999625224e-32 -2.487137966640012e-32 4.996921657445147 -1.3823460925968869e-15 -4.58604212216256e-32 2.8038453036373383e-15 5.633713302061466" Properties=species:S:1:pos:R:3 unique_starting_index=136 config_type=initial n_minim_iter=12 stress="-0.0002764604331547643 6.808276739819556e-18 2.0044488096390105e-19 6.808276739819556e-18 0.00027327634774957775 -7.342654574165766e-17 2.0044488096390105e-19 -7.342654574165766e-17 -0.0005246207437419237" pbc="T T T"
Si       1.83493799       0.00000000       5.17172228
Si      -0.00000000       2.49846083       0.90918326
Si       1.83493799       0.00000000       1.90767339
Si      -0.00000000       2.49846083       3.27884767
Si       1.83493799       2.49846083      -0.69797894
Si      -0.00000000       0.00000000       3.51483560
