12
Lattice="6.104338358635596 0.5934211195839036 -1.9519828944664468 1.93910697513959 3.5553220175343956 0.5678747913269387 -1.6416711952117613 1.7725643929994213 12.140281927544198" Properties=species:S:1:pos:R:3 unique_starting_index=158 config_type=initial n_minim_iter=1 energy=-1954.3030512538048 free_energy=-1954.3030512538048 pbc="T T T"
Si       6.11916521       2.98388613       4.78709543
Si       0.96144489       3.56071936      11.34803421
Si       2.03973621       3.35620086       0.94112281
Si       6.19161301       3.78749114       0.42284400
Si       3.94015594       2.95567119       6.78749014
Si       1.85959114       2.46498751       8.17535666
Si       1.84959387       4.57937662       9.37577097
Si       2.76923217       1.22333688       3.62424230
Si       3.68080721       3.21359389       2.58229447
Si       0.80417665       1.02314925       4.96002613
Si       4.77346279       3.85677320       8.85014125
Si       5.19038571       1.78617034       1.42838442
12
Lattice="6.056330012946107 0.5782469619007803 -1.9011606270925172 1.9225170777181513 3.551271442891892 0.5753070320121936 -1.5572987811896342 1.7702691500482062 12.060753729055454" Properties=species:S:1:pos:R:3 unique_starting_index=158 config_type=initial n_minim_iter=2 stress="-0.0021357174939956865 -0.0004100907967014365 0.0022906531148807405 -0.0004100907967014365 -0.003572427190076507 0.00033725783516441146 0.0022906531148807405 0.00033725783516441146 -0.002861973227039599" pbc="T T T"
Si       6.11101344       2.96553591       4.79664430
Si       1.02191830       3.55386507      11.28959172
Si       2.02176094       3.35224449       0.94590835
Si       6.15028831       3.77028545       0.45831325
Si       3.95292437       2.93953979       6.77610119
Si       1.89775828       2.45855143       8.14066536
Si       1.88607194       4.56879389       9.33305181
Si       2.77306684       1.21672714       3.61986649
Si       3.67069977       3.20086232       2.59254016
Si       0.83283594       1.01843914       4.93730885
Si       4.79538243       3.83923825       8.83146613
Si       5.16830845       1.77377884       1.45282849
12
Lattice="6.055070907306486 0.5767651867667989 -1.9029032569573092 1.916189664357241 3.5889982154541538 0.5714455818728487 -1.5531250956806233 1.7725649987811252 12.085628699039674" Properties=species:S:1:pos:R:3 unique_starting_index=158 config_type=initial n_minim_iter=3 stress="0.0039714550095429554 -0.0037368354839100643 0.004212621493192684 -0.0037368354839100643 0.00809860985071184 -0.0012386219362362676 0.004212621493192684 -0.0012386219362362676 0.003401630770739476" pbc="T T T"
Si       6.11457236       2.98229630       4.79974739
Si       1.02490149       3.57622043      11.31438699
Si       2.00619543       3.38892313       0.93954198
Si       6.14334350       3.79790071       0.45474837
Si       3.94550610       2.94724372       6.79550807
Si       1.90151108       2.47773036       8.15720995
Si       1.87462275       4.59749738       9.34807502
Si       2.77062080       1.22697721       3.62199602
Si       3.67119058       3.22042644       2.60221229
Si       0.84209114       1.01896757       4.94907677
Si       4.79459085       3.85786479       8.85316581
Si       5.17339679       1.78699719       1.45374471
12
Lattice="6.010226406348326 0.623044390353335 -1.9664104388932468 1.911151911066213 3.6195487578374768 0.5437107728664897 -1.6641392613386568 1.7615978804440722 12.050365147094602" Properties=species:S:1:pos:R:3 unique_starting_index=158 config_type=initial n_minim_iter=4 stress="-0.007837964034030582 -0.00022372509272282378 -0.003594769564557761 -0.00022372509272282378 0.0055630071293149945 -0.0010599625230004078 -0.003594769564557761 -0.0010599625230004078 -0.004124335825816102" pbc="T T T"
Si       6.02181756       3.04402234       4.68358441
Si       0.91298892       3.59904960      11.26199301
Si       1.96719373       3.42550824       0.89856544
Si       6.08721498       3.84641387       0.37306459
Si       3.81857370       2.96207782       6.73533478
Si       1.80931757       2.52064302       8.09823716
Si       1.74696674       4.61020815       9.28011770
Si       2.69775600       1.27104149       3.55364413
Si       3.63128935       3.23850032       2.56449801
Si       0.80462175       1.02201837       4.92106667
Si       4.65971304       3.89866937       8.76885822
Si       5.12855480       1.84545766       1.37667130
12
Lattice="6.059043630173924 0.63581271484232 -1.9673020980500726 1.9399476788929535 3.5950449067041528 0.5548210309259676 -1.656805900977396 1.76080670699806 12.1080654274723" Properties=species:S:1:pos:R:3 unique_starting_index=158 config_type=initial n_minim_iter=5 stress="-0.00022881658481497538 0.0018451896337788277 0.0007670305885418225 0.0018451896337788277 -0.0004668326816708938 0.0008733446900186356 0.0007670305885418225 0.0008733446900186356 -0.0005594656226193815" pbc="T T T"
Si       6.09321947       3.05144204       4.70777966
Si       0.95086172       3.59343307      11.32771903
Si       1.98480214       3.40652679       0.90693410
Si       6.14871022       3.82992721       0.38783821
Si       3.85728666       2.95123738       6.78533664
Si       1.84770471       2.52680025       8.14408044
Si       1.77609603       4.58553151       9.33196156
Si       2.72701245       1.28306193       3.56725330
Si       3.67985734       3.21805726       2.59346114
Si       0.83372897       1.02263826       4.94975862
Si       4.71921933       3.89465846       8.82881596
Si       5.18731422       1.85590067       1.38716299
12
Lattice="6.083488455630057 0.5880979419266903 -2.0028992096793545 1.914368042483395 3.5514019334745286 0.5345388530523357 -1.7301039331357337 1.7148563626600892 12.15015747163585" Properties=species:S:1:pos:R:3 unique_starting_index=158 config_type=initial n_minim_iter=6 stress="0.003195756313281043 -0.003534734584225358 -0.0012543065435547817 -0.003534734584225358 -0.0021205834596694966 -0.0022171053773232282 -0.0012543065435547817 -0.0022171053773232282 -0.0008123589633415978" pbc="T T T"
Si       6.07650256       2.96727116       4.67678516
Si       0.87449574       3.52105812      11.35308833
Si       1.95450297       3.36347387       0.89400208
Si       6.13869193       3.75038105       0.35047242
Si       3.80239796       2.86138912       6.79374095
Si       1.80012180       2.45931932       8.15370727
Si       1.69105767       4.50452425       9.33402288
Si       2.70938018       1.23325676       3.55729419
Si       3.65414320       3.15211901       2.56909920
Si       0.82477576       0.98930676       4.95868628
Si       4.65876324       3.79569059       8.82982006
Si       5.19206535       1.79286581       1.35549833
12
Lattice="6.063738382536158 0.5853947072918502 -2.024753325606598 1.9077703957007244 3.551182435124892 0.5447409159912073 -1.7353561982365482 1.737566559205535 12.262401676002812" Properties=species:S:1:pos:R:3 unique_starting_index=158 config_type=initial n_minim_iter=7 stress="0.001002407039445096 -0.0029714925540108117 -0.00016382188953872458 -0.0029714925540108117 -3.9293782332461086e-05 0.00010045643997082617 -0.00016382188953872458 0.00010045643997082617 0.003979414969687477" pbc="T T T"
Si       6.06305311       2.98704962       4.70500610
Si       0.86062143       3.54940662      11.46492068
Si       1.94118592       3.36551270       0.91787189
Si       6.12041951       3.75351632       0.35852580
Si       3.76116721       2.85875422       6.87600270
Si       1.78875134       2.46858384       8.22797324
Si       1.65787757       4.52882938       9.41710974
Si       2.69578975       1.23149778       3.58258966
Si       3.63887862       3.15376445       2.58248513
Si       0.84485907       0.99968529       5.00175345
Si       4.62536285       3.81699297       8.92168490
Si       5.18404632       1.79410387       1.35963869
12
Lattice="6.082390533789861 0.6171057492213717 -2.033025582598666 1.9271419209171863 3.5623531781816675 0.5348358206573457 -1.7483677929852302 1.7092171221665342 12.251432336083951" Properties=species:S:1:pos:R:3 unique_starting_index=158 config_type=initial n_minim_iter=8 stress="0.00020048327358043237 -0.000480476509616584 0.0004404255638852589 -0.000480476509616584 0.0007992026250116446 -0.001849061480166609 0.0004404255638852589 -0.001849061480166609 0.0032015228057442513" pbc="T T T"
Si       6.10052740       3.01952781       4.66809589
Si       0.86201621       3.54620732      11.45365462
Si       1.95226815       3.37764810       0.91982780
Si       6.15381287       3.78862666       0.34542164
Si       3.74640527       2.84824449       6.88450322
Si       1.79237165       2.45857956       8.21440433
Si       1.64461549       4.53303653       9.38957498
Si       2.70278178       1.22738926       3.56350677
Si       3.65838458       3.16473962       2.55296957
Si       0.87597852       0.99738425       4.99251399
Si       4.62921733       3.82856695       8.91369238
Si       5.21601129       1.81452128       1.34238695
12
Lattice="6.117307830976276 0.6145587479606156 -2.037818997420065 1.9395376785271212 3.5722564200710343 0.5479577523095498 -1.7885397946708688 1.7818647190340717 12.20938175217738" Properties=species:S:1:pos:R:3 unique_starting_index=158 config_type=initial n_minim_iter=9 stress="-0.00019309192406124392 -0.00048747531063299965 -0.00048783570999630794 -0.00048747531063299965 0.0008381220151549223 0.0029307440751467216 -0.00048783570999630794 0.0029307440751467216 -4.40972973468044e-05" pbc="T T T"
Si       6.14112317       3.06813018       4.62712778
Si       0.83652488       3.63076302      11.42306150
Si       1.95724745       3.39237924       0.94140795
Si       6.19036248       3.80942261       0.35192413
Si       3.72124099       2.88212204       6.88357548
Si       1.77613392       2.50788263       8.18822768
Si       1.60614695       4.60772961       9.35801712
Si       2.71058034       1.24240337       3.53240409
Si       3.67434181       3.18329230       2.53137966
Si       0.89835362       1.03187059       4.96996867
Si       4.62052536       3.89308728       8.89748218
Si       5.25548284       1.82956765       1.33004539
12
Lattice="6.14236412609958 0.6638528466167829 -2.03431195317542 1.9702829949870937 3.577356255991962 0.5299613712486109 -1.7747887700151261 1.7053723643484284 12.183628174322841" Properties=species:S:1:pos:R:3 unique_starting_index=158 config_type=initial n_minim_iter=10 stress="-0.0012102545773075527 0.004242975570561682 0.00019628939534164762 0.004242975570561682 -0.00042419538338743843 -0.002809555698344629 0.00019628939534164762 -0.002809555698344629 -0.0023237722574259326" pbc="T T T"
Si       6.21867016       3.08130483       4.58728180
Si       0.86142572       3.58539943      11.39140464
Si       1.98525754       3.39744478       0.93618604
Si       6.24272720       3.85665206       0.34135213
Si       3.73123885       2.85747448       6.89025023
Si       1.78317326       2.46847579       8.18004058
Si       1.61757043       4.58358349       9.30607781
Si       2.74373692       1.22113517       3.49947360
Si       3.71673814       3.18195046       2.48743135
Si       0.93942562       1.01582691       4.95481914
Si       4.66011169       3.86694341       8.89112812
Si       5.30616646       1.84892615       1.33435734
12
Lattice="6.137277095758229 0.598084769973032 -2.02769795918096 1.9421837962712483 3.5503668529508343 0.5568017540775283 -1.7631211504818052 1.7785137044373742 12.256660515801352" Properties=species:S:1:pos:R:3 unique_starting_index=158 config_type=initial n_minim_iter=11 stress="0.0011264622235437067 -0.0003847953006677276 0.0004391529117530555 -0.0003847953006677276 -0.0011008253632558626 0.0003475403503182173 0.0004391529117530555 0.0003475403503182173 -0.002740942071720317" pbc="T T T"
Si       6.24195139       3.02288640       4.62959218
Si       0.83687926       3.63118056      11.46508651
Si       1.96537731       3.37347425       0.96498596
Si       6.21671982       3.81203004       0.38618029
Si       3.71672216       2.87000905       6.96565839
Si       1.73359947       2.48999521       8.27825004
Si       1.57494345       4.62465895       9.36544119
Si       2.76946737       1.19231883       3.49452743
Si       3.71363111       3.13858173       2.50733457
Si       0.94440116       1.03159584       4.98178989
Si       4.65402797       3.84221074       8.99455594
Si       5.31422309       1.79908267       1.39852109
12
Lattice="6.109574605378931 0.5857559867672695 -2.0732691386709274 1.9229037576379313 3.5402016356802037 0.5566508699420941 -1.798726930754666 1.7758306568885824 12.415821870083015" Properties=species:S:1:pos:R:3 unique_starting_index=158 config_type=initial n_minim_iter=12 stress="2.4450442789416628e-05 -0.00029405258192794284 -0.00034633465780234635 -0.00029405258192794284 5.603987827967103e-05 -9.889696406362544e-05 -0.00034633465780234635 -9.889696406362544e-05 0.003026945620246454" pbc="T T T"
Si       6.20962215       3.00876951       4.63956703
Si       0.78377673       3.62949747      11.60844188
Si       1.93389114       3.36175284       0.97412601
Si       6.17521845       3.80068329       0.37626947
Si       3.64089756       2.85171502       7.06855989
Si       1.67758805       2.48309531       8.39679340
Si       1.49013382       4.61919613       9.46443178
Si       2.74572728       1.17302888       3.50441570
Si       3.69009837       3.11182685       2.52075863
Si       0.95461843       1.02285713       5.03386219
Si       4.58283244       3.82482972       9.10566071
Si       5.29805742       1.78790486       1.39793372
12
Lattice="6.078498638236405 0.574996211664204 -2.0587377528141984 1.909923784532298 3.562132575902559 0.5689676877315935 -1.7731219574455321 1.8228285906132786 12.403440480946742" Properties=species:S:1:pos:R:3 unique_starting_index=158 config_type=initial n_minim_iter=13 stress="-0.0014143133955124903 6.86883038367636e-05 -0.0002522929101575571 6.86883038367636e-05 0.0020437597151502364 -0.0003462932560502656 -0.0002522929101575571 -0.0003462932560502656 0.002660660032104712" pbc="T T T"
Si       6.18947097       3.02500558       4.63399197
Si       0.79387680       3.68167317      11.59804688
Si       1.93141906       3.36442017       0.98460750
Si       6.14307914       3.83560190       0.41045275
Si       3.63285765       2.92519462       7.08351133
Si       1.64763673       2.51068405       8.44254277
Si       1.47463000       4.68259093       9.46760850
Si       2.74598330       1.15677910       3.49735868
Si       3.68500491       3.13062634       2.53522426
Si       0.97292423       1.02666233       5.01462019
Si       4.56766401       3.87774129       9.10163331
Si       5.27840298       1.79623970       1.41058987
12
Lattice="6.093359401234842 0.5738818469146876 -2.0552978757927867 1.9146797740981991 3.565289447637004 0.5710667946493188 -1.784105902683419 1.8412177593427184 12.366797483531727" Properties=species:S:1:pos:R:3 unique_starting_index=158 config_type=initial n_minim_iter=14 stress="0.00024211615804785837 1.6938491566823517e-05 -0.0002013921839700757 1.6938491566823517e-05 0.0004226858267107501 0.0001428591941769859 -0.0002013921839700757 0.0001428591941769859 0.00031947625445067425" pbc="T T T"
Si       6.21415547       3.03393429       4.60192487
Si       0.79082567       3.70445754      11.56644029
Si       1.93332105       3.36324697       0.98354021
Si       6.15840586       3.84506469       0.41521296
Si       3.62532625       2.94550586       7.07783171
Si       1.63283092       2.52419779       8.43539479
Si       1.45379079       4.70301953       9.43938636
Si       2.75513502       1.15474934       3.47286802
Si       3.69870481       3.12775519       2.52846060
Si       0.98881976       1.03005438       4.99353715
Si       4.56831849       3.89778921       9.07844038
Si       5.29964481       1.80422306       1.40247381
12
Lattice="6.0899788314630445 0.5730410483989847 -2.046751685586878 1.9140907360002646 3.5689346490398424 0.5727363182761341 -1.7778271471865477 1.8508037935038586 12.334114630599942" Properties=species:S:1:pos:R:3 unique_starting_index=158 config_type=initial n_minim_iter=15 stress="0.00025841020212755426 4.6381657357198496e-05 0.0006647361865110387 4.6381657357198496e-05 -0.0019151253330076017 -3.654445099195947e-05 0.0006647361865110387 -3.654445099195947e-05 -0.0025162845303618162" pbc="T T T"
Si       6.22975846       3.03437977       4.57699342
Si       0.80028319       3.71673730      11.54218687
Si       1.93415230       3.36035955       0.97607443
Si       6.15979715       3.85179086       0.42167971
Si       3.61627407       2.96581157       7.08074136
Si       1.61587285       2.52949092       8.43439371
Si       1.43769110       4.71555904       9.41949761
Si       2.76479770       1.15315749       3.45381786
Si       3.70086588       3.11718168       2.52693538
Si       0.99947368       1.02950001       4.97587886
Si       4.56643594       3.91737963       9.06173839
Si       5.30644971       1.81545387       1.39453180
12
Lattice="6.081014928117265 0.5666533590965855 -2.060517930410685 1.90681798535578 3.572508829062221 0.5756233448589416 -1.7854781273473441 1.8599546614574503 12.396850348680614" Properties=species:S:1:pos:R:3 unique_starting_index=158 config_type=initial n_minim_iter=16 stress="0.0006295386807476111 3.4648481054320107e-06 -0.0006861333494467424 3.4648481054320107e-06 0.0007858456216940827 0.00023148766760239383 -0.0006861333494467424 0.00023148766760239383 0.0004570496657141197" pbc="T T T"
Si       6.22424644       3.02951053       4.59433410
Si       0.79238673       3.72257303      11.60563235
Si       1.93776359       3.36195618       0.97415378
Si       6.15607013       3.85023994       0.41607873
Si       3.59713066       2.97602337       7.12776475
Si       1.58866807       2.52431032       8.47769152
Si       1.41835887       4.72713030       9.47460046
Si       2.76679830       1.14855134       3.47317554
Si       3.67976501       3.11118629       2.53084761
Si       0.98488581       1.03278965       4.99761589
Si       4.54733092       3.93772129       9.10960551
Si       5.29397171       1.81932890       1.38631318
12
Lattice="6.053314042382759 0.5606721877746875 -2.0504916377467737 1.897113459897565 3.5652255864354214 0.5785560319218811 -1.7504541735038488 1.8476338968806971 12.422409439717505" Properties=species:S:1:pos:R:3 unique_starting_index=158 config_type=initial n_minim_iter=17 stress="-0.0018825949321220627 0.0001058521570981365 0.001275356846092651 0.0001058521570981365 -0.0003314972895372135 -0.00042902817573251575 0.001275356846092651 -0.00042902817573251575 0.00023345326114316178" pbc="T T T"
Si       6.21086912       3.01128881       4.62112888
Si       0.81807096       3.69959704      11.63484914
Si       1.93507846       3.35625115       0.96820010
Si       6.13918542       3.83604597       0.42054347
Si       3.60134397       2.97104316       7.15441124
Si       1.58722762       2.51301318       8.50601792
Si       1.43059530       4.70540336       9.50766310
Si       2.76614767       1.13281118       3.49435540
Si       3.66866467       3.10052307       2.54607678
Si       0.98015106       1.02176817       5.00729277
Si       4.55408516       3.92545449       9.14461822
Si       5.27294011       1.81469494       1.39578177
12
Lattice="6.073592186674051 0.5553784176097151 -2.062833948773475 1.8994177396388867 3.559873515128363 0.5772232973694539 -1.778287617972113 1.8524476102991658 12.435454905399457" Properties=species:S:1:pos:R:3 unique_starting_index=158 config_type=initial n_minim_iter=18 stress="0.0004044603839741448 -3.788727777788276e-05 -4.7017134238372135e-05 -3.788727777788276e-05 -0.00012256129409802743 6.368033080753481e-05 -4.7017134238372135e-05 6.368033080753481e-05 -5.6111313752504675e-05" pbc="T T T"
Si       6.23224857       3.00932211       4.60286657
Si       0.80284673       3.69912265      11.64706263
Si       1.93895016       3.35603296       0.96138475
Si       6.16688169       3.82889385       0.40119251
Si       3.58370689       2.97109929       7.17237932
Si       1.55594917       2.51621140       8.51937656
Si       1.39623722       4.70206677       9.52137898
Si       2.76871386       1.11465928       3.49034971
Si       3.67585910       3.09280208       2.53646560
Si       0.97866001       1.01639098       5.00223414
Si       4.54917568       3.93061826       9.15935338
Si       5.29128975       1.81495357       1.37856528
12
Lattice="6.060203546462157 0.5512440286713205 -2.066863223673788 1.8925616510951093 3.5608212354056517 0.578073574404253 -1.7767357880968027 1.8544659749954302 12.45847554451082" Properties=species:S:1:pos:R:3 unique_starting_index=158 config_type=initial n_minim_iter=19 stress="-0.0009004790838112629 0.0002544149324734054 -3.087757328641644e-05 0.0002544149324734054 0.0006386565310858451 -1.772762540461226e-05 -3.087757328641644e-05 -1.772762540461226e-05 7.582457609473013e-05" pbc="T T T"
Si       6.22671803       3.00699745       4.59855995
Si       0.80097680       3.69999907      11.66836245
Si       1.93806927       3.35676484       0.96467369
Si       6.15670517       3.83016324       0.39675135
Si       3.56488520       2.97496972       7.19662413
Si       1.53428172       2.51792158       8.54543530
Si       1.37356499       4.70741068       9.54683068
Si       2.76188883       1.10675555       3.48910234
Si       3.66936894       3.08475524       2.53483324
Si       0.97922709       1.00694534       5.00886373
Si       4.53553491       3.93702330       9.18081064
Si       5.28398223       1.81366252       1.37837207
12
Lattice="6.065041340831636 0.5457291336627432 -2.0686765597089782 1.8908054183713048 3.5500393045131444 0.5750700185657709 -1.7797589887237373 1.8402436536147453 12.465052200224006" Properties=species:S:1:pos:R:3 unique_starting_index=158 config_type=initial n_minim_iter=20 stress="-0.000449163953352187 1.9410460225003976e-05 -0.00028776381019186706 1.9410460225003976e-05 1.6011898368691686e-05 -2.1378461433986782e-05 -0.00028776381019186706 -2.1378461433986782e-05 -0.0005772182837968084" pbc="T T T"
Si       6.22904339       2.99326816       4.59725020
Si       0.80331074       3.67664888      11.67248669
Si       1.94425768       3.35013138       0.96400098
Si       6.16202988       3.81149764       0.38480530
Si       3.56575152       2.95507544       7.19682290
Si       1.53029102       2.50713281       8.54360423
Si       1.37011169       4.68457443       9.56385464
Si       2.75571513       1.10250237       3.49193845
Si       3.67100279       3.06944930       2.53142034
Si       0.97110663       0.98952825       5.01536264
Si       4.53937890       3.91990355       9.18279697
Si       5.28583857       1.80173433       1.37531247
12
Lattice="6.069097808173311 0.5393057994575715 -2.069605076762082 1.8900361179689622 3.5403397962079888 0.5776552952184666 -1.7740270602437993 1.8363897257094997 12.496825145948725" Properties=species:S:1:pos:R:3 unique_starting_index=158 config_type=initial n_minim_iter=21 stress="0.0009437278469722303 -0.0002141710606806116 0.0003723874112587709 -0.0002141710606806116 -0.0003260810223316561 1.3061115147514719e-06 0.0003723874112587709 1.3061115147514719e-06 0.0008837242516896926" pbc="T T T"
Si       6.23772772       2.98500120       4.60853347
Si       0.80869447       3.66817644      11.70491193
Si       1.94787738       3.34169650       0.96795824
Si       6.16458645       3.79763854       0.39120720
Si       3.56961106       2.94318492       7.22107772
Si       1.53051420       2.50059460       8.56848389
Si       1.37292126       4.67536741       9.59395598
Si       2.75766022       1.09515086       3.50006512
Si       3.67753358       3.05793251       2.53849677
Si       0.97571504       0.98105988       5.02895715
Si       4.54708172       3.90661064       9.21035163
Si       5.29349054       1.78941773       1.38418307
