14
Lattice="12.548323942612102 -1.9174150951266891e-31 1.2945139581222968e-46 8.819452614224349e-32 5.764347293598282 -2.0377133238979593e-15 -1.8331775782804587e-47 1.3274969113476676e-15 3.7439758860124566" Properties=species:S:1:pos:R:3 unique_starting_index=130 config_type=initial n_minim_iter=14 energy=-2280.0588242997806 free_energy=-2280.0588242997806 pbc="T T T"
Si       2.00805394       1.73939018       4.02959882
Si      10.54027001       4.62156383      -0.28562293
Si      10.54027001       1.14278347       4.02959882
Si       2.00805394       4.02495711      -0.28562293
Si       5.34886875       2.17393932       2.78460396
Si       7.19945519       5.05611296       0.95937193
Si       7.19945519       0.70823433       2.78460396
Si       5.34886875       3.59040798       0.95937193
Si       9.25262038       1.75882591       2.17802536
Si       3.29570356       4.64099955       1.56595053
Si       3.29570356       1.12334774       2.17802536
Si       9.25262038       4.00552139       1.56595053
Si      12.54832394       4.32326047       2.19685640
Si      -0.00000000       1.44108682       1.54711949
