14
Lattice="8.071835437609348 0.10815150439092655 2.4983975325861008 0.34420561171541386 8.727976271653738 -1.3286188111371917 -1.9945997414674272 -1.1109414129293078 6.824022792557568" Properties=species:S:1:pos:R:3 unique_starting_index=20 config_type=initial n_minim_iter=1 energy=-2276.196637080705 free_energy=-2276.196637080705 pbc="T T T"
Si       5.45531201       4.04312055       8.09521372
Si       6.74811463       2.75287432       2.29716675
Si       0.96612930       3.68206581      -0.10141221
Si      -0.32667332       4.97231204       5.69663476
Si       5.89410043       5.55542566       5.11408133
Si       6.50510504       3.21234986       4.61153374
Si       0.52734087       2.16976070       2.87972019
Si      -0.08366373       4.51283650       3.38226777
Si       1.77580366       4.10565290       2.03254271
Si       0.64890701       2.78705582       5.15604004
Si       4.64563765       3.61953346       5.96125880
Si       5.77253430       4.93813054       2.83776148
Si       4.04783191       3.99075813       1.65667225
Si       2.37360940       3.73442823       6.33712927
14
Lattice="8.077757751228638 0.1104591416691329 2.4954816796893824 0.3481091023407633 8.734507223194965 -1.3310848367055779 -1.9953901218246402 -1.116226427623729 6.813086686979362" Properties=species:S:1:pos:R:3 unique_starting_index=20 config_type=initial n_minim_iter=2 stress="-9.058733951879378e-05 -0.0001523711720420201 -5.879813786141378e-05 -0.0001523711720420201 -0.0001407491126807507 -2.0282681608128168e-05 -5.879813786141378e-05 -2.0282681608128168e-05 -0.0007751433742332821" pbc="T T T"
Si       5.46212665       4.04374287       8.08063064
Si       6.75394362       2.75618371       2.29299790
Si       0.96835008       3.68499706      -0.10314711
Si      -0.32346689       4.97255623       5.68448563
Si       5.90142636       5.55928579       5.10343115
Si       6.51174855       3.21514616       4.60337263
Si       0.52905037       2.16945414       2.87405238
Si      -0.08127182       4.51359377       3.37411090
Si       1.77920303       4.10794084       2.02734973
Si       0.65195038       2.78633327       5.14573811
Si       4.65127370       3.62079910       5.95013380
Si       5.77852636       4.94240667       2.83174542
Si       4.05280410       3.99496969       1.65246247
Si       2.37767264       3.73377024       6.32502106
14
Lattice="8.089052848850265 0.11818664107385582 2.4999188347454724 0.3579898663002155 8.747906086604956 -1.3373956931458673 -1.996306499581689 -1.1246327747844642 6.816077107351638" Properties=species:S:1:pos:R:3 unique_starting_index=20 config_type=initial n_minim_iter=3 stress="0.0010989065923798272 4.3591945037541816e-05 -5.076338657500385e-07 4.3591945037541816e-05 0.0003980957649264751 -0.00013538546456821096 -5.076338657500385e-07 -0.00013538546456821096 0.0002127876012170733" pbc="T T T"
Si       5.47726594       4.05000639       8.08426344
Si       6.76566465       2.76558052       2.29490768
Si       0.97347027       3.69145356      -0.10566319
Si      -0.31492844       4.97587943       5.68369256
Si       5.91745386       5.57133977       5.10437521
Si       6.52577320       3.22480008       4.60655895
Si       0.53328236       2.17012018       2.87422504
Si      -0.07503699       4.51665987       3.37204129
Si       1.78723151       4.11408590       2.02665899
Si       0.65956315       2.78746694       5.14559620
Si       4.66350471       3.62737405       5.95194126
Si       5.79117306       4.95399302       2.83300405
Si       4.06358646       4.00583047       1.65248084
Si       2.38714975       3.73562948       6.32611941
14
Lattice="8.06387008298369 0.14496719870564867 2.511803475121193 0.38720460261244627 8.768325348572592 -1.348900288365401 -1.9831422436724977 -1.143582691629569 6.815023919958566" Properties=species:S:1:pos:R:3 unique_starting_index=20 config_type=initial n_minim_iter=4 stress="-0.0011154198700784668 0.0005396840837530376 0.0006580658018215384 0.0005396840837530376 0.0001583743725503447 -0.00036850989698806574 0.0006580658018215384 -0.00036850989698806574 -3.615505329175379e-05" pbc="T T T"
Si       5.48554828       4.06615159       8.08930564
Si       6.75105120       2.79051890       2.30061950
Si       0.98238416       3.70355827      -0.11137853
Si      -0.28311876       4.97919095       5.67730760
Si       5.92468984       5.60135164       5.10580019
Si       6.52232125       3.25288059       4.61445474
Si       0.54324260       2.16835822       2.87212692
Si      -0.05438881       4.51682927       3.36347236
Si       1.79990317       4.12447910       2.02546928
Si       0.68132043       2.78859204       5.13977414
Si       4.66802927       3.64523075       5.95245783
Si       5.78661201       4.98111782       2.83815297
Si       4.06824586       4.03471133       1.65429915
Si       2.39968658       3.73499853       6.32362796
14
Lattice="8.06742304128199 0.14064123838220918 2.4901543720629595 0.38247109044589117 8.75932934564772 -1.3363280148230068 -2.002164335763709 -1.130646265800847 6.815876181922555" Properties=species:S:1:pos:R:3 unique_starting_index=20 config_type=initial n_minim_iter=5 stress="-0.00015845775662943378 -0.0001850720970725894 -0.0009005144206305666 -0.0001850720970725894 0.0002915708124132926 -0.00020629417362572964 -0.0009005144206305666 -0.00020629417362572964 5.023052743078736e-05" pbc="T T T"
Si       5.46763554       4.06888624       8.07905269
Si       6.74836761       2.78353182       2.28606377
Si       0.98009426       3.70043808      -0.10935015
Si      -0.30063781       4.98579250       5.68363877
Si       5.91269393       5.60125454       5.09774984
Si       6.51657452       3.25341385       4.60160618
Si       0.53503586       2.16806977       2.87195270
Si      -0.06884472       4.51591047       3.36809636
Si       1.79297673       4.12040702       2.02649744
Si       0.66999225       2.79341311       5.13818383
Si       4.65475307       3.64891730       5.94320510
Si       5.77773754       4.97591121       2.83151870
Si       4.06662675       4.03548365       1.64995079
Si       2.38110305       3.73384067       6.31975175
14
Lattice="8.083042124047575 0.1412582533866114 2.501865929116373 0.377914739186035 8.744255911894887 -1.3228755498287406 -1.9941025230830092 -1.1186011622757508 6.808553217977231" Properties=species:S:1:pos:R:3 unique_starting_index=20 config_type=initial n_minim_iter=6 stress="0.00038419372627474663 -0.00016706732529039777 -7.054853750084978e-05 -0.00016706732529039777 5.124757195373125e-05 0.000294963017029436 -7.054853750084978e-05 0.000294963017029436 -4.3858898703695554e-05" pbc="T T T"
Si       5.48609729       4.07219539       8.09053422
Si       6.75992542       2.78014534       2.29972891
Si       0.98075705       3.69471761      -0.10299062
Si      -0.29307108       4.98676766       5.68781469
Si       5.92653914       5.59861365       5.11350348
Si       6.53210772       3.25347439       4.61424430
Si       0.54031520       2.16829935       2.87404012
Si      -0.06525338       4.51343862       3.37329929
Si       1.79706364       4.11537322       2.03412696
Si       0.67796600       2.79606204       5.14087832
Si       4.66979070       3.65153979       5.95341664
Si       5.78888834       4.97085097       2.84666528
Si       4.07371790       4.03147938       1.66154209
Si       2.39313645       3.73543363       6.32600151
14
Lattice="8.084141207635438 0.14589865425789925 2.5117162237030928 0.3882790750795956 8.734162102602044 -1.3447996910541065 -1.988133504209404 -1.1362333877294375 6.813995587693168" Properties=species:S:1:pos:R:3 unique_starting_index=20 config_type=initial n_minim_iter=7 stress="0.00010557785043678856 0.00015432242834189172 0.0004015692667064168 0.00015432242834189172 -0.0005625627393958443 -0.0003314818403602226 0.0004015692667064168 -0.0003314818403602226 0.00011083171608007209" pbc="T T T"
Si       5.49576304       4.05230097       8.09278283
Si       6.76185364       2.77894636       2.30288839
Si       0.98852374       3.69152640      -0.11187071
Si      -0.27756687       4.96488101       5.67802373
Si       5.93604502       5.58706807       5.11140153
Si       6.53977854       3.24708512       4.61561539
Si       0.54824176       2.15675930       2.86951060
Si      -0.05549176       4.49674225       3.36529673
Si       1.80353493       4.10273423       2.02559842
Si       0.68594805       2.77843395       5.13795676
Si       4.68075185       3.64109314       5.95531370
Si       5.79833873       4.96539342       2.84295536
Si       4.07863395       4.02859334       1.65974720
Si       2.40565283       3.71523403       6.32116492
14
Lattice="8.075359903250437 0.1608247939070714 2.51389384301838 0.40259192290702084 8.756571239209137 -1.342236184555869 -1.985732277596394 -1.1406367107817335 6.812749654894608" Properties=species:S:1:pos:R:3 unique_starting_index=20 config_type=initial n_minim_iter=8 stress="-0.0003140693068827084 8.454892921129883e-06 0.0006505071972746397 8.454892921129883e-06 0.00016894651025214919 -0.000163968986024306 0.0006505071972746397 -0.000163968986024306 5.1336401436168335e-05" pbc="T T T"
Si       5.49504065       4.07237685       8.09695422
Si       6.75423335       2.79626814       2.30663156
Si       0.99717890       3.70438247      -0.11254691
Si      -0.26201380       4.98049118       5.67777575
Si       5.93714744       5.61733125       5.11738181
Si       6.53943505       3.27024909       4.61773287
Si       0.55507211       2.15942808       2.86702551
Si      -0.04721550       4.50651023       3.36667444
Si       1.80817889       4.11108060       2.02538494
Si       0.69260343       2.78552768       5.13651491
Si       4.68404066       3.66567872       5.95902237
Si       5.79961612       4.99123164       2.84789241
Si       4.08017940       4.05219894       1.66503786
Si       2.41204014       3.72456039       6.31936945
14
Lattice="8.067777013440127 0.2211039953894039 2.4998539460606617 0.46591109844233897 8.75960977596612 -1.3299369205260116 -2.003442070883494 -1.1454338383278253 6.811076160429081" Properties=species:S:1:pos:R:3 unique_starting_index=20 config_type=initial n_minim_iter=9 stress="-0.00033164268847613574 4.109768513556422e-05 0.00029319497392706084 4.109768513556422e-05 0.00015284645329020872 0.00016770593761208293 0.00029319497392706084 0.00016770593761208293 -0.00010245396701646117" pbc="T T T"
Si       5.49937519       4.11784347       8.09636606
Si       6.75154903       2.84217382       2.30177351
Si       1.03087085       3.71743646      -0.11537287
Si      -0.22130298       4.99310611       5.67921968
Si       5.95704116       5.67981343       5.12156547
Si       6.55306705       3.33160586       4.60951018
Si       0.57320488       2.15546650       2.85942772
Si      -0.02282101       4.50367408       3.37148300
Si       1.82998381       4.11117538       2.02355076
Si       0.70883295       2.79119135       5.12916546
Si       4.70026223       3.72410455       5.95744243
Si       5.82141309       5.04408859       2.85182772
Si       4.10242082       4.10263713       1.67122404
Si       2.42782522       3.73264280       6.30976915
14
Lattice="8.058545358337193 0.31471862803063416 2.476367928393793 0.5730574363941308 8.766362562737505 -1.3381442861335489 -2.0352964602331665 -1.1750584752464661 6.8168683942195205" Properties=species:S:1:pos:R:3 unique_starting_index=20 config_type=initial n_minim_iter=10 stress="0.0004339781598885107 -0.0003965138311089882 -0.0003931541141937707 -0.0003965138311089882 0.0002715906274532761 0.00013262082240708619 -0.0003931541141937707 0.00013262082240708619 4.960298189695455e-05" pbc="T T T"
Si       5.50579051       4.16713510       8.09182157
Si       6.74461800       2.90976392       2.28782265
Si       1.09051582       3.73888762      -0.13672954
Si      -0.14831167       4.99625880       5.66726939
Si       5.98854153       5.76933011       5.11634063
Si       6.57746210       3.42057657       4.58938778
Si       0.60776480       2.13669261       2.83875141
Si       0.01884423       4.48544614       3.36570425
Si       1.86377949       4.09755157       2.01004331
Si       0.73708695       2.77813409       5.10776016
Si       4.73252684       3.80847115       5.94504873
Si       5.85921938       5.12788863       2.84733187
Si       4.14468239       4.18476289       1.66985985
Si       2.45162394       3.72125982       6.28523219
14
Lattice="8.015473330983072 0.4683083431332646 2.43024737029108 0.7532994629855895 8.773282592633347 -1.365623497025569 -2.0886921583978992 -1.234196564001971 6.832058811779903" Properties=species:S:1:pos:R:3 unique_starting_index=20 config_type=initial n_minim_iter=11 stress="-0.0003839730030521167 0.0010118200004886405 -0.0003088771099675325 0.0010118200004886405 -0.0006574491724680805 4.1754811684885246e-05 -0.0003088771099675325 4.1754811684885246e-05 -0.00029213646480502213" pbc="T T T"
Si       5.50264215       4.24571277       8.07399792
Si       6.72582565       3.02806066       2.25488218
Si       1.17743849       3.76168160      -0.17731524
Si      -0.04574502       4.97933371       5.64180050
Si       6.02407909       5.88851017       5.08858978
Si       6.58685516       3.54058664       4.54771954
Si       0.65600154       2.11888420       2.80809290
Si       0.09322548       4.46680773       3.34896315
Si       1.91628145       4.08678467       1.98849107
Si       0.76447701       2.74502880       5.07696400
Si       4.76379919       3.92060970       5.90819161
Si       5.91560363       5.26236557       2.81971868
Si       4.20625544       4.28234042       1.63959107
Si       2.47382520       3.72505396       6.25709162
14
Lattice="7.963015227683376 0.5309592386059101 2.3957791045278554 0.8459024876826997 8.780086934508098 -1.4351312243167715 -2.1216249650700734 -1.3048063220353114 6.861391197965132" Properties=species:S:1:pos:R:3 unique_starting_index=20 config_type=initial n_minim_iter=12 stress="-0.000686618471154662 0.0008352517822135811 0.0010311776460085653 0.0008352517822135811 -0.0006665276911879079 -0.0007919414880568909 0.0010311776460085653 -0.0007919414880568909 6.614518182921076e-05" pbc="T T T"
Si       5.46112515       4.24350573       8.06114251
Si       6.67114827       3.07455352       2.22297480
Si       1.22616760       3.76273413      -0.23910343
Si       0.01614448       4.93168633       5.59906427
Si       5.99438369       5.91661113       5.05256805
Si       6.55417365       3.56001204       4.51015555
Si       0.69290906       2.08962873       2.76947103
Si       0.13311910       4.44622781       3.31188353
Si       1.93370889       4.04865528       1.95978849
Si       0.76536357       2.67006704       5.04375073
Si       4.75358386       3.95758457       5.86225059
Si       5.92192918       5.33617281       2.77828835
Si       4.23461828       4.31273120       1.58530169
Si       2.45267447       3.69350866       6.23673739
14
Lattice="7.955365920382659 0.4389458308443066 2.388148447737514 0.7395240105636894 8.764985810724088 -1.4092277282339996 -2.112142592533443 -1.2596704618973238 6.854981238816624" Properties=species:S:1:pos:R:3 unique_starting_index=20 config_type=initial n_minim_iter=13 stress="9.150438528388749e-05 -0.0009273603804874573 0.0004880780432693977 -0.0009273603804874573 -8.08591245273447e-05 0.00019101041267979661 0.0004880780432693977 0.00019101041267979661 0.0001573262018812297" pbc="T T T"
Si       5.41243875       4.21671125       8.05636923
Si       6.64068992       3.00886993       2.21948976
Si       1.17030859       3.72754993      -0.22246728
Si      -0.05794259       4.93539125       5.61441220
Si       5.92149302       5.84170917       5.05611332
Si       6.50496006       3.47273958       4.51530273
Si       0.66125431       2.10255200       2.77778864
Si       0.07778728       4.47152160       3.31859923
Si       1.90142060       4.04925631       1.97211721
Si       0.72752830       2.67652097       5.05439127
Si       4.68132674       3.89500487       5.86178475
Si       5.85521904       5.26774021       2.77951069
Si       4.19384657       4.23213664       1.57840844
Si       2.38890076       3.71212454       6.25549352
14
Lattice="7.892574234903631 0.6335924566130409 2.30534265305121 0.9623631878607645 8.800530210816524 -1.415347703651926 -2.1948014861483456 -1.3155976613215834 6.861862549387874" Properties=species:S:1:pos:R:3 unique_starting_index=20 config_type=initial n_minim_iter=14 stress="0.0014134266454442833 -0.0009250883261827158 -0.001934230683740945 -0.0009250883261827158 0.00233988847376917 0.0009138882146116487 -0.001934230683740945 0.0009138882146116487 0.0003861239723308429" pbc="T T T"
Si       5.37559884       4.36522163       8.02447488
Si       6.57326847       3.16336095       2.16848413
Si       1.28453709       3.75330338      -0.27261739
Si       0.08686746       4.95516406       5.58337336
Si       5.93175184       6.03561650       5.03153898
Si       6.50447166       3.64261727       4.45582099
Si       0.72838410       2.08290851       2.72031852
Si       0.15566427       4.47590774       3.29603651
Si       1.97993754       4.03807237       1.94359957
Si       0.76534122       2.64665849       4.99912372
Si       4.68019839       4.08045263       5.80825793
Si       5.89479472       5.47186651       2.75273378
Si       4.28718767       4.37896213       1.54274429
Si       2.37294826       3.73956287       6.20911321
14
Lattice="7.878334285307778 0.6789479432300504 2.3371258570468485 1.0153363592815594 8.71699736211783 -1.4432952742199772 -2.1646789849600734 -1.342869472901642 6.8437351838921945" Properties=species:S:1:pos:R:3 unique_starting_index=20 config_type=initial n_minim_iter=15 stress="-0.00012909555664298753 -0.00029045836398495654 -0.00031486407416943816 -0.00029045836398495654 -0.0012241454992802329 -0.00013202688973671688 -0.00031486407416943816 -0.00013202688973671688 -0.0003197045757199235" pbc="T T T"
Si       5.41682278       4.35490314       8.01866336
Si       6.54997964       3.17651594       2.18333137
Si       1.31216888       3.69817269      -0.28109760
Si       0.17901201       4.87655989       5.55423440
Si       5.96031190       6.00643612       5.04374435
Si       6.52702904       3.62860022       4.47293307
Si       0.76867976       2.04663971       2.69382142
Si       0.20196262       4.42447561       3.26463269
Si       2.04577475       3.99534537       1.91892949
Si       0.81747497       2.59263486       4.97618966
Si       4.68321691       4.05773047       5.81863628
Si       5.91151669       5.46044097       2.76137611
Si       4.33179002       4.33891204       1.55139938
Si       2.39720164       3.71416380       6.18616639
14
Lattice="7.871596003371061 0.7170280050789036 2.338586838164776 1.056178730231613 8.74045360828898 -1.4449396445249407 -2.166084313914007 -1.356787402512338 6.841315254837626" Properties=species:S:1:pos:R:3 unique_starting_index=20 config_type=initial n_minim_iter=16 stress="-4.0309002474081544e-05 0.00017188606035571693 -7.025573303174572e-05 0.00017188606035571693 -0.00013707771557682047 1.887330233044757e-05 -7.025573303174572e-05 1.887330233044757e-05 2.288579863163713e-05" pbc="T T T"
Si       5.42783403       4.38851011       8.01996379
Si       6.54674395       3.21107059       2.18445212
Si       1.33385639       3.71218410      -0.28500134
Si       0.21494647       4.88962362       5.55051033
Si       5.97589333       6.05336967       5.04892579
Si       6.53540457       3.66982290       4.47466083
Si       0.78579709       2.04732454       2.68603666
Si       0.22628585       4.43087131       3.26030162
Si       2.06343334       4.00359640       1.91236518
Si       0.83191094       2.59349858       4.96992151
Si       4.69825708       4.09709781       5.82259727
Si       5.92977948       5.50719563       2.76504094
Si       4.34807832       4.37043168       1.55636051
Si       2.41361210       3.73026253       6.17860194
14
Lattice="7.881349797448324 0.7104722520421562 2.3582889420413005 1.0442200971108502 8.758636414511678 -1.4391263628301703 -2.1482094684515705 -1.3538886571655941 6.832381301728353" Properties=species:S:1:pos:R:3 unique_starting_index=20 config_type=initial n_minim_iter=17 stress="7.931731245970531e-05 5.537383909174731e-05 0.0005082562398337364 5.537383909174731e-05 0.000654092797362661 1.1928589431676462e-05 0.0005082562398337364 1.1928589431676462e-05 0.0002004193826447758" pbc="T T T"
Si       5.44898307       4.39269970       8.02625664
Si       6.55895793       3.21008079       2.19557218
Si       1.32837735       3.72252031      -0.27471276
Si       0.21840250       4.90513922       5.55597170
Si       5.98921802       6.06420166       5.06049557
Si       6.54512680       3.68030473       4.49108487
Si       0.78814240       2.05101835       2.69104831
Si       0.23223363       4.43491527       3.26045901
Si       2.06296006       4.01566657       1.91115125
Si       0.84165268       2.60596202       4.97364477
Si       4.71440036       4.09955343       5.84039263
Si       5.93570774       5.50925799       2.77789911
Si       4.34257443       4.37326686       1.57383521
Si       2.43478599       3.74195315       6.17770867
14
Lattice="7.870774245714192 0.7317817694377312 2.3483009556274674 1.0697372629883763 8.747793445999282 -1.4428001800471948 -2.1565487558160035 -1.3610449495271513 6.831320397506391" Properties=species:S:1:pos:R:3 unique_starting_index=20 config_type=initial n_minim_iter=18 stress="-0.00018321676605458583 0.00021335027007070734 0.00023771540524541657 0.00021335027007070734 0.00042738740783879745 3.3918273656734374e-05 0.00023771540524541657 3.3918273656734374e-05 5.539081747932009e-05" pbc="T T T"
Si       5.44399466       4.40075383       8.01987690
Si       6.54698835       3.22147309       2.18607089
Si       1.33996810       3.71777644      -0.28305573
Si       0.23697440       4.89705718       5.55075028
Si       5.98556082       6.07618998       5.05540584
Si       6.53937762       3.69485708       4.48438848
Si       0.79840193       2.04234028       2.68141533
Si       0.24458513       4.42367319       3.25243270
Si       2.07114233       4.00588238       1.90271768
Si       0.84694580       2.59312420       4.96374672
Si       4.71282042       4.11264788       5.83410349
Si       5.93701696       5.52540606       2.77307446
Si       4.35183653       4.37854381       1.56765368
Si       2.43212623       3.73998646       6.16916749
14
Lattice="7.868432895726119 0.7262431993082246 2.341572515162654 1.0654154456506788 8.73238928257055 -1.444263478047255 -2.1605994220745934 -1.3592387747720285 6.830283341907785" Properties=species:S:1:pos:R:3 unique_starting_index=20 config_type=initial n_minim_iter=19 stress="-0.00014331600367611407 0.00012144193756856748 -3.269770176603392e-05 0.00012144193756856748 3.2007423553894954e-05 3.192479560272827e-05 -3.269770176603392e-05 3.192479560272827e-05 -2.2734036598290258e-05" pbc="T T T"
Si       5.43772656       4.39131577       8.01475888
Si       6.54238734       3.21246512       2.17819339
Si       1.33552236       3.70807794      -0.28716650
Si       0.23086158       4.88692859       5.54939899
Si       5.97587377       6.06372673       5.04952379
Si       6.53085520       3.68633437       4.47961681
Si       0.79737515       2.03566697       2.67806859
Si       0.24239372       4.41305934       3.24797557
Si       2.06803249       3.99755393       1.89759259
Si       0.84436756       2.58416330       4.95984657
Si       4.70521643       4.10183977       5.82999979
Si       5.92888136       5.51523041       2.76774581
Si       4.34934633       4.36397438       1.56070420
Si       2.42390259       3.73541932       6.16688818
14
Lattice="7.869438689828548 0.7155010978175509 2.339393163162867 1.055279670364463 8.720273567001692 -1.4472215484808093 -2.1607184882190973 -1.3579396439300904 6.828632812100329" Properties=species:S:1:pos:R:3 unique_starting_index=20 config_type=initial n_minim_iter=20 stress="9.36390649504106e-06 -3.124796788413973e-05 -0.0001905046607566211 -3.124796788413973e-05 -0.00020916621838611474 6.550366375841236e-06 -0.0001905046607566211 6.550366375841236e-06 -6.084113154139139e-05" pbc="T T T"
Si       5.43555286       4.37854192       8.01254584
Si       6.54127802       3.20028805       2.17353670
Si       1.32844702       3.69929310      -0.29174141
Si       0.22272185       4.87754697       5.54726772
Si       5.96920723       6.04958084       5.04552603
Si       6.52537451       3.67535213       4.47654504
Si       0.79479264       2.02825418       2.67527840
Si       0.23862536       4.40248289       3.24425938
Si       2.06360852       3.99070183       1.89192484
Si       0.84383711       2.57628491       4.95716450
Si       4.70039135       4.08713319       5.82887958
Si       5.92016276       5.50155011       2.76363993
Si       4.34548411       4.34769320       1.55477217
Si       2.41851576       3.73014182       6.16603226
14
Lattice="7.870537124774657 0.6983264558517938 2.341196910120996 1.040281893379037 8.700152339605928 -1.4587019246314248 -2.156148434931454 -1.3615521016321857 6.825710886369563" Properties=species:S:1:pos:R:3 unique_starting_index=20 config_type=initial n_minim_iter=21 stress="0.0002559257722485707 -0.00020795108715741735 -0.0003008746073254478 -0.00020795108715741735 -0.0004015056891433393 -1.4635088077898095e-05 -0.0003008746073254478 -1.4635088077898095e-05 -5.160721015579885e-05" pbc="T T T"
Si       5.43697553       4.35445944       8.01463052
Si       6.54017061       3.17997318       2.16916104
Si       1.31769505       3.68246726      -0.30642465
Si       0.21449997       4.85695352       5.53904483
Si       5.96289962       6.02801145       5.04208025
Si       6.51881908       3.65816604       4.47083779
Si       0.79177096       2.00891525       2.66612563
Si       0.23585150       4.37876065       3.23736808
Si       2.05737386       3.97663519       1.87592344
Si       0.85049848       2.55718599       4.95139695
Si       4.69729673       4.06029151       5.83228243
Si       5.90417210       5.47974070       2.75680893
Si       4.33995266       4.31706694       1.54283406
Si       2.41471793       3.71985976       6.16537182
