24
Lattice="8.266955803193394 -7.2543305535849335e-12 -2.715951606737676e-13 4.13347790160298 7.15939373752504 2.706172765889515e-13 4.133477901599095 2.3864645791720718 9.227561937067762" Properties=species:S:1:pos:R:3 unique_starting_index=24 config_type=initial n_minim_iter=1 energy=-3902.9846894778784 free_energy=-3902.9846894778784 pbc="T T T"
Si       9.69834696       4.94266728       9.15063163
Si       7.40426188       5.92768121       9.15063163
Si       7.69825733       3.44843828       9.15063163
Si       9.23699358       3.72358524       5.38211812
Si       8.69069459       6.13767847       5.38211812
Si       6.87317801       4.45752305       5.38211812
Si       9.22117801       2.96357621       2.08146426
Si       9.35678949       6.50398630       2.08146426
Si       6.22289867       4.85122425       2.08146426
Si      10.30346419       4.69666983       3.27510777
Si       7.31474331       6.57472682       3.27510777
Si       7.18265868       3.04739012       3.27510777
Si       9.08307738       6.84852166       7.75428029
Si       6.06137836       4.44191493       7.75428029
Si       9.65641044       3.02835018       7.75428029
Si      10.57991993       5.11667886       6.87192833
Si       6.81277694       6.60414000       6.87192833
Si       7.40816930       2.59796791       6.87192833
Si       9.41409045       8.57505661       6.15643064
Si       4.40064870       3.86531318       6.15643064
Si      10.98612703       1.87841698       6.15643064
Si       5.53219984       1.70990847       2.27608534
Si       4.02003089       3.93607137       2.27608534
Si       2.84820174       1.51341319       2.27608534
24
Lattice="8.245267546097585 -7.235827610387281e-12 -2.7086469349112044e-13 4.12263377305506 7.140611155916269 2.6990662492396207e-13 4.122633773051186 2.380203718635821 9.224373895741714" Properties=species:S:1:pos:R:3 unique_starting_index=24 config_type=initial n_minim_iter=2 stress="-0.0005851996213305344 2.534865265297674e-17 6.99132194138552e-17 2.534865265297674e-17 -0.0005851996213306914 1.9113701798817137e-16 6.99132194138552e-17 1.9113701798817137e-16 -0.002111497849585071" pbc="T T T"
Si       9.67252100       4.92960708       9.14778302
Si       7.38510881       5.91184537       9.14778302
Si       7.67817160       3.43976916       9.14778302
Si       9.21296174       3.71368478       5.38017015
Si       8.66790804       6.12181652       5.38017015
Si       6.85493162       4.44572031       5.38017015
Si       9.19692778       2.95580081       2.08062326
Si       9.33227179       6.48687269       2.08062326
Si       6.20660183       4.83854810       2.08062326
Si      10.27617090       4.68440152       3.27371300
Si       7.29563810       6.55722429       3.27371300
Si       7.16399240       3.03959579       3.27371300
Si       9.05949395       6.83097712       7.75152091
Si       6.04498758       4.43026335       7.75152091
Si       9.63131987       3.01998113       7.75152091
Si      10.55244775       5.10371607       6.86945962
Si       6.79436262       6.58682979       6.86945962
Si       7.38899103       2.59067574       6.86945962
Si       9.38952663       8.55269422       6.15439641
Si       4.38892049       3.85522148       6.15439641
Si      10.95735428       1.87330590       6.15439641
Si       5.51774578       1.70510116       2.27554183
Si       4.00973291       3.92595743       2.27554183
Si       2.84042140       1.50955185       2.27554183
24
Lattice="8.217615014519538 -7.21344891021862e-12 -2.6990742966902646e-13 4.108807507266015 7.116663361090735 2.690368893258595e-13 4.108807507262158 2.372221120360648 9.29726276621764" Properties=species:S:1:pos:R:3 unique_starting_index=24 config_type=initial n_minim_iter=3 stress="-0.0007137028040060474 -9.678571257419445e-17 2.482941487135453e-16 -9.678571257419445e-17 -0.0007137028040058906 1.7621533745048484e-16 2.482941487135453e-16 1.7621533745048484e-16 0.0021042869505353695" pbc="T T T"
Si       9.63829267       4.91260269       9.22230561
Si       7.36164414       5.89070496       9.22230561
Si       7.65290700       3.43001836       9.22230561
Si       9.18352169       3.70001099       5.42189324
Si       8.63916485       6.10315759       5.42189324
Si       6.83015727       4.43015744       5.42189324
Si       9.16550529       2.94586988       2.09600161
Si       9.30127841       6.46462548       2.09600161
Si       6.18606011       4.82283065       2.09600161
Si      10.24000772       4.66913909       3.29814612
Si       7.27163229       6.53353728       3.29814612
Si       7.14120381       3.03064965       3.29814612
Si       9.03085971       6.81126007       7.81232928
Si       6.02107510       4.41532389       7.81232928
Si       9.60090900       3.00674205       7.81232928
Si      10.51931734       5.08977101       6.92310211
Si       6.76769955       6.56511055       6.92310211
Si       7.36582692       2.57844446       6.92310211
Si       9.35907914       8.52482452       6.20351615
Si       4.37297504       3.84278803       6.20351615
Si      10.92078963       1.86571346       6.20351615
Si       5.49962768       1.69732899       2.29516236
Si       3.99787033       3.91415279       2.29516236
Si       2.82892328       1.50518087       2.29516236
24
Lattice="8.218574201774071 -7.215057022955223e-12 -2.698577525234744e-13 4.109287100893281 7.117494041620148 2.691371909123956e-13 4.109287100889423 2.3724980138704552 9.22999050375408" Properties=species:S:1:pos:R:3 unique_starting_index=24 config_type=initial n_minim_iter=4 stress="-0.00035669123007395486 -1.6738239885191125e-16 2.8047861429239184e-16 -1.6738239885191125e-16 -0.00035669123007337584 3.1461310840715507e-16 2.8047861429239184e-16 3.1461310840715507e-16 -0.0004045437858446032" pbc="T T T"
Si       9.63419660       4.91078290       9.16722809
Si       7.36718654       5.88806755       9.16722809
Si       7.65433824       3.43613693       9.16722809
Si       9.19442647       3.69196306       5.38020571
Si       8.64260055       6.11662537       5.38020571
Si       6.81869435       4.42639895       5.38020571
Si       9.16265220       2.94665815       2.07450271
Si       9.30394067       6.46176050       2.07450271
Si       6.18912850       4.82656873       2.07450271
Si      10.23160955       4.67229907       3.26734096
Si       7.27501312       6.52468426       3.26734096
Si       7.14909870       3.03800405       3.26734096
Si       9.03989936       6.82870854       7.75186085
Si       6.00336283       4.41442823       7.75186085
Si       9.61245918       2.99185061       7.75186085
Si      10.53058870       5.10701805       6.87111174
Si       6.74904587       6.56624831       6.87111174
Si       7.37608681       2.56172102       6.87111174
Si       9.36677355       8.52928147       6.16094142
Si       4.36718638       3.84722311       6.16094142
Si      10.92176145       1.85848279       6.16094142
Si       5.50231663       1.68759771       2.28615823
Si       4.00591258       3.92134712       2.28615823
Si       2.81963086       1.50854850       2.28615823
24
Lattice="8.220839161441695 -7.215408922211889e-12 -2.699096800568755e-13 4.110419580727094 7.119455554230857 2.692533320129887e-13 4.110419580723234 2.3731518514073584 9.206439632697666" Properties=species:S:1:pos:R:3 unique_starting_index=24 config_type=initial n_minim_iter=5 stress="0.0013902469780745527 -2.355059130691544e-16 2.715632488408972e-16 -2.355059130691544e-16 0.001390246978075344 2.7135720692220154e-16 2.715632488408972e-16 2.7135720692220154e-16 0.0012800261532100372" pbc="T T T"
Si       9.64087746       4.90876795       9.14441268
Si       7.37012103       5.89486082       9.14441268
Si       7.65151777       3.43528164       9.14441268
Si       9.20751451       3.69107820       5.36567345
Si       8.64135276       6.12840237       5.36567345
Si       6.81364898       4.41942983       5.36567345
Si       9.15976076       2.94821658       2.05231218
Si       9.30856667       6.45847722       2.05231218
Si       6.19418882       4.83221659       2.05231218
Si      10.22569309       4.67456879       3.25089298
Si       7.28053563       6.51842559       3.25089298
Si       7.15628753       3.04591602       3.25089298
Si       9.03629269       6.83731194       7.74132448
Si       6.00224532       4.40700306       7.74132448
Si       9.62397824       2.99459540       7.74132448
Si      10.53687010       5.12504144       6.85737298
Si       6.73482637       6.56267646       6.85737298
Si       7.39081978       2.55119250       6.85737298
Si       9.38181329       8.54556859       6.13856960
Si       4.35009137       3.85210435       6.13856960
Si      10.93061159       1.84123746       6.13856960
Si       5.51011915       1.67619941       2.29917801
Si       4.01414750       3.93380345       2.29917801
Si       2.80699087       1.50945198       2.29917801
24
Lattice="8.210451406251137 -7.205633500833538e-12 -2.6949754248267843e-13 4.105225703131806 7.110459494347549 2.6898090143418537e-13 4.105225703127954 2.370153164779594 9.179694014957184" Properties=species:S:1:pos:R:3 unique_starting_index=24 config_type=initial n_minim_iter=6 stress="0.0005227291836778144 -1.294784047980188e-16 6.090664161698804e-16 -1.294784047980188e-16 0.0005227291836790872 2.9748958286392797e-16 6.090664161698804e-16 2.9748958286392797e-16 0.00043950688321036486" pbc="T T T"
Si       9.63224457       4.90128071       9.12051899
Si       7.36014611       5.89112814       9.12051899
Si       7.63896232       3.42850944       9.12051899
Si       9.20335920       3.68769290       5.35065689
Si       8.62558667       6.12649642       5.35065689
Si       6.80240712       4.40672896       5.35065689
Si       9.14452993       2.94507386       2.03059907
Si       9.29812825       6.44685830       2.03059907
Si       6.18869481       4.82898612       2.03059907
Si      10.20621119       4.66849797       3.23509485
Si       7.27475856       6.50458918       3.23509485
Si       7.15038324       3.04783113       3.23509485
Si       9.01890690       6.83596182       7.72478316
Si       5.99133195       4.39262158       7.72478316
Si       9.62111414       2.99233489       7.72478316
Si      10.52424439       5.13055165       6.84007561
Si       6.71559173       6.54898717       6.84007561
Si       7.39151687       2.54137946       6.84007561
Si       9.37927121       8.54498854       6.11542080
Si       4.33108923       3.85019287       6.11542080
Si      10.92099254       1.82573687       6.11542080
Si       5.50711385       1.66570543       2.30810427
Si       4.01435044       3.93644778       2.30810427
Si       2.79421159       1.50830558       2.30810427
24
Lattice="8.186824808349922 -7.1816133387822915e-12 -2.685994298054175e-13 4.093412404181178 7.089998260360108 2.6831679823437514e-13 4.0934124041773385 2.3633327534504587 9.12473679474627" Properties=species:S:1:pos:R:3 unique_starting_index=24 config_type=initial n_minim_iter=7 stress="-0.0012690875109635778 -8.594331772116505e-17 5.475218192382515e-16 -8.594331772116505e-17 -0.00126908751096229 4.0016047202366847e-16 5.475218192382515e-16 4.0016047202366847e-16 -0.0014588323709042105" pbc="T T T"
Si       9.61273837       4.88940321       9.07817707
Si       7.33293223       5.88017403       9.07817707
Si       7.61480260       3.41041858       9.07817707
Si       9.19176910       3.68744579       5.32292865
Si       8.58434252       6.11658265       5.32292865
Si       6.78436158       4.37596738       5.32292865
Si       9.11154077       2.93777053       1.97463428
Si       9.27369451       6.42194051       1.97463428
Si       6.17523792       4.82028478       1.97463428
Si      10.16167261       4.65198426       3.20138336
Si       7.26407594       6.47427450       3.20138336
Si       7.13472464       3.05373705       3.20138336
Si       8.97612656       6.83832002       7.68894231
Si       5.96342667       4.35439362       7.68894231
Si       9.62091997       2.98728218       7.68894231
Si      10.49021131       5.14099724       6.80465939
Si       6.67630894       6.51429087       6.80465939
Si       7.39395295       2.52470771       6.80465939
Si       9.37171692       8.54167495       6.06604522
Si       4.29048284       3.84530746       6.06604522
Si      10.89827344       1.79301341       6.06604522
Si       5.49665553       1.64428247       2.33269474
Si       4.01450584       3.93810209       2.33269474
Si       2.76907462       1.50761300       2.33269474
24
Lattice="8.18238459770783 -7.177957145940695e-12 -2.6833758436344014e-13 4.09119229886013 7.086152925145904 2.6825067444291807e-13 4.0911922988562885 2.3620509750457237 9.139072011071722" Properties=species:S:1:pos:R:3 unique_starting_index=24 config_type=initial n_minim_iter=8 stress="1.6400518376213254e-05 -4.69316409458653e-17 3.3899729933218776e-16 -4.69316409458653e-17 1.6400518376535072e-05 2.922751746405451e-16 3.3899729933218776e-16 2.922751746405451e-16 0.0007504392330528517" pbc="T T T"
Si       9.60657070       4.90572275       9.11372466
Si       7.31300250       5.86667289       9.11372466
Si       7.62757937       3.39990950       9.11372466
Si       9.18577949       3.70791575       5.33987743
Si       8.56072940       6.10116052       5.33987743
Si       6.80064368       4.36322888       5.33987743
Si       9.10865535       2.93527318       1.93981456
Si       9.26841956       6.42069034       1.93981456
Si       6.17007766       4.81634163       1.93981456
Si      10.14668977       4.64101207       3.20153295
Si       7.27218915       6.46678507       3.20153295
Si       7.12827365       3.06450801       3.20153295
Si       8.95768489       6.85621619       7.69543226
Si       5.94826854       4.32947458       7.69543226
Si       9.64119914       2.98661438       7.69543226
Si      10.46986589       5.14342667       6.81758866
Si       6.67549728       6.49545650       6.81758866
Si       7.40178941       2.53342198       6.81758866
Si       9.36613225       8.53757714       6.06912053
Si       4.28794357       3.84251990       6.06912053
Si      10.89307675       1.79220811       6.06912053
Si       5.48215230       1.64404468       2.35909469
Si       4.01752317       3.92566082       2.35909469
Si       2.77390019       1.51644672       2.35909469
24
Lattice="8.189506380081035 -7.184374787705085e-12 -2.684247961897852e-13 4.094753190046737 7.092320569601321 2.686257053212576e-13 4.09475319004289 2.3641068565308654 9.04892446430712" Properties=species:S:1:pos:R:3 unique_starting_index=24 config_type=initial n_minim_iter=9 stress="0.0010295946047464866 -3.591005789899779e-17 3.2023322220518024e-16 -3.591005789899779e-17 0.0010295946047478386 4.750689424402707e-16 3.2023322220518024e-16 4.750689424402707e-16 -0.0014080806138983127" pbc="T T T"
Si       9.60838740       4.93195290       9.03980103
Si       7.30362174       5.85513113       9.03980103
Si       7.65650877       3.39755640       9.03980103
Si       9.20550029       3.71977222       5.28838747
Si       8.55484456       6.11231100       5.28838747
Si       6.80817306       4.35255722       5.28838747
Si       9.11270280       2.93571405       1.86980216
Si       9.28025759       6.42397510       1.86980216
Si       6.17555752       4.82495128       1.86980216
Si      10.12838607       4.63879007       3.15660182
Si       7.29750887       6.45204460       3.15660182
Si       7.14262298       3.09380576       3.15660182
Si       8.94552415       6.88219393       7.62606968
Si       5.94609510       4.30595420       7.62606968
Si       9.67689867       2.99649231       7.62606968
Si      10.47687121       5.17655450       6.76101043
Si       6.65754864       6.48495937       6.76101043
Si       7.43409807       2.52312657       6.76101043
Si       9.38166019       8.55533905       5.99636930
Si       4.27904089       3.84708653       5.99636930
Si      10.90781683       1.78221486       5.99636930
Si       5.47459234       1.63452315       2.37856814
Si       4.03667083       3.92387447       2.37856814
Si       2.77299518       1.53392225       2.37856814
24
Lattice="8.166276703320468 -7.168615687273499e-12 -2.6764821921419747e-13 4.083138351666443 7.072203079404977 2.678906024855078e-13 4.083138351662602 2.357401026465424 9.040308897491787" Properties=species:S:1:pos:R:3 unique_starting_index=24 config_type=initial n_minim_iter=10 stress="0.00012084920976241941 -5.65626543937215e-17 1.7075117097052016e-16 -5.65626543937215e-17 0.00012084920976394362 4.016799028185711e-16 1.7075117097052016e-16 4.016799028185711e-16 -0.0009723324803388388" pbc="T T T"
Si       9.56826816       4.95567505       9.04194302
Si       7.25667803       5.80852577       9.04194302
Si       7.67388270       3.38020464       9.04194302
Si       9.18442024       3.71639776       5.28275147
Si       8.52184760       6.09574237       5.28275147
Si       6.79256105       4.33226533       5.28275147
Si       9.08577926       2.92101499       1.81610495
Si       9.25998977       6.40800816       1.81610495
Si       6.15305985       4.81538230       1.81610495
Si      10.06914041       4.61594939       3.14095089
Si       7.30045296       6.41215669       3.14095089
Si       7.12923553       3.11629937       3.14095089
Si       8.89181940       6.87126872       7.62570444
Si       5.93594963       4.26490712       7.62570444
Si       9.67105987       3.00822961       7.62570444
Si      10.44766397       5.18729169       6.76893294
Si       6.61639423       6.45429656       6.76893294
Si       7.43477069       2.50281720       6.76893294
Si       9.35059782       8.53109810       5.97663702
Si       4.26910601       3.83230621       5.97663702
Si      10.87912506       1.78100115       5.97663702
Si       5.43394827       1.62962693       2.42348565
Si       4.03800343       3.89112378       2.42348565
Si       2.77746213       1.55145167       2.42348565
24
Lattice="8.130420323078907 -7.138874882146834e-12 -2.6632736222533765e-13 4.065210161545634 7.041150543228044 2.669219762356032e-13 4.065210161541816 2.347050181073118 9.127105917232548" Properties=species:S:1:pos:R:3 unique_starting_index=24 config_type=initial n_minim_iter=11 stress="-0.0013155455798757288 -3.144721767268721e-16 6.00684353788424e-16 -3.144721767268721e-16 -0.0013155455798739336 8.212398398982167e-17 6.00684353788424e-16 8.212398398982167e-17 0.0026253908258876617" pbc="T T T"
Si       9.53191300       4.94509492       9.12341018
Si       7.21230551       5.78233135       9.12341018
Si       7.64704124       3.35487412       9.12341018
Si       9.13965253       3.69119681       5.33517459
Si       8.49434336       6.06957287       5.33517459
Si       6.75726386       4.32153071       5.33517459
Si       9.04793907       2.90072902       1.84144114
Si       9.22476528       6.38538058       1.84144114
Si       6.11855541       4.79619079       1.84144114
Si      10.02765204       4.59358320       3.16584945
Si       7.26885407       6.38740981       3.16584945
Si       7.09475364       3.10130738       3.16584945
Si       8.84329134       6.83216726       7.69542562
Si       5.92236375       4.24243132       7.69542562
Si       9.62560466       3.00770180       7.69542562
Si      10.41560097       5.16164402       6.82766779
Si       6.58292450       6.43935303       6.82766779
Si       7.39273428       2.48130334       6.82766779
Si       9.30122083       8.48072394       6.03501911
Si       4.26570705       3.81473156       6.03501911
Si      10.82433187       1.78684489       6.03501911
Si       5.40450342       1.63501718       2.45650381
Si       4.01220139       3.86292867       2.45650381
Si       2.77892446       1.54320400       2.45650381
24
Lattice="8.12569582687828 -7.132393460135596e-12 -2.6610928761490804e-13 4.06284791344532 7.037059009498223 2.6712632723532474e-13 4.062847913441498 2.3456863364965193 9.045135977122495" Properties=species:S:1:pos:R:3 unique_starting_index=24 config_type=initial n_minim_iter=12 stress="0.000431267852704487 -1.1806089338217807e-16 1.3888254185139857e-16 -1.1806089338217807e-16 0.0004312678527065202 2.803409577402265e-16 1.3888254185139857e-16 2.803409577402265e-16 0.0008574603611265118" pbc="T T T"
Si       9.53471364       4.97507296       9.05866801
Si       7.17549446       5.76976775       9.05866801
Si       7.66687817       3.32927661       9.05866801
Si       9.14413878       3.69132878       5.29464215
Si       8.48253696       6.07339209       5.29464215
Si       6.75041052       4.30939645       5.29464215
Si       9.04128405       2.88594570       1.77587266
Si       9.23144653       6.38700882       1.77587266
Si       6.10435568       4.80116280       1.77587266
Si       9.99663987       4.58201068       3.11205560
Si       7.28493326       6.36633874       3.11205560
Si       7.09551314       3.12576790       3.11205560
Si       8.80401880       6.84820295       7.62682929
Si       5.91866372       4.20040246       7.62682929
Si       9.65440375       3.02551191       7.62682929
Si      10.42373206       5.18973497       6.76342081
Si       6.54508249       6.43234928       6.76342081
Si       7.40827171       2.45203307       6.76342081
Si       9.30001733       8.47410140       5.96727307
Si       4.26259510       3.81700056       5.96727307
Si      10.81447384       1.78301536       5.96727307
Si       5.38744769       1.63302345       2.50021558
Si       4.01773138       3.84915484       2.50021558
Si       2.78336345       1.55488002       2.50021558
24
Lattice="8.11439037873699 -7.118883680657697e-12 -2.6539214894098563e-13 4.057195189374666 7.027268204206708 2.6699042647161464e-13 4.057195189370849 2.3424227347326902 8.963743498130121" Properties=species:S:1:pos:R:3 unique_starting_index=24 config_type=initial n_minim_iter=13 stress="0.00032643166692104814 -2.780278825876794e-17 -5.386790225136288e-17 -2.780278825876794e-17 0.000326431666923606 3.8217973391642335e-16 -5.386790225136288e-17 3.8217973391642335e-16 -0.001301408339729902" pbc="T T T"
Si       9.52685533       4.99701537       8.99177925
Si       7.13781003       5.75199105       8.99177925
Si       7.67850456       3.30552929       8.99177925
Si       9.13768513       3.68951865       5.25293871
Si       8.46472050       6.06870813       5.25293871
Si       6.74076429       4.29630893       5.25293871
Si       9.03175784       2.86273556       1.71918663
Si       9.23369931       6.39036395       1.71918663
Si       6.07771278       4.80143620       1.71918663
Si       9.95813567       4.56912516       3.06076804
Si       7.29273365       6.33943588       3.06076804
Si       7.09230060       3.14597467       3.06076804
Si       8.75973709       6.85561661       7.55999511
Si       5.91177326       4.15834654       7.55999511
Si       9.67165958       3.04057256       7.55999511
Si      10.42094992       5.21437726       6.69376588
Si       6.50252182       6.41761873       6.69376588
Si       7.41969819       2.42253972       6.69376588
Si       9.29138199       8.45932509       5.89855231
Si       4.25709853       3.81691030       5.89855231
Si      10.79468940       1.77830033       5.89855231
Si       5.36759614       1.62460922       2.54316442
Si       4.02363864       3.83617000       2.54316442
Si       2.78034957       1.56648828       2.54316442
24
Lattice="8.064465500904467 -7.0707379331214174e-12 -2.6191243398353514e-13 4.032232750458368 6.984031991722929 2.6700798429962144e-13 4.032232750454564 2.3280106639048026 8.592465433928613" Properties=species:S:1:pos:R:3 unique_starting_index=24 config_type=initial n_minim_iter=14 stress="-0.00171694883873816 1.642569105015219e-16 -3.2547415052239414e-17 1.642569105015219e-16 -0.001716948838734871 2.5728229766404584e-16 -3.2547415052239414e-17 2.5728229766404584e-16 -0.002346230923704747" pbc="T T T"
Si       9.48429496       5.09420037       8.68448031
Si       6.97507578       5.66654019       8.68448031
Si       7.73402455       3.20732273       8.68448031
Si       9.10309194       3.69873413       5.05778005
Si       8.37418651       6.03414181       5.05778005
Si       6.71611684       4.23518735       5.05778005
Si       9.00483499       2.73003189       1.46253934
Si       9.26223574       6.43339991       1.46253934
Si       5.92632457       4.80463149       1.46253934
Si       9.77843365       4.51431691       2.82843735
Si       7.33020025       6.21121350       2.82843735
Si       7.08476140       3.24253288       2.82843735
Si       8.54940029       6.89540185       7.26592072
Si       5.88263688       3.95629692       7.26592072
Si       9.76135812       3.11636452       7.26592072
Si      10.39445357       5.34586668       6.36012329
Si       6.30204706       6.32892751       6.36012329
Si       7.49689467       2.29326910       6.36012329
Si       9.26271113       8.40120949       5.56717431
Si       4.22191379       3.82113840       5.56717431
Si      10.70877037       1.74571540       5.56717431
Si       5.28472917       1.56074307       2.76564725
Si       4.07045696       3.79633818       2.76564725
Si       2.74151091       1.62695004       2.76564725
24
Lattice="8.064387100242152 -7.06900665726497e-12 -2.626249586854461e-13 4.032193550127209 6.9839640947576935 2.669966789096165e-13 4.032193550123405 2.327988031583061 8.540731665340422" Properties=species:S:1:pos:R:3 unique_starting_index=24 config_type=initial n_minim_iter=15 stress="-0.0020527590297699048 2.372656690719261e-16 -1.490988543000625e-16 2.372656690719261e-16 -0.0020527590297669505 2.3876588974212796e-16 -1.490988543000625e-16 2.3876588974212796e-16 -0.004288901926681224" pbc="T T T"
Si       9.48637444       5.10465520       8.63791052
Si       6.96482510       5.66311366       8.63791052
Si       7.74196055       3.20015864       8.63791052
Si       9.10465742       3.70191612       5.02920682
Si       8.37049128       6.03390656       5.02920682
Si       6.71801139       4.23210481       5.02920682
Si       9.00922370       2.71474808       1.43824931
Si       9.27312074       6.44484255       1.43824931
Si       5.91081565       4.80833686       1.43824931
Si       9.76730434       4.51260652       2.80014282
Si       7.33708934       6.20243042       2.80014282
Si       7.08876641       3.25289055       2.80014282
Si       8.53366674       6.90364650       7.22477423
Si       5.88320678       3.93854893       7.22477423
Si       9.77628658       3.12573206       7.22477423
Si      10.39853662       5.36370437       6.31258141
Si       6.28440084       6.32354469       6.31258141
Si       7.51022263       2.28067843       6.31258141
Si       9.26685832       8.40067310       5.52333886
Si       4.22014793       3.82499817       5.52333886
Si      10.70615385       1.74225623       5.52333886
Si       5.28227509       1.55249456       2.78511303
Si       4.07874903       3.79833714       2.78511303
Si       2.73555533       1.63313171       2.78511303
24
Lattice="8.116944384306334 -7.074286460129696e-12 -2.6434765926415794e-13 4.058472192159305 7.029480037911186 2.68648772436043e-13 4.058472192155493 2.3431600126342316 8.392590449823487" Properties=species:S:1:pos:R:3 unique_starting_index=24 config_type=initial n_minim_iter=16 stress="-0.0017981061162106072 3.598240139950912e-16 -4.754279115326571e-16 3.598240139950912e-16 -0.0017981061162078175 8.919091377829355e-16 -4.754279115326571e-16 8.919091377829355e-16 -0.011892301964962321" pbc="T T T"
Si       9.55504624       5.11082698       8.47661843
Si       7.03025884       5.71949929       8.47661843
Si       7.76552686       3.22863311       8.47661843
Si       9.15061758       3.72493229       4.93819554
Si       8.43269318       6.06220114       4.93819554
Si       6.76752118       4.27182595       4.93819554
Si       9.09362097       2.67982105       1.46180355
Si       9.36628437       6.53539625       1.46180355
Si       5.89092660       4.84374208       1.46180355
Si       9.84365793       4.55563010       2.74443458
Si       7.36676760       6.24704278       2.74443458
Si       7.14040641       3.25628649       2.74443458
Si       8.58985810       6.94310287       7.10414529
Si       5.92605544       3.96748389       7.10414529
Si       9.83491840       3.14837261       7.10414529
Si      10.47189406       5.41250308       6.15142967
Si       6.31057577       6.36267474       6.15142967
Si       7.56836211       2.28378156       6.15142967
Si       9.33837266       8.44731098       5.41071522
Si       4.24911572       3.86361246       5.41071522
Si      10.76334355       1.74803593       5.41071522
Si       5.34486392       1.53159014       2.77447775
Si       4.11811564       3.86299287       2.77447775
Si       2.71243580       1.63489633       2.77447775
24
Lattice="8.138673335093479 -7.032456675096393e-12 -2.642698316526042e-13 4.069336667552843 7.048297861290457 2.7043360895406074e-13 4.069336667549053 2.3494326204273333 8.436329409903788" Properties=species:S:1:pos:R:3 unique_starting_index=24 config_type=initial n_minim_iter=17 stress="2.193113922129814e-05 3.817439440364514e-16 -7.685349834868463e-17 3.817439440364514e-16 2.193113922441082e-05 7.275345024181778e-16 -7.685349834868463e-17 7.275345024181778e-16 -0.0010894543489677825" pbc="T T T"
Si       9.56578964       5.10823730       8.50485421
Si       7.07058777       5.73009819       8.50485421
Si       7.77964138       3.25825953       8.50485421
Si       9.16093304       3.76036678       4.94537829
Si       8.44030618       6.05341735       4.94537829
Si       6.81477957       4.28281090       4.94537829
Si       9.14543972       2.62373440       1.50473725
Si       9.43240536       6.60831593       1.50473725
Si       5.83817371       4.86454469       1.50473725
Si       9.88909609       4.57378277       2.75589982
Si       7.37178574       6.27731706       2.75589982
Si       7.15513695       3.24549520       2.75589982
Si       8.61428608       6.96357191       7.15874576
Si       5.93957264       3.97840463       7.15874576
Si       9.86216006       3.15461848       7.15874576