12
Lattice="2.492204094149525 1.2391116973685134e-14 -6.944210278291607e-15 -4.6449418399627775e-14 9.342291816973447 3.7998664964822036e-13 4.576831172801011e-14 -4.671145908487059 8.090662043066308" Properties=species:S:1:pos:R:3 unique_starting_index=66 config_type=initial n_minim_iter=14 energy=-1952.3152254203108 free_energy=-1952.3152254203108 pbc="T T T"
Si       1.86219265      -2.43768421       8.16083646
Si       1.86219265       3.61518790       6.12134027
Si       1.86219265      -1.17750367       1.89914735
Si       0.63001145       7.10883014      -0.07017442
Si       0.63001145       1.05595802       1.96932177
Si       0.63001145       5.84864959       6.19151469
Si       1.24677218      -0.17848341       4.00411576
Si       1.24677218      -1.11423823       6.24317533
Si       1.24677218       1.29272165       5.93403299
Si       1.24543191       4.84962933       4.08654628
Si       1.24543191       5.78538415       1.84748671
Si       1.24543191       3.37842427       2.15662905
