18
Lattice="7.3317329400608084 1.4000695826139093e-06 4.9769639226718526e-15 3.6658651093273953 7.12558302838897 -0.12314700229025469 3.6658660188270806 2.362813417793844 10.936941326343424" Properties=species:S:1:pos:R:3 unique_starting_index=182 config_type=initial n_minim_iter=1 energy=-2916.4348131022803 free_energy=-2916.4348131022803 pbc="T T T"
Si       3.26985201       1.77330203       1.91877587
Si       6.93571825       2.97089743       3.48812130
Si      11.39361205       7.71509580       8.89501846
Si       7.72774581       6.51750040       7.32567304
Si       5.65242932       7.10735783       7.36620068
Si       9.31829578       7.12523758       8.85449081
Si       9.01103474       2.38104000       3.44759365
Si       5.34516828       2.36316025       1.95930352
Si       4.69808092       3.19289873       4.11141100
Si       1.03221476       1.55129988       1.29548617
Si       9.96538315       6.29549910       6.70238334
Si      13.63124930       7.93709795       9.51830816
Si       6.41348033       4.09766785       5.42039969
Si       2.74761452       0.64653141      -0.01350252
Si       8.24998373       5.39072998       5.39339464
Si      11.91584954       8.84186642      10.82729686
Si       5.49879948       1.18140740       5.46847067
Si       1.83293255       3.56279151      -0.06157350
18
Lattice="7.307357120787718 1.395414770040589e-06 5.000904159771146e-15 3.6536772161627407 7.039324811927427 -0.1812072482439407 3.653678132094012 2.2428749657567595 10.808494927393795" Properties=species:S:1:pos:R:3 unique_starting_index=182 config_type=initial n_minim_iter=2 stress="-0.007635703880209739 -5.198248487547492e-10 9.09835115320374e-10 -5.198248487547492e-10 -0.004913540930545429 -0.004764526658993885 9.09835115320374e-10 -0.004764526658993885 -0.012137473577621077" pbc="T T T"
Si       3.25224432       1.73120377       1.89298223
Si       6.90592266       2.90989734       3.42066161
Si      11.36246814       7.55099738       8.73430545
Si       7.70878981       6.37230382       7.20662607
Si       5.61667935       6.96024246       7.21749803
Si       9.27035791       6.96305794       8.72343350
Si       8.99803311       2.32195870       3.40978966
Si       5.34435455       2.31914322       1.90385419
Si       4.66701050       3.11336853       4.04316591
Si       1.01333224       1.52773173       1.27047794
Si       9.94770196       6.16883263       6.58412178
Si      13.60138022       7.75446943       9.35680975
Si       6.38718829       3.99459585       5.33774075
Si       2.73351037       0.64650507      -0.02409690
Si       8.22752417       5.28760531       5.28954694
Si      11.88120210       8.63569609      10.65138459
Si       5.48051762       1.12143817       5.40424747
Si       1.82683860       3.51966240      -0.09060362
18
Lattice="7.479489993236063 1.428285307895195e-06 5.106042620746451e-15 3.7397437170608736 6.700647227230251 -0.36000202340569504 3.7397446421031955 1.8564856269378405 10.828394290495348" Properties=species:S:1:pos:R:3 unique_starting_index=182 config_type=initial n_minim_iter=3 stress="0.0060915516323219775 -3.4915173609498065e-10 1.3822261567641302e-09 -3.4915173609498065e-10 0.007919951181294127 -0.007238293632811107 1.3822261567641302e-09 -0.007238293632811107 -0.006450439017352175" pbc="T T T"
Si       3.28545122       1.56982042       1.92053818
Si       7.02519600       2.70874725       3.31365796
Si      11.67352712       6.98731385       8.54785410
Si       7.93378234       5.84838702       7.15473432
Si       5.63410508       6.44588478       6.97966064
Si       9.37385008       6.38981520       8.72292777
Si       9.32487327       2.11124948       3.48873164
Si       5.58512826       2.16731906       1.74546451
Si       4.66840645       2.81802167       3.98886717
Si       0.92866171       1.46054510       1.24532897
Si      10.29057190       5.73911260       6.47952510
Si      14.03031663       7.09658917       9.22306331
Si       6.50284972       3.61410886       5.31658350
Si       2.76310529       0.66445861      -0.08238735
Si       8.45612862       4.94302541       5.15180878
Si      12.19587306       7.89267566      10.55077963
Si       5.60961731       0.92824352       5.41419715
Si       1.86987186       3.35032361      -0.18000101
18
Lattice="7.406331480231981 1.4143149247285249e-06 1.216953450201182e-15 3.7031645915208697 6.014839315615673 -0.38067148772657117 3.70316543422969 1.6018329223162926 11.087820787146297" Properties=species:S:1:pos:R:3 unique_starting_index=182 config_type=initial n_minim_iter=4 stress="0.002772836488964158 -2.1303720982413112e-09 1.2720403964967048e-09 -2.1303720982413112e-09 0.013928936420093577 -0.006661287061872875 1.2720403964967048e-09 -0.006661287061872875 0.00019622227379161418" pbc="T T T"
Si       3.20506964       1.36474926       2.04274314
Si       6.90823517       2.44358807       3.31083152
Si      11.60759186       6.25192438       8.66440617
Si       7.90442633       5.17308556       7.39631779
Si       5.44196422       5.75467478       6.98733580
Si       9.14512998       5.67033423       9.07338816
Si       9.37069728       1.86199886       3.71981351
Si       5.66753152       1.94633941       1.63376115
Si       4.48696362       2.45701457       4.07164815
Si       0.78379809       1.35132183       1.28192651
Si      10.32569788       5.15965907       6.63550116
Si      14.02886341       6.26535181       9.42522280
Si       6.39126316       3.15390269       5.49927857
Si       2.68809789       0.65443444      -0.14570391
Si       8.42139834       4.46277095       5.20787074
Si      12.12456361       6.96223920      10.85285322
Si       5.55474845       0.80091716       5.54391040
Si       1.85158229       3.00741965      -0.19033574
18
Lattice="7.4664273147625355 1.4257908404862505e-06 1.1308129394128983e-15 3.7332125769227837 5.658028756676781 -0.34419302379734823 3.7332133632069993 1.5405006259954497 11.145356517136369" Properties=species:S:1:pos:R:3 unique_starting_index=182 config_type=initial n_minim_iter=5 stress="0.00029596310955796003 -1.4560879127530799e-09 1.3891861152108763e-09 -1.4560879127530799e-09 0.007921044620377427 -0.007274743439406478 1.3891861152108763e-09 -0.007274743439406478 0.000532198835087397" pbc="T T T"
Si       3.21565359       1.27763765       2.08685366
Si       6.94886704       2.32162825       3.31372810
Si      11.71719966       5.92089314       8.71430984
Si       7.98398621       4.87690254       7.48743541
Si       5.43638151       5.43932036       6.98864409
Si       9.16959519       5.35847435       9.21310116
Si       9.49647173       1.75921043       3.81251942
Si       5.76325806       1.84005645       1.58806234
Si       4.46855135       2.30600367       4.10012247
Si       0.73533788       1.29326129       1.30045929
Si      10.46430190       4.89252713       6.70104104
Si      14.19751537       5.90526950       9.50070421
Si       6.42189737       2.96233071       5.56891581
Si       2.68868416       0.63693499      -0.16833405
Si       8.51095588       4.23620008       5.23224770
Si      12.24416909       6.56159580      10.96949755
Si       5.59982034       0.77025102       5.57267826
Si       1.86660629       2.82901437      -0.17209651
18
Lattice="7.528553778283907 1.437654527314409e-06 8.269325269793269e-16 3.7642758820424285 5.273870517634813 -0.08243833351708252 3.7642765427536737 1.813929328528957 11.090438297946571" Properties=species:S:1:pos:R:3 unique_starting_index=182 config_type=initial n_minim_iter=6 stress="-0.008768274889195224 1.8431785732835032e-09 5.80761590392026e-10 1.8431785732835032e-09 -0.018420435473969942 -0.003041274750220202 5.80761590392026e-10 -0.003041274750220202 -0.0034692900015481504" pbc="T T T"
Si       3.24167485       1.25458681       2.12840550
Si       7.00595154       2.28931434       3.37559450
Si      11.81543135       5.83321446       8.87959448
Si       8.05115466       4.79848693       7.63240548
Si       5.45811785       5.31532752       7.08215185
Si       9.22239473       5.31637288       9.42984810
Si       9.59898835       1.77247375       3.92584812
Si       5.83471146       1.77142839       1.57815187
Si       4.45768455       2.27942413       4.15205269
Si       0.69340786       1.26447605       1.35194730
Si      10.59942165       4.80837715       6.85594728
Si      14.36369834       5.82332522       9.65605267
Si       6.45092169       2.94361072       5.67093720
Si       2.68664525       0.60029022      -0.16693721
Si       8.60618450       4.14419055       5.33706278
Si      12.37046094       6.48751106      11.17493718
Si       5.64641516       0.90696538       5.54521915
Si       1.88213794       2.63693525      -0.04121916
18
Lattice="7.481630719673805 1.4286940887567186e-06 7.120655446799094e-16 3.740814324323707 5.422664156173476 0.1884386639798935 3.7408149250138383 2.27703504814789 10.974809202136754" Properties=species:S:1:pos:R:3 unique_starting_index=182 config_type=initial n_minim_iter=7 stress="-0.0062170807242376835 6.420775018561108e-10 -7.33969575890499e-10 6.420775018561108e-10 -0.009579443282347092 0.003843568909354091 -7.33969575890499e-10 0.003843568909354091 0.004911094038608878" pbc="T T T"
Si       3.25777016       1.37542832       2.11379176
Si       6.99858531       2.47442251       3.46783218
Si      11.70548980       6.32427230       9.04945611
Si       7.96467465       5.22527811       7.69541569
Si       5.50189153       5.72847142       7.24413483
Si       9.24270687       5.82107805       9.50073698
Si       9.46136843       1.97122921       3.91911304
Si       5.72055309       1.87862257       1.66251090
Si       4.47434833       2.51515710       4.18462822
Si       0.73353320       1.33469277       1.39699572
Si      10.48891163       5.18454352       6.97861965
Si      14.22972676       6.36500785       9.76625216
Si       6.41790105       3.26489058       5.71236491
Si       2.67708620       0.58496003      -0.13074097
Si       8.54535891       4.43481004       5.45088296
Si      12.28617376       7.11474059      11.29398885
Si       5.61122282       1.13851823       5.48740461
Si       1.87040716       2.71133207       0.09421934
18
Lattice="7.866832441226999 1.5022523045722264e-06 2.4568521472214206e-15 3.933415127760979 5.722932589265047 0.7574752771162195 3.933415604607411 3.225834770645502 9.576092554117706" Properties=species:S:1:pos:R:3 unique_starting_index=182 config_type=initial n_minim_iter=8 stress="0.011988936718485632 3.3109550459860204e-09 -3.072570570200091e-09 3.3109550459860204e-09 -0.0053495120516689745 0.0160901011880795 -3.072570570200091e-09 0.0160901011880795 0.007271908792783005" pbc="T T T"
Si       3.52410956       1.59358349       1.91367912
Si       7.45752554       2.88080153       3.25310480
Si      12.20955360       7.35518536       8.41988871
Si       8.27613763       6.06796732       7.08046304
Si       5.92195050       6.55176305       6.61344978
Si       9.85536665       6.87138874       8.88690198
Si       9.81171267       2.39700581       3.72011806
Si       5.87829651       2.07738011       1.44666586
Si       4.60883138       2.98003362       3.76313862
Si       0.67541544       1.49435031       1.40364530
Si      11.12483179       5.96873523       6.57042922
Si      15.05824773       7.45441854       8.92992253
Si       6.65325418       3.94225364       5.33127119
Si       2.71983861       0.53213106      -0.16448727
Si       9.08040899       5.00651521       5.00229664
Si      13.01382456       8.41663779      10.49805511
Si       5.90012402       1.61291813       4.78804628
Si       1.96670756       2.86146629       0.37873764
18
Lattice="7.831266102811454 1.495460547369527e-06 1.9671537138178313e-15 3.915631932660626 5.858524056952877 0.7373762027217153 3.9156324340839697 3.232724500080867 9.158205837728618" Properties=species:S:1:pos:R:3 unique_starting_index=182 config_type=initial n_minim_iter=9 stress="0.014149482833487848 2.6000590123008576e-09 -2.726084445022767e-09 2.6000590123008576e-09 0.000533778142384241 0.014275659283289686 -2.726084445022767e-09 0.014275659283289686 -0.0036479551649634574" pbc="T T T"
Si       3.53027009       1.60736935       1.83391328
Si       7.44590289       2.93825627       3.11387775
Si      12.13226037       7.48388069       8.06166877
Si       8.21662757       6.15299377       6.78170430
Si       5.90767997       6.65227091       6.23859144
Si       9.82331295       6.98460268       8.60478163
Si       9.75485050       2.43897913       3.65699061
Si       5.83921751       2.10664736       1.29080042
Si       4.50931383       3.02705227       3.57373116
Si       0.59368107       1.51857222       1.37405987
Si      11.15321663       6.06419777       6.32185089
Si      15.06884940       7.57267782       8.52152218
Si       6.57726047       4.01712102       5.15590097
Si       2.66162808       0.52850426      -0.20810994
Si       9.08527000       5.07412902       4.73968108
Si      13.00090238       8.56274578      10.10369199
Si       5.87344927       1.61636299       4.57910292
Si       1.95781596       2.92926202       0.36868810
18
Lattice="7.5766073083070165 1.4468308377733104e-06 2.522303990603473e-15 3.7883025318306935 5.877259410303884 0.41643808219611494 3.788303129398164 2.747982696263621 9.253585724358302" Properties=species:S:1:pos:R:3 unique_starting_index=182 config_type=initial n_minim_iter=10 stress="0.0017628586284150537 -7.58577118795805e-10 5.941633486975775e-10 -7.58577118795805e-10 0.005735295086040241 -0.0031114540326702264 5.941633486975775e-10 -0.0031114540326702264 0.002006167763171514" pbc="T T T"
Si       3.40759930       1.50867761       1.80581573
Si       7.19590271       2.80394473       3.02919618
Si      11.74561366       7.11656593       7.86420808
Si       7.95731025       5.82129881       6.64082763
Si       5.68803966       6.36710919       5.98028133
Si       9.47634327       6.57075468       8.52475439
Si       9.46517331       2.25813435       3.68974248
Si       5.67686969       2.05448886       1.14526943
Si       4.30473067       2.85823785       3.49557535
Si       0.51642729       1.45438339       1.33943656
Si      10.84848229       5.76700569       6.17444847
Si      14.63678568       7.17086016       8.33058725
Si       6.33934747       3.76466778       5.10735787
Si       2.55104444       0.54795423      -0.27234596
Si       8.81386549       4.86057576       4.56266594
Si      12.60216853       8.07728931       9.94236978
Si       5.68245522       1.37399207       4.62679287
Si       1.89415126       2.93862970       0.20821904
18
Lattice="7.490329651096699 1.4303552340722482e-06 1.7933611147148917e-15 3.7451637152742467 5.814164005336685 0.44309775928495804 3.745164297148132 2.7670697627837715 9.200915374615956" Properties=species:S:1:pos:R:3 unique_starting_index=182 config_type=initial n_minim_iter=11 stress="-0.009087540064273668 -2.6639791997235027e-10 2.5826652913672063e-10 -2.6639791997235027e-10 -0.007692493668729244 -0.0013524663586057856 2.5826652913672063e-10 -0.0013524663586057856 -0.007581238691300136" pbc="T T T"
Si       3.36645323       1.48679959       1.79687625
Si       7.11161781       2.80381857       3.02513032
Si      11.61420442       7.09443560       7.84713689
Si       7.86903985       5.77741662       6.61888282
Si       5.61602088       6.32843468       5.90454384
Si       9.36118566       6.54341668       8.56147587
Si       9.36463678       2.25280051       3.73946930
Si       5.61947200       2.03781851       1.08253727
Si       4.21280289       2.85259301       3.47508788
Si       0.46763834       1.43802404       1.34691869
Si      10.76785477       5.72864217       6.16892526
Si      14.51301932       7.14321115       8.29709445
Si       6.24264684       3.75640404       5.11829524
Si       2.49748263       0.53421378      -0.29628867
Si       8.73801082       4.82483114       4.52571790
Si      12.48317503       8.04702140       9.94030181
Si       5.61774697       1.38353559       4.60045769
Si       1.87258185       2.90708200       0.22154888
18
Lattice="7.481009700791837 1.4285754912570532e-06 3.680957392301451e-15 3.740503736596194 5.832626586189073 0.42541359955023383 3.740504326049308 2.7458422955485 9.188969776606518" Properties=species:S:1:pos:R:3 unique_starting_index=182 config_type=initial n_minim_iter=12 stress="0.00016212244920120692 5.001325034738792e-10 -5.465303802045857e-10 5.001325034738792e-10 -0.002456915220976781 0.0028620068272874853 -5.465303802045857e-10 0.0028620068272874853 -0.0006191858610595502" pbc="T T T"
Si       3.35998689       1.46092155       1.76933696
Si       7.10049148       2.82831416       3.03785474
Si      11.60203087       7.11754875       7.84504643
Si       7.86152628       5.75015613       6.57652864
Si       5.62796435       6.33597066       5.82103685
Si       9.36846916       6.53173337       8.60053822
Si       9.33405341       2.24249964       3.79334654
Si       5.59354860       2.04673693       1.01384516
Si       4.18527206       2.88526791       3.46005142
Si       0.44476749       1.40396668       1.34714028
Si      10.77674569       5.69320238       6.15433197
Si      14.51725026       7.17450361       8.26724310
Si       6.20770648       3.76715542       5.13424235
Si       2.46720225       0.52207995      -0.32705065
Si       8.75431128       4.81131488       4.48014103
Si      12.49481551       8.05639034       9.94143404
Si       5.61075701       1.37292186       4.59448489
Si       1.87025187       2.91631329       0.21270680
18
Lattice="7.373725542665149 1.4080884799435142e-06 3.921664465938673e-15 3.6868616501999063 5.871026940324621 0.31613249475860267 3.6868622762798613 2.592439174407007 9.281393185391037" Properties=species:S:1:pos:R:3 unique_starting_index=182 config_type=initial n_minim_iter=13 stress="0.0060309646476473435 -6.0147420006832e-10 -7.162242666005956e-10 -6.0147420006832e-10 0.009180701223735337 0.00375064152759551 -7.162242666005956e-10 0.00375064152759551 0.012925291804886618" pbc="T T T"
Si       3.29301445       1.40020528       1.72724959
Si       6.97987695       2.83152902       3.07151326
Si      11.45443501       7.06326223       7.87027610
Si       7.76757252       5.63193849       6.52601243
Si       5.57150670       6.28881604       5.73410949
Si       9.25836945       6.40638384       8.66217903
Si       9.17594276       2.17465147       3.86341619
Si       5.48908001       2.05708367       0.93534665
Si       4.12777198       2.90837257       3.46550456
Si       0.44090952       1.32336065       1.33325829
Si      10.61967748       5.55509494       6.13202113
Si      14.30653995       7.14010686       8.26426740
Si       6.09426396       3.72023634       5.16580946
Si       2.40740181       0.51149762      -0.36704661
Si       8.65318550       4.74323117       4.43171623
Si      12.34004766       7.95196989       9.96457230
Si       5.53029391       1.29622028       4.64069660
Si       1.84343082       2.93551346       0.15806625
18
Lattice="7.434439412529192 1.4196824145567127e-06 2.9707682165171407e-15 3.7172186043957027 5.7701484907325264 0.20888584964074572 3.717219249227956 2.39336071082984 9.222578429438443" Properties=species:S:1:pos:R:3 unique_starting_index=182 config_type=initial n_minim_iter=14 stress="0.0072206825968016836 -2.804481598680253e-10 -2.2008776358501045e-10 -2.804481598680253e-10 0.008689303977481239 0.0011525279549035059 -2.2008776358501045e-10 0.0011525279549035059 0.010549467998178567" pbc="T T T"
Si       3.28582861       1.32152467       1.67190225
Si       7.00304804       2.76023117       3.04382990
Si      11.58304865       6.84198593       7.75956204
Si       7.86582922       5.40327944       6.38763439
Si       5.61768297       6.10265464       5.61617492
Si       9.33490266       6.14260988       8.53102150
Si       9.25119429       2.06085597       3.81528936
Si       5.53397460       2.02090073       0.90044278
Si       4.19391802       2.85578061       3.42845974
Si       0.47669862       1.22597416       1.28727241
Si      10.67495924       5.30773000       6.00300455
Si      14.39217864       6.93753645       8.14419188
Si       6.14101101       3.58646971       5.09090228
Si       2.42379190       0.49528580      -0.37517013
Si       8.72786625       4.57704090       4.34056201
Si      12.44508536       7.66822480       9.80663442
Si       5.57582933       1.19668106       4.61128922
Si       1.85860930       2.88507424       0.10444293
18
Lattice="7.460188698406319 1.4245995051231557e-06 4.016967123380393e-15 3.7300932594095193 5.706914109685024 0.18997284310695553 3.730093901931363 2.342225245003072 9.156734026386706" Properties=species:S:1:pos:R:3 unique_starting_index=182 config_type=initial n_minim_iter=15 stress="0.0019811293124946537 -4.0016059839487616e-10 -3.5160127769296884e-12 -4.0016059839487616e-10 0.0040766482121785295 1.840889777743208e-05 -3.5160127769296884e-12 1.840889777743208e-05 0.002904181281264202" pbc="T T T"
Si       3.28101670       1.29441839       1.64729280
Si       7.01111077       2.73015253       3.02606064
Si      11.63935916       6.75472238       7.69941408
Si       7.90926508       5.31898823       6.32064624
Si       5.63637645       6.02663394       5.58353140
Si       9.36647079       6.04707580       8.43652891
Si       9.28399940       2.02250682       3.76317547
Si       5.55390506       2.00206496       0.91017797
Si       4.23361890       2.83870614       3.41038048
Si       0.50352487       1.18586372       1.26297296
Si      10.68675695       5.21043463       5.93632640
Si      14.41685099       6.86327705       8.08373392
Si       6.16419162       3.54206158       5.04330932
Si       2.43409786       0.48250902      -0.36995588
Si       8.75618423       4.50707919       4.30339756
Si      12.48627799       7.56663175       9.71666276
Si       5.59514130       1.17111333       4.57836702
Si       1.86504663       2.85345705       0.09498643
18
Lattice="7.517481240104006 1.4355401021344926e-06 5.602962321495086e-15 3.758739546691822 5.620857150462529 0.16775035769094712 3.7587401849545086 2.2784721956675544 9.092622592021081" Properties=species:S:1:pos:R:3 unique_starting_index=182 config_type=initial n_minim_iter=16 stress="-0.0024246109514662315 -2.2322673288732842e-10 2.560972459397567e-10 -2.2322673288732842e-10 -0.0012556407611047293 -0.0013411060516915054 2.560972459397567e-10 -0.0013411060516915054 -0.0044313100922711585" pbc="T T T"
Si       3.29239004       1.26335086       1.62735090
Si       7.05113039       2.68631506       3.00283558
Si      11.74257093       6.63597991       7.63302206
Si       7.98383058       5.21301571       6.25753737
Si       5.67811723       5.92519663       5.55397203
Si       9.43685785       5.92379811       8.33658741
Si       9.35684373       1.97413414       3.70640093
Si       5.59810311       1.97553266       0.92378555
Si       4.29021736       2.80816965       3.39011193
Si       0.53147706       1.14149521       1.24007455
Si      10.74474361       5.09116112       5.87026103
Si      14.50348391       6.75783556       8.02029840
Si       6.20806744       3.48487222       5.00091365
Si       2.44932740       0.46479338      -0.37072717
Si       8.82689352       4.41445855       4.25945931
Si      12.58563357       7.43453739       9.63110013
Si       5.63811071       1.13923681       4.54631130
Si       1.87936977       2.81042857       0.08387518
18
Lattice="7.642778013032481 1.4594668049797137e-06 9.34223765748416e-15 3.821387966506879 5.446209181649526 0.1253310687572078 3.8213885952725923 2.1535569899235836 8.983030614108845" Properties=species:S:1:pos:R:3 unique_starting_index=182 config_type=initial n_minim_iter=17 stress="-0.00921700132483425 5.202919959853186e-10 5.711836300006256e-10 5.202919959853186e-10 -0.011941610229174105 -0.00299111542371726 5.711836300006256e-10 -0.00299111542371726 -0.013015658316300062" pbc="T T T"
Si       3.32640007       1.20048872       1.59733862
Si       7.14778881       2.59939563       2.95684222
Si      11.95915450       6.39927890       7.51102307
Si       8.13776576       5.00037199       6.15151947
Si       5.77406672       5.72542162       5.50528410
Si       9.59545574       5.67422837       8.15725843
Si       9.51148785       1.87434600       3.60307759
Si       5.69009883       1.92553925       0.95110326
Si       4.40236627       2.75227956       3.35057778
Si       0.58097759       1.04760374       1.20360307
Si      10.88318830       4.84748806       5.75778391
Si      14.70457698       6.55216388       7.90475862
Si       6.28350296       3.38112339       4.94805727
Si       2.46211452       0.41876062      -0.39387642
Si       9.00205161       4.21864423       4.16030442
Si      12.82344005       7.18100700       9.50223811
Si       5.73208330       1.07677922       4.49151531
Si       1.91069398       2.72310458       0.06266554
18
Lattice="7.812385603251911 1.491855106404856e-06 1.3739389797929366e-14 3.9061917786819196 5.356843323243721 0.08705958232051877 3.9061924079877617 2.061362708455417 8.762073294620441" Properties=species:S:1:pos:R:3 unique_starting_index=182 config_type=initial n_minim_iter=18 stress="-0.004730125789388788 1.4353798129210595e-09 3.1537145950414163e-10 1.4353798129210595e-09 -0.012246768398641259 -0.0016515028891850288 3.1537145950414163e-10 -0.0016515028891850288 -0.00421847461279871" pbc="T T T"
Si       3.38821562       1.14492362       1.55704387
Si       7.29440815       2.56418067       2.86752258
Si      12.23655417       6.27328389       7.29208902
Si       8.33036164       4.85402684       5.98161030
Si       5.91820532       5.63587522       5.40001328
Si       9.82439815       5.49143458       7.87368604
Si       9.70656447       1.78233229       3.44911960
Si       5.80037164       1.92677293       0.97544684
Si       4.53281609       2.77614318       3.25821449
Si       0.62662364       0.93296007       1.16635196
Si      11.09195369       4.64206434       5.59091840
Si      14.99814614       6.48524744       7.68278093
Si       6.32939690       3.36307449       4.89486507
Si       2.42320467       0.34602944      -0.47029862
Si       9.29537288       4.05513302       3.95426782
Si      13.20156511       7.07217807       9.31943151
Si       5.85928900       1.03068209       4.38103665
Si       1.95309589       2.67842166       0.04352979
18
Lattice="7.842871751200377 1.4976767372694332e-06 2.0118627041527687e-14 3.921434821326282 5.520908138571751 0.09659205198718454 3.9214354698025153 2.125038180938875 8.451991154504107" Properties=species:S:1:pos:R:3 unique_starting_index=182 config_type=initial n_minim_iter=19 stress="0.005550925443030269 3.7230131103793743e-10 -7.295664538209638e-10 3.7230131103793743e-10 0.003601298749939626 0.0038205177189454408 -7.295664538209638e-10 0.0038205177189454408 0.006266241878038976" pbc="T T T"
Si       3.40226499       1.15398526       1.51115083
Si       7.32370058       2.66898919       2.76314078
Si      12.28347704       6.49196255       7.03743238
Si       8.36204146       4.97695862       5.78544244
Si       5.95255453       5.85365957       5.23501713
Si       9.87399045       5.61526067       7.58785769
Si       9.73318751       1.79228823       3.31356608
Si       5.81175159       2.03068713       0.96072553
Si       4.53792021       2.93354087       3.13265575
Si       0.61648472       0.88943251       1.14163586
Si      11.14782183       4.71240693       5.41592746
Si      15.06925731       6.75651530       7.40694736
Si       6.25338283       3.51613823       4.81629793
Si       2.33194757       0.30683581      -0.54200632
Si       9.43235921       4.12980958       3.73228528
Si      13.35379447       7.33911199       9.09058954
Si       5.88215361       1.06251983       4.22599558
Si       1.96071741       2.76045406       0.04829603
18
Lattice="7.892913925631449 1.507232786090316e-06 3.767444674736142e-14 3.946455894095811 5.596557346806383 0.022654497708003696 3.9464565750841265 2.0304318214742803 8.092911002933636" Properties=species:S:1:pos:R:3 unique_starting_index=182 config_type=initial n_minim_iter=20 stress="0.00767193656287518 1.43851105625847e-10 -7.940409118747434e-10 1.43851105625847e-10 0.0069186344233057905 0.004158157664121587 -7.940409118747434e-10 0.004158157664121587 0.0028271049313267718" pbc="T T T"
Si       3.41029625       1.10382220       1.43521190
Si       7.35675290       2.70967367       2.62257086
Si      12.37553014       6.52316846       6.68035361
Si       8.42907349       4.91731699       5.49299465
Si       6.00075438       5.91587835       4.96557787
Si       9.94721142       5.52460618       7.20777039
Si       9.78507200       1.71111232       3.14998764
Si       5.83861497       2.10238449       0.90779512
Si       4.55388400       3.03530275       2.95899522
Si       0.60742747       0.77819206       1.09878754
Si      11.23194239       4.59168791       5.15657029
Si      15.17839892       6.84879861       7.01677797
Si       6.16862724       3.55721187       4.68947975
Si       2.22217091       0.25628355      -0.63169699
Si       9.61719914       4.06977879       3.42608576
Si      13.56365548       7.37070711       8.74726250
Si       5.91968525       1.01521666       4.04645550
Si       1.97322794       2.79827867       0.01132725
18
Lattice="7.846543460131719 1.498377852119625e-06 5.0360195578259084e-14 3.9232706479627457 5.666640957869124 -0.038213639205836064 3.923271356263291 1.95748985710507 7.93344990110048" Properties=species:S:1:pos:R:3 unique_starting_index=182 config_type=initial n_minim_iter=21 stress="0.008684167257731575 -4.973496259525958e-10 -7.400750150728706e-10 -4.973496259525958e-10 0.011288637373756438 0.0038755613032506026 -7.400750150728706e-10 0.0038755613032506026 -0.0014040747914597527" pbc="T T T"
Si       3.39295670       1.07540736       1.39628233
Si       7.31622812       2.73665933       2.55133581
Si      12.30012876       6.54872494       6.49895394