12
Lattice="2.4870311388799746 1.2365397292863178e-14 -6.9297964952325276e-15 -4.6800502813119695e-14 9.412904822609246 3.6931371640997486e-13 4.611424804827338e-14 -4.706452411304943 8.151814699784476" Properties=species:S:1:pos:R:3 unique_starting_index=66 config_type=initial n_minim_iter=1 energy=-1952.2538140128754 free_energy=-1952.2538140128754 pbc="T T T"
Si       1.79196209      -2.48529195       8.30009225
Si       1.79196209       3.72428431       6.15409454
Si       1.79196209      -1.23899235       1.84944261
Si       0.69506905       7.19174437      -0.14827755
Si       0.69506905       0.98216811       1.99772016
Si       0.69506905       5.94544477       6.30237209
Si       1.22941575      -0.30623144       4.05089861
Si       1.22941575      -1.04515558       6.39156960
Si       1.22941575       1.35138703       5.86116118
Si       1.25761539       5.01268386       4.10091609
Si       1.25761539       5.75160800       1.76024509
Si       1.25761539       3.35506539       2.29065351
12
Lattice="2.4936193096468133 1.239815335598262e-14 -6.9481535965877585e-15 -4.6788827184547785e-14 9.410556523469587 3.684230471726584e-13 4.610274362418131e-14 -4.7052782617351125 8.14978101307385" Properties=species:S:1:pos:R:3 unique_starting_index=66 config_type=initial n_minim_iter=2 stress="0.0019092307237784099 -2.0753668564640672e-17 -1.1606815688511452e-16 -2.0753668564640672e-17 0.0005415050205882772 -2.1479321311656081e-16 -1.1606815688511452e-16 -2.1479321311656081e-16 0.0005415050205882772" pbc="T T T"
Si       1.79681449      -2.48420849       8.29725535
Si       1.79681449       3.72245991       6.15254100
Si       1.79681449      -1.23825140       1.84976567
Si       0.69680482       7.18948677      -0.14747434
Si       0.69680482       0.98281836       1.99724001
Si       0.69680482       5.94352967       6.30001534
Si       1.23272750      -0.30597927       4.04973600
Si       1.23272750      -1.04511436       6.38989884
Si       1.23272750       1.35109365       5.85992719
Si       1.26089181       5.01125755       4.10004501
Si       1.26089181       5.75039264       1.75988217
Si       1.26089181       3.35418462       2.28985383
12
Lattice="2.49389319617842 1.2399515106434205e-14 -6.948916746633269e-15 -4.660804777752561e-14 9.374196671547004 3.6813499763001115e-13 4.592461505896637e-14 -4.687098335773824 8.118292457631055" Properties=species:S:1:pos:R:3 unique_starting_index=66 config_type=initial n_minim_iter=3 stress="0.0007754584231968487 1.0690327539917462e-16 -6.463918977624513e-17 1.0690327539917462e-16 -0.0050370962587651755 -4.644662143198066e-16 -6.463918977624513e-17 -4.644662143198066e-16 -0.005037096258764726" pbc="T T T"
Si       1.79780645      -2.47072217       8.25842807
Si       1.79780645       3.70027127       6.12878659
Si       1.79780645      -1.22954908       1.84937025
Si       0.69608675       7.15782052      -0.14013562
Si       0.69608675       0.98682708       1.98950587
Si       0.69608675       5.91664743       6.26892221
Si       1.23336518      -0.30305458       4.03257409
Si       1.23336518      -1.04325943       6.36445838
Si       1.23336518       1.34631403       5.83955244
Si       1.26052802       4.99015293       4.08571836
Si       1.26052802       5.73035777       1.75383407
Si       1.26052802       3.34078432       2.27874002
12
Lattice="2.489779747429373 1.237906324025906e-14 -6.9374551439702255e-15 -4.6683459355516403e-14 9.389364072824394 3.768741650800266e-13 4.599892084638638e-14 -4.694682036412526 8.131427812446663" Properties=species:S:1:pos:R:3 unique_starting_index=66 config_type=initial n_minim_iter=4 stress="-1.8772307072102476e-05 2.5902395722726697e-16 7.337065304774614e-18 2.5902395722726697e-16 -0.000955774091448358 -3.749568896051982e-16 7.337065304774614e-18 -3.749568896051982e-16 -0.0009557740914470123" pbc="T T T"
Si       1.79790493      -2.46182549       8.24989572
Si       1.79790493       3.68084999       6.13848337
Si       1.79790493      -1.21902448       1.87447653
Si       0.69187482       7.15650754      -0.11846791
Si       0.69187482       1.01383206       1.99294444
Si       0.69187482       5.91370653       6.25695128
Si       1.23296539      -0.29751103       4.03434742
Si       1.23296539      -1.05207916       6.37190622
Si       1.23296539       1.34959021       5.85660199
Si       1.25681436       4.99219308       4.09708039
Si       1.25681436       5.74676121       1.75952159
Si       1.25681436       3.34509184       2.27482583
12
Lattice="2.486475327669058 1.2362633826682415e-14 -6.928247797863527e-15 -4.682874721584913e-14 9.418585570863712 3.805092519724582e-13 4.614207829186385e-14 -4.709292785432186 8.156734372085344" Properties=species:S:1:pos:R:3 unique_starting_index=66 config_type=initial n_minim_iter=5 stress="-0.00020582757485909284 -4.518814002987637e-17 -1.4595333331193188e-16 -4.518814002987637e-17 0.0043619939335022145 -5.184285647157521e-16 -1.4595333331193188e-16 -5.184285647157521e-16 0.0043619939335034046" pbc="T T T"
Si       1.79961663      -2.46691004       8.26854825
Si       1.79961663       3.68493508       6.15886701
Si       1.79961663      -1.21802502       1.88605348
Si       0.68685869       7.17620283      -0.11181388
Si       0.68685869       1.02435772       1.99786736
Si       0.68685869       5.92731782       6.27068089
Si       1.23211547      -0.28864036       4.05247931
Si       1.23211547      -1.05542257       6.38046460
Si       1.23211547       1.34406294       5.88052483
Si       1.25435986       4.99793316       4.10425506
Si       1.25435986       5.76471536       1.77626977
Si       1.25435986       3.36522985       2.27620954
12
Lattice="2.488054480300612 1.2370485296400664e-14 -6.932647906169577e-15 -4.664093124732129e-14 9.38081046740002 3.8398951354435676e-13 4.595701634510011e-14 -4.690405233700344 8.124020172855195" Properties=species:S:1:pos:R:3 unique_starting_index=66 config_type=initial n_minim_iter=6 stress="0.000298669139984157 2.0493070486409798e-17 4.413329108323253e-17 2.0493070486409798e-17 -0.0008404090999080649 -4.894916264753883e-16 4.413329108323253e-17 -4.894916264753883e-16 -0.0008404090999079149" pbc="T T T"
Si       1.80705691      -2.45156688       8.22181984
Si       1.80705691       3.65568306       6.13622945
Si       1.80705691      -1.20411617       1.88999105
Si       0.68099757       7.14197213      -0.09779967
Si       0.68099757       1.03472218       1.98779072
Si       0.68099757       5.89452141       6.23402912
Si       1.23445957      -0.27238033       4.04076662
Si       1.23445957      -1.05480852       6.33952516
Si       1.23445957       1.32718887       5.86774857
Si       1.25359491       4.96278558       4.08325356
Si       1.25359491       5.74521376       1.78449501
Si       1.25359491       3.36321638       2.25627160
12
Lattice="2.4873895811943934 1.2367179450535075e-14 -6.9307952492309795e-15 -4.6654355579874745e-14 9.383510480370763 3.8156214582668395e-13 4.597024383121759e-14 -4.691755240185713 8.126358452678405" Properties=species:S:1:pos:R:3 unique_starting_index=66 config_type=initial n_minim_iter=7 stress="-0.0009735018324119179 -6.189926276284991e-17 5.0668131753278445e-17 -6.189926276284991e-17 -6.4015384685287e-05 -2.739371628653783e-16 5.0668131753278445e-17 -2.739371628653783e-16 -6.401538468588638e-05" pbc="T T T"
Si       1.81167182      -2.45877893       8.22881936
Si       1.81167182       3.66400085       6.14131379
Si       1.81167182      -1.20522190       1.88258375
Si       0.67571777       7.15053418      -0.10246091
Si       0.67571777       1.02775441       1.98504466
Si       0.67571777       5.89697715       6.24377470
Si       1.23483570      -0.25922030       4.04071325
Si       1.23483570      -1.06278476       6.33049320
Si       1.23483570       1.32200508       5.88151046
Si       1.25255388       4.95097555       4.08564520
Si       1.25255388       5.75454001       1.79586525
Si       1.25255388       3.36975018       2.24484799
12
Lattice="2.489596858795289 1.2378153926907343e-14 -6.936945548012355e-15 -4.6566161599935466e-14 9.36577217652368 3.8364046429061054e-13 4.588334307539615e-14 -4.6828860882621735 8.110996630926781" Properties=species:S:1:pos:R:3 unique_starting_index=66 config_type=initial n_minim_iter=8 stress="-0.0029970030200811497 -2.6269779761341272e-17 3.2947293611291146e-17 -2.6269779761341272e-17 0.00012187058993225899 -3.017355708900428e-16 3.2947293611291146e-17 -3.017355708900428e-16 0.00012187058993120702" pbc="T T T"
Si       1.83956743      -2.45741362       8.19331920
Si       1.83956743       3.64144330       6.14251966
Si       1.83956743      -1.18402966       1.88615440
Si       0.65002943       7.14029972      -0.08232257
Si       0.65002943       1.04144280       1.96847697
Si       0.65002943       5.86691576       6.22484223
Si       1.24179536      -0.19447427       4.01832852
Si       1.24179536      -1.10567437       6.27025203
Si       1.24179536       1.30014866       5.93341271
Si       1.24780150       4.87736037       4.09266811
Si       1.24780150       5.78856047       1.84074460
Si       1.24780150       3.38273745       2.17758392
12
Lattice="2.4931371471590986 1.2395756067654773e-14 -6.946810112034943e-15 -4.6526232540121704e-14 9.357741313240354 3.8798787101011797e-13 4.584399951159008e-14 -4.678870656620513 8.104041699309102" Properties=species:S:1:pos:R:3 unique_starting_index=66 config_type=initial n_minim_iter=9 stress="-0.0006203548257434742 1.717581003883851e-17 1.285983725984832e-16 1.717581003883851e-17 0.00024223838039275975 -4.345333138030939e-16 1.285983725984832e-16 -4.345333138030939e-16 0.0002422383803924591" pbc="T T T"
Si       1.84852893      -2.44966321       8.17305659
Si       1.84852893       3.62403559       6.13898398
Si       1.84852893      -1.17437236       1.89604283
Si       0.64460822       7.12853388      -0.06901489
Si       0.64460822       1.05483508       1.96505771
Si       0.64460822       5.85324303       6.20799887
Si       1.24534625      -0.17970203       4.01213169
Si       1.24534625      -1.11441167       6.25360238
Si       1.24534625       1.29411372       5.94234932
Si       1.24779090       4.85857270       4.09191001
Si       1.24779090       5.79328233       1.85043931
Si       1.24779090       3.38475695       2.16169237
12
Lattice="2.494148710179049 1.2400785509559587e-14 -6.94962870395395e-15 -4.6508110755787793e-14 9.354096509853685 3.879785892909759e-13 4.5826143454333867e-14 -4.677048254927181 8.100885206984453" Properties=species:S:1:pos:R:3 unique_starting_index=66 config_type=initial n_minim_iter=10 stress="6.347875976753458e-05 8.268028495700182e-17 2.4965627784529858e-17 8.268028495700182e-17 -9.030022764264638e-06 -2.9958753341435832e-16 2.4965627784529858e-17 -2.9958753341435832e-16 -9.030022763512732e-06" pbc="T T T"
Si       1.85048853      -2.44687710       8.16733243
Si       1.85048853       3.61950768       6.13627672
Si       1.85048853      -1.17263055       1.89816125
Si       0.64366018       7.12392537      -0.06644723
Si       0.64366018       1.05754059       1.96460848
Si       0.64366018       5.84967882       6.20272395
Si       1.24623338      -0.17727293       4.00990062
Si       1.24623338      -1.11573598       6.24945776
Si       1.24623338       1.29300893       5.94241203
Si       1.24791533       4.85432120       4.09098459
Si       1.24791533       5.79278424       1.85142744
Si       1.24791533       3.38403934       2.15847318
12
Lattice="2.4948888946150616 1.2404465670406076e-14 -6.951691133905197e-15 -4.648404442762679e-14 9.349256090567721 3.867202943537213e-13 4.5802430020509016e-14 -4.6746280452842 8.096693280917842" Properties=species:S:1:pos:R:3 unique_starting_index=66 config_type=initial n_minim_iter=11 stress="0.0008415815798432566 2.1971286018676208e-17 -3.4022426176077203e-17 2.1971286018676208e-17 -0.0002062160305778406 -4.06799462874219e-16 -3.4022426176077203e-17 -4.06799462874219e-16 -0.00020621603057738915" pbc="T T T"
Si       1.85269193      -2.44200073       8.16258174
Si       1.85269193       3.61537548       6.13023708
Si       1.85269193      -1.17337473       1.90056774
Si       0.64219696       7.11662879      -0.06588846
Si       0.64219696       1.05925258       1.96645620
Si       0.64219696       5.84800279       6.19612554
Si       1.24710568      -0.17583140       4.00720317
Si       1.24710568      -1.11637259       6.24536616
Si       1.24710568       1.29220401       5.94081723
Si       1.24778321       4.85045946       4.08949011
Si       1.24778321       5.79100065       1.85132712
Si       1.24778321       3.38242405       2.15587605
12
Lattice="2.493122222781475 1.2395681864378521e-14 -6.946768527151615e-15 -4.6482413049308485e-14 9.348927974245953 3.836457805226034e-13 4.5800822563753004e-14 -4.674463987123313 8.096409123847794" Properties=species:S:1:pos:R:3 unique_starting_index=66 config_type=initial n_minim_iter=12 stress="-2.5400576830146346e-05 -4.566821254038842e-17 5.868475621132038e-17 -4.566821254038842e-17 -7.822310264912087e-06 -4.647715028264973e-16 5.868475621132038e-17 -4.647715028264973e-16 -7.822310264460258e-06" pbc="T T T"
Si       1.85282403      -2.44058002       8.16604610
Si       1.85282403       3.61782941       6.12699038
Si       1.85282403      -1.17724937       1.89978177
Si       0.64029819       7.11504402      -0.06963698
Si       0.64029819       1.05663459       1.96941875
Si       0.64029819       5.85171336       6.19662736
Si       1.24643452      -0.17583106       4.00742693
Si       1.24643452      -1.11601493       6.24496983
Si       1.24643452       1.29184600       5.94042149
Si       1.24668770       4.85029506       4.08898220
Si       1.24668770       5.79047893       1.85143929
Si       1.24668770       3.38261800       2.15598763
12
Lattice="2.492362506348978 1.2391904591399953e-14 -6.944651673772106e-15 -4.647305232183676e-14 9.347045267192279 3.8402929022224607e-13 4.57915990964269e-14 -4.673522633596478 8.094778651711433" Properties=species:S:1:pos:R:3 unique_starting_index=66 config_type=initial n_minim_iter=13 stress="-0.00019280335475006577 5.158788556783427e-17 2.870082078666957e-17 5.158788556783427e-17 0.00018331063583920388 -4.933597501380328e-16 2.870082078666957e-17 -4.933597501380328e-16 0.0001833106358402589" pbc="T T T"
Si       1.85698845      -2.43906284       8.16171167
Si       1.85698845       3.61425844       6.12621321
Si       1.85698845      -1.17519558       1.90163243
Si       0.63537406       7.11258549      -0.06693302
Si       0.63537406       1.05926421       1.96856544
Si       0.63537406       5.84871822       6.19314622
Si       1.24665173      -0.17313352       4.00683555
Si       1.24665173      -1.11693449       6.24129891
Si       1.24665173       1.29006803       5.94142285
Si       1.24571078       4.84665617       4.08794310
Si       1.24571078       5.79045714       1.85347974
Si       1.24571078       3.38345462       2.15335580
12
Lattice="2.492204094149525 1.2391116973685134e-14 -6.944210278291607e-15 -4.6449418399627775e-14 9.342291816973447 3.7998664964822036e-13 4.576831172801011e-14 -4.671145908487059 8.090662043066308" Properties=species:S:1:pos:R:3 unique_starting_index=66 config_type=initial n_minim_iter=14 stress="0.00016058022977994964 -4.2582091294702134e-17 3.352050439288836e-17 -4.2582091294702134e-17 3.833332636377924e-05 -6.624535725293453e-16 3.352050439288836e-17 -6.624535725293453e-16 3.8333326365589787e-05" pbc="T T T"
Si       1.86219265      -2.43768421       8.16083646
Si       1.86219265       3.61518790       6.12134027
Si       1.86219265      -1.17750367       1.89914735
Si       0.63001145       7.10883014      -0.07017442
Si       0.63001145       1.05595802       1.96932177
Si       0.63001145       5.84864959       6.19151469
Si       1.24677218      -0.17848341       4.00411576
Si       1.24677218      -1.11423823       6.24317533
Si       1.24677218       1.29272165       5.93403299
Si       1.24543191       4.84962933       4.08654628
Si       1.24543191       5.78538415       1.84748671
Si       1.24543191       3.37842427       2.15662905
