16
Lattice="6.8812943342172606 1.0060700680382109 -3.886306650908761 1.7525919291452976 7.7348832432955845 -2.4606434285990098 -3.435488109225985 -0.5914347672528671 7.090206834208717" Properties=species:S:1:pos:R:3 unique_starting_index=30 config_type=initial n_minim_iter=1 energy=-2603.6376887578435 free_energy=-2603.6376887578435 pbc="T T T"
Si       2.04588838       6.42092266       0.39311069
Si       3.15250978       1.72859589       0.35014607
Si       1.74410703       3.57379815      -0.37691851
Si       3.45429112       4.57572039       1.12017527
Si       2.33679047       1.98709634       2.69248870
Si       2.86160769       6.16242220      -1.94923194
Si       5.12235447       4.96335665      -3.90789624
Si       0.07604368       3.18616189       4.65115300
Si       0.14303858       3.41148645       1.45392775
Si       5.05535957       4.73803210      -0.71067099
Si       6.82514011       6.85027870      -2.47246974
Si      -1.62674196       1.29923984       3.21572650
Si       0.17020581       0.98662451       1.64375861
Si       5.02819235       7.16289403      -0.90050185
Si       4.47071952       7.39938243      -3.41210368
Si       0.72767863       0.75013611       4.15536044
16
Lattice="6.876860227812128 0.9992925091945363 -3.8824470098511403 1.7247383826857505 7.813750557116461 -2.471612815642625 -3.4245241560958437 -0.5956170636775311 7.096544740696186" Properties=species:S:1:pos:R:3 unique_starting_index=30 config_type=initial n_minim_iter=2 stress="0.004495285002265796 0.0009228330337326896 0.00014765588082113913 0.0009228330337326896 0.0017642221903950966 0.0015248407686419784 0.00014765588082113913 0.0015248407686419784 0.00429183029454265" pbc="T T T"
Si       2.02807069       6.48184176       0.38899677
Si       3.14900377       1.73558424       0.35348814
Si       1.73325559       3.60654457      -0.37996046
Si       3.44381887       4.61088144       1.12244538
Si       2.33672367       1.99633932       2.69743595
Si       2.84035078       6.22108668      -1.95495103
Si       5.10405501       5.00327275      -3.91294067
Si       0.07301945       3.21415325       4.65542559
Si       0.13416253       3.44606328       1.45170423
Si       5.04291192       4.77136272      -0.70921932
Si       6.80431916       6.90407639      -2.47440726
Si      -1.62724470       1.31334962       3.21689218
Si       0.17008069       0.99385077       1.64381013
Si       5.00699377       7.22357523      -0.90132521
Si       4.44461134       7.46728634      -3.42066549
Si       0.73246311       0.75013966       4.16315041
16
Lattice="6.825605477685176 0.9917699886249626 -3.8581583602608407 1.684825131982529 7.844601129636307 -2.480834116440939 -3.394629974872763 -0.6085778516264583 7.05535537263042" Properties=species:S:1:pos:R:3 unique_starting_index=30 config_type=initial n_minim_iter=3 stress="-0.003541837454427479 -0.0012706196598420022 0.0014344905291676319 -0.0012706196598420022 0.0014866500177594297 0.0012358728989623846 0.0014344905291676319 0.0012358728989623846 -0.0026639197418216114" pbc="T T T"
Si       1.99531088       6.49869635       0.36834674
Si       3.12048975       1.72909691       0.34801615
Si       1.70999040       3.61559128      -0.38929475
Si       3.40581023       4.61220198       1.10565764
Si       2.31713083       1.98612175       2.67633246
Si       2.79866981       6.24167152      -1.95996957
Si       5.05157049       5.01504584      -3.90458104
Si       0.06423015       3.21274742       4.62094394
Si       0.12180466       3.45606695       1.43187560
Si       4.99399598       4.77172632      -0.71551271
Si       6.73494313       6.91525739      -2.47773033
Si      -1.61914250       1.31253587       3.19409323
Si       0.16742063       0.99116739       1.62783788
Si       4.94838000       7.23662587      -0.91147499
Si       4.38795554       7.49068254      -3.42318125
Si       0.72784509       0.73711073       4.13954415
16
Lattice="6.838321947124918 1.0227085144938275 -3.8898159764068985 1.6781315393038945 7.88124141172197 -2.570556491375053 -3.420688525943931 -0.682025947637595 7.0639069250275" Properties=species:S:1:pos:R:3 unique_starting_index=30 config_type=initial n_minim_iter=4 stress="-0.0017967579400180538 -0.0015784645944080483 -0.003324214520638967 -0.0015784645944080483 0.0013074004029578216 -0.0017388364559788563 -0.003324214520638967 -0.0017388364559788563 -0.001685500303841865" pbc="T T T"
Si       1.99069412       6.50423487       0.28939960
Si       3.10507084       1.71768911       0.31413486
Si       1.70757943       3.62276011      -0.44214404
Si       3.38818554       4.59916387       1.04567849
Si       2.30433229       1.95069080       2.63622742
Si       2.79143267       6.27123318      -2.03269296
Si       5.06043123       5.05053798      -3.98244675
Si       0.03533373       3.17138599       4.58598120
Si       0.10530909       3.45348664       1.38770768
Si       4.99045587       4.76843734      -0.78417323
Si       6.73137832       6.94319939      -2.58094965
Si      -1.63561336       1.27872459       3.18448410
Si       0.16122868       0.97245502       1.59865102
Si       4.93453628       7.24946896      -0.99511657
Si       4.38775344       7.53221356      -3.52544045
Si       0.70801152       0.68971042       4.12897490
16
Lattice="6.803840789034886 1.0826835717720873 -3.828395005811176 1.6571421614631705 7.911636729276514 -2.6647816411158893 -3.3509307079292867 -0.7891771669772972 7.0262739665795255" Properties=species:S:1:pos:R:3 unique_starting_index=30 config_type=initial n_minim_iter=5 stress="0.0002706670953634823 -0.0012442990761805 0.0007690045445214363 -0.0012442990761805 -0.00018203296081693762 -0.004173829789954008 0.0007690045445214363 -0.004173829789954008 -0.001582178637861799" pbc="T T T"
Si       2.02578720       6.50067017       0.21920155
Si       3.08426504       1.70447296       0.31389577
Si       1.71536752       3.62591173      -0.49475815
Si       3.39468473       4.57923140       1.02785547
Si       2.33851551       1.89786991       2.61565057
Si       2.77153673       6.30727323      -2.08255325
Si       5.03669455       5.09194130      -4.01971699
Si       0.07335770       3.11320184       4.55281431
Si       0.11120994       3.44968943       1.32658576
Si       4.99884230       4.75545371      -0.79348844
Si       6.71650374       6.98661724      -2.62093866
Si      -1.60645149       1.21852590       3.15403598
Si       0.18282655       0.94516285       1.54389403
Si       4.92722569       7.25998029      -1.01079671
Si       4.36318654       7.57697194      -3.60325193
Si       0.74686571       0.62817120       4.13634925
16
Lattice="6.737328052944545 1.1386930867083984 -3.8050360862043244 1.6562260087336629 7.969125143093719 -2.7182118937689737 -3.2946549746223925 -0.8584500994685957 7.015096040078976" Properties=species:S:1:pos:R:3 unique_starting_index=30 config_type=initial n_minim_iter=6 stress="-0.0009372903498661751 0.0004345775546927842 -0.0008879293046590044 0.0004345775546927842 0.0002905507149613246 -0.0030614082979131246 -0.0008879293046590044 -0.0030614082979131246 -0.00136090233747989" pbc="T T T"
Si       2.08444105       6.54150981       0.19306421
Si       3.01445804       1.70785832       0.29878385
Si       1.73105344       3.64943087      -0.55240654
Si       3.36784564       4.59993726       1.04425460
Si       2.34500263       1.86257048       2.59414697
Si       2.75389646       6.38679765      -2.10229891
Si       5.01715605       5.13103180      -4.07831647
Si       0.08174303       3.11833633       4.57016453
Si       0.10454138       3.49416531       1.28219942
Si       4.99435770       4.75520282      -0.79035136
Si       6.67860817       7.07956738      -2.66752394
Si      -1.57970908       1.16980075       3.15937200
Si       0.19945129       0.93763990       1.45818925
Si       4.89944779       7.31172823      -0.96634119
Si       4.34403060       7.63994330      -3.67380431
Si       0.75486849       0.60942484       4.16565237
16
Lattice="6.695168347327426 1.1096903137894922 -3.761550648510526 1.6010106435520388 7.937660641230349 -2.719854763241185 -3.231196201502312 -0.8494137035293081 7.008780681587805" Properties=species:S:1:pos:R:3 unique_starting_index=30 config_type=initial n_minim_iter=7 stress="-0.001087404259369857 -0.0005376811402105562 0.002213335347482623 -0.0005376811402105562 -0.0012314569043547483 0.00026370980061656403 0.002213335347482623 0.00026370980061656403 -0.0010441437723915275" pbc="T T T"
Si       2.11077662       6.51719140       0.22813757
Si       2.95420617       1.68074585       0.29923770
Si       1.73357582       3.62904560      -0.58009546
Si       3.33140697       4.56889165       1.10747073
Si       2.35690466       1.80347515       2.60595973
Si       2.70807813       6.39446211      -2.07858446
Si       4.97934150       5.06684454      -4.09724215
Si       0.08564129       3.13109271       4.62461742
Si       0.07546818       3.51947945       1.26643172
Si       4.98951461       4.67845780      -0.73905645
Si       6.62176429       7.05898045      -2.65026368
Si      -1.55678151       1.13895681       3.17763895
Si       0.21212026       0.93976210       1.38381593
Si       4.85286253       7.25817515      -0.85644066
Si       4.28789757       7.58159275      -3.68352130
Si       0.77708522       0.61634450       4.21089656
16
Lattice="6.760377269309875 1.12297040879048 -3.830250323678071 1.6664174506646976 7.947032608056899 -2.7009518988534573 -3.3066394328180277 -0.8265166103850842 7.0661263087427075" Properties=species:S:1:pos:R:3 unique_starting_index=30 config_type=initial n_minim_iter=8 stress="0.004363402009295233 0.002590178358143249 -0.006753962665205449 0.002590178358143249 0.002757756454733941 0.0054134603547965465 -0.006753962665205449 0.0054134603547965465 0.006962057411992135" pbc="T T T"
Si       2.16534304       6.53626065       0.27859878
Si       2.95481224       1.70722576       0.25632530
Si       1.77389120       3.63793600      -0.58086427
Si       3.34626409       4.60555041       1.11578836
Si       2.33715677       1.79164009       2.61186847
Si       2.78299852       6.45184632      -2.07694438
Si       5.05447240       5.06215977      -4.13949114
Si       0.06568288       3.18132664       4.67441523
Si       0.06602186       3.54107915       1.28905037
Si       5.05413342       4.70240725      -0.75412629
Si       6.68901983       7.12464766      -2.68410141
Si      -1.56886454       1.11883875       3.21902549
Si       0.19998792       0.97703495       1.36927802
Si       4.92016737       7.26645145      -0.83435394
Si       4.37735508       7.56381298      -3.69048596
Si       0.74280021       0.67967343       4.22541004
16
Lattice="6.776321405342856 1.2087139688774418 -3.7846332616419573 1.6374938918650421 8.01864252132187 -2.882589546297576 -3.272103671210452 -1.0066951232877703 7.024552579410924" Properties=species:S:1:pos:R:3 unique_starting_index=30 config_type=initial n_minim_iter=9 stress="0.006023783138764356 -0.0013652460178175054 -0.0028304011658441585 -0.0013652460178175054 0.004727743883793102 0.002043301281419546 -0.0028304011658441585 0.002043301281419546 0.002535166033185003" pbc="T T T"
Si       2.20429293       6.52116936       0.17296778
Si       2.93741870       1.69949200       0.18436200
Si       1.79639790       3.64865802      -0.67337181
Si       3.34531372       4.57200335       1.03070158
Si       2.34216475       1.64279706       2.56469006
Si       2.79954688       6.57786431      -2.20736029
Si       5.04425987       5.12887925      -4.23332700
Si       0.09745176       3.09178212       4.59065677
Si       0.03821053       3.52679389       1.18159362
Si       5.10350110       4.69386748      -0.82426385
Si       6.67588114       7.24325341      -2.81672615
Si      -1.53416952       0.97740796       3.17405592
Si       0.20273309       0.98632839       1.28499853
Si       4.93897853       7.23433298      -0.92766876
Si       4.37278170       7.59913051      -3.83116299
Si       0.76892993       0.62153086       4.18849276
16
Lattice="6.731957213005827 1.3138556225431997 -3.789856186093929 1.6642272606047204 8.049227806820452 -3.0198990211377374 -3.2226076062595 -1.1459282938605284 7.062460564553152" Properties=species:S:1:pos:R:3 unique_starting_index=30 config_type=initial n_minim_iter=10 stress="0.001334284634570298 -0.0011096639067206923 -0.0003652003925947052 -0.0011096639067206923 -8.510093222616282e-05 -0.0022838734370775405 -0.0003652003925947052 -0.0022838734370775405 0.004954295380190557" pbc="T T T"
Si       2.22785912       6.49708271       0.10456112
Si       2.94571775       1.72007242       0.14814424
Si       1.80787031       3.65681122      -0.71390467
Si       3.36570656       4.56034391       0.96661002
Si       2.33431034       1.57503270       2.56205475
Si       2.83926652       6.64212243      -2.30934939
Si       5.01557653       5.20564837      -4.30196383
Si       0.15800034       3.01150677       4.55466919
Si       0.06121418       3.48473768       1.13429277
Si       5.11236269       4.73241746      -0.88158741
Si       6.66141863       7.33453049      -2.90932594
Si      -1.48784176       0.88262465       3.16203129
Si       0.20799093       0.99075135       1.28885007
Si       4.96558594       7.22640378      -1.03614472
Si       4.38190951       7.63082794      -3.93045954
Si       0.79166736       0.58632720       4.18316490
16
Lattice="6.755493284393366 1.3311186279193428 -3.747982239492299 1.7067918480823077 8.062121210549444 -2.9596537715961597 -3.235734138954889 -1.1306013963205566 6.99022367363209" Properties=species:S:1:pos:R:3 unique_starting_index=30 config_type=initial n_minim_iter=11 stress="-0.0003609490971394702 0.0002195676267994223 0.0005152577364157543 0.0002195676267994223 -0.0003855616858613292 -0.0006509500466400139 0.0005152577364157543 -0.0006509500466400139 -0.0032451692976615495" pbc="T T T"
Si       2.25134765       6.52240056       0.12440776
Si       2.97520334       1.74023788       0.15817991
Si       1.82232280       3.67215438      -0.68631373
Si       3.40422819       4.59048406       0.96890139
Si       2.34961411       1.60937536       2.53772284
Si       2.87693688       6.65326308      -2.25513518
Si       5.05006318       5.22302980      -4.23093781
Si       0.17648781       3.03960864       4.51352547
Si       0.08390666       3.49538947       1.13704500
Si       5.14264434       4.76724897      -0.85445734
Si       6.71625082       7.36383675      -2.84558480
Si      -1.48969983       0.89880169       3.12817246
Si       0.21243794       0.99828645       1.29643867
Si       5.01411306       7.26435199      -1.01385101
Si       4.42730387       7.65340161      -3.85798942
Si       0.79924713       0.60923684       4.14057708
16
Lattice="6.704924434933208 1.3550340008305843 -3.7284855676956887 1.7516665054447278 8.048239379224917 -2.896239339800692 -3.1991218897410376 -1.1009517584866029 6.986093670821379" Properties=species:S:1:pos:R:3 unique_starting_index=30 config_type=initial n_minim_iter=12 stress="-0.007110259662233482 0.001993725979234751 0.002030118708629279 0.001993725979234751 -0.0018706836998631903 0.0029415736862432595 0.002030118708629279 0.0029415736862432595 -0.007360861199169341" pbc="T T T"
Si       2.28124753       6.54131284       0.19505857
Si       2.97622153       1.76100878       0.16631019
Si       1.82269348       3.68855075      -0.66351018
Si       3.43477558       4.61377087       1.02487895
Si       2.36028053       1.63042857       2.50846825
Si       2.89718852       6.67189305      -2.14709949
Si       5.04866144       5.19256538      -4.18735383
Si       0.20880761       3.10975625       4.54872259
Si       0.11673998       3.53892035       1.14131978
Si       5.14072907       4.76340127      -0.77995102
Si       6.73372420       7.40330544      -2.77011368
Si      -1.47625515       0.89901618       3.13148244
Si       0.22292261       1.01875031       1.28884740
Si       5.03454644       7.28357131      -0.92747863
Si       4.44587129       7.64195279      -3.79828866
Si       0.81159776       0.66036883       4.15965743
16
Lattice="6.746053179707367 1.3954291221084618 -3.732216962636026 1.7851550884881928 8.041991510047295 -2.9398684452498873 -3.2135237792966387 -1.1484109943762733 6.997619729112568" Properties=species:S:1:pos:R:3 unique_starting_index=30 config_type=initial n_minim_iter=13 stress="-0.0028400420896364485 0.0019397636109225657 0.001086305930360176 0.0019397636109225657 -0.001847043366680842 0.00153541357505386 0.001086305930360176 0.00153541357505386 -0.005013764568018902" pbc="T T T"
Si       2.31296249       6.52338251       0.20334134
Si       3.00472200       1.76562713       0.12219298
Si       1.83590088       3.69506627      -0.68751761
Si       3.48178361       4.59394336       1.01305194
Si       2.37374100       1.56724552       2.45237260
Si       2.94394349       6.72176412      -2.12683828
Si       5.08856087       5.16621020      -4.21657313
Si       0.22912362       3.12279944       4.54210746
Si       0.12316489       3.55718913       1.09876993
Si       5.19451960       4.73182051      -0.77323561
Si       6.79867905       7.45368346      -2.79665919
Si      -1.48099456       0.83532618       3.12219351
Si       0.22235344       1.04274688       1.25794223
Si       5.09533105       7.24626276      -0.93240791
Si       4.49633304       7.61166932      -3.83112185
Si       0.82135145       0.67734032       4.15665617
16
Lattice="6.760454973947743 1.3852841220599459 -3.7586762738771182 1.7712737680617547 8.024325186228083 -2.9720769224122447 -3.223293391473495 -1.1553653582919616 7.037980651783799" Properties=species:S:1:pos:R:3 unique_starting_index=30 config_type=initial n_minim_iter=14 stress="-0.000596617942388477 0.0002781766795748908 4.1469327581611534e-05 0.0002781766795748908 -0.00117645437934642 0.0002374696330809801 4.1469327581611534e-05 0.0002374696330809801 0.0003011319493726582" pbc="T T T"
Si       2.29070930       6.50050225       0.21219576
Si       3.01772605       1.75374170       0.09503170
Si       1.82398759       3.68963636      -0.69738803
Si       3.48444776       4.56460759       1.00461548
Si       2.36938989       1.52642899       2.43257579
Si       2.93904546       6.72781496      -2.12534833
Si       5.08445029       5.12610494      -4.24856853
Si       0.22398506       3.12813901       4.55579599
Si       0.11457051       3.55972199       1.08878053
Si       5.19386484       4.69452196      -0.78155308
Si       6.79702986       7.44156786      -2.82011595
Si      -1.48859451       0.81267609       3.12734340
Si       0.21226733       1.05474000       1.25755612
Si       5.09616802       7.19950395      -0.95032866
Si       4.49064471       7.57186587      -3.86027626
Si       0.81779064       0.68237808       4.16750371
16
Lattice="6.790992841983252 1.40681900684142 -3.7662588058905184 1.7811306564120306 8.052312113021582 -3.008811848806008 -3.240159972357201 -1.1900616832335738 7.043240103174639" Properties=species:S:1:pos:R:3 unique_starting_index=30 config_type=initial n_minim_iter=15 stress="0.0032590322794577432 -0.0010366612960932744 -0.0012063903069411419 -0.0010366612960932744 0.0027970238486146556 -0.0019247210045072426 -0.0012063903069411419 -0.0019247210045072426 0.002394973974720158" pbc="T T T"
Si       2.29502124       6.51572135       0.22036056
Si       3.03694229       1.75334809       0.04780889
Si       1.82982407       3.71051256      -0.71426356
Si       3.50213946       4.55855688       0.98243301
Si       2.37865776       1.47895537       2.39038022
Si       2.95330576       6.79011407      -2.12221077
Si       5.10136369       5.11776705      -4.27603605
Si       0.23059984       3.15130239       4.54420550
Si       0.11659504       3.58275158       1.06690403
Si       5.21536849       4.68631786      -0.79873458
Si       6.82195583       7.49284374      -2.83863265
Si      -1.48999231       0.77622570       3.10680210
Si       0.19801707       1.07628051       1.23552572
Si       5.13394645       7.19278892      -0.96735628
Si       4.51419530       7.58041346      -3.88601037
Si       0.81776823       0.68865597       4.15417982
16
Lattice="6.774486735229946 1.3603243250925237 -3.7621747198142983 1.7704621208773867 7.992842603775028 -2.9405297801741384 -3.225846254428488 -1.1165768871031705 7.0584899651856166" Properties=species:S:1:pos:R:3 unique_starting_index=30 config_type=initial n_minim_iter=16 stress="0.002205763567814918 -0.0019134021349152966 0.0006765573017629732 -0.0019134021349152966 -0.001619106448175413 0.0005310346747615689 0.0006765573017629732 0.0005310346747615689 0.0024645143345697756" pbc="T T T"
Si       2.27357679       6.50259552       0.30623275
Si       3.04552582       1.73399452       0.04955271
Si       1.82275460       3.69839697      -0.67053257
Si       3.49634800       4.53819307       1.02631803
Si       2.39453028       1.49021335       2.40265136
Si       2.92457232       6.74637669      -2.04686590
Si       5.07915023       5.03950457      -4.23775774
Si       0.23995237       3.19708547       4.59354320
Si       0.13224217       3.58329385       1.12026126
Si       5.18686043       4.65329620      -0.76447580
Si       6.79811336       7.42336938      -2.74420068
Si      -1.47901075       0.81322066       3.09998614
Si       0.18246157       1.08375397       1.25773705
Si       5.13664104       7.15283608      -0.90195159
Si       4.49667557       7.52273798      -3.81640080
Si       0.82242703       0.71385207       4.17218627
16
Lattice="6.736808536013133 1.4093495134653413 -3.756508137132961 1.803255422807824 8.044462745593265 -2.946096072371985 -3.204527603899738 -1.1470329641570205 7.052168774299453" Properties=species:S:1:pos:R:3 unique_starting_index=30 config_type=initial n_minim_iter=17 stress="-0.0009228889841365191 -0.00038624188795248216 -0.00037358312865349815 -0.00038624188795248216 -0.0005160291511105045 0.00011403847780065197 -0.00037358312865349815 0.00011403847780065197 0.0003675783779659618" pbc="T T T"
Si       2.31065444       6.55375340       0.31449222
Si       3.02488191       1.75302589       0.03507235
Si       1.84359016       3.72968414      -0.67660185
Si       3.49194620       4.57709516       1.02616641
Si       2.40002531       1.50056445       2.40133704
Si       2.93551105       6.80621484      -2.05177247
Si       5.07638832       5.08928727      -4.24761290
Si       0.25914803       3.21749203       4.59717747
Si       0.15429386       3.60497020       1.12323701
Si       5.18124250       4.70180909      -0.77367244
Si       6.78950632       7.50151959      -2.74048811
Si      -1.45396997       0.80525971       3.09005267
Si       0.18266811       1.08904919       1.23822496
Si       5.15286824       7.21773011      -0.88866040
Si       4.51125855       7.59251895      -3.82239315
Si       0.82427780       0.71426035       4.17195772
16
Lattice="6.736973583012316 1.4235068927202863 -3.7447032193136107 1.815483608598835 8.058437799231717 -2.9416037900625667 -3.1991127740805108 -1.1543106392865694 7.040635989299385" Properties=species:S:1:pos:R:3 unique_starting_index=30 config_type=initial n_minim_iter=18 stress="0.00011039478213871018 0.00027028927330576105 0.00011666895693547348 0.00027028927330576105 -0.00018860269607657752 6.520121707569687e-05 0.00011666895693547348 6.520121707569687e-05 -3.724840496732097e-05" pbc="T T T"
Si       2.32832654       6.56915842       0.32122843
Si       3.02501788       1.75847564       0.03310055
Si       1.85498019       3.73841338      -0.67467535
Si       3.49836423       4.58922067       1.02900433
Si       2.40981636       1.50604559       2.40080007
Si       2.94352805       6.82158847      -2.04647109
Si       5.08595652       5.10261440      -4.23943994
Si       0.26738790       3.22501966       4.59376892
Si       0.16201216       3.61106382       1.12426992
Si       5.19133226       4.71657024      -0.76994094
Si       6.79974458       7.52180571      -2.72828157
Si      -1.44640016       0.80582834       3.08261055
Si       0.18569787       1.09064842       1.23076800
Si       5.16764655       7.23698563      -0.87643902
Si       4.52308617       7.61249958      -3.81430219
Si       0.83025825       0.71513447       4.16863117
16
Lattice="6.722785026531533 1.4495718395766064 -3.7224763640607788 1.8336954539006405 8.10648374194043 -2.9283242288773814 -3.1836037806646256 -1.165204104222823 7.016150133871288" Properties=species:S:1:pos:R:3 unique_starting_index=30 config_type=initial n_minim_iter=19 stress="8.997645940311708e-05 0.0009578208259741317 0.0005514588671600897 0.0009578208259741317 0.0014620257688453884 -6.424230449603306e-06 0.0005514588671600897 -6.424230449603306e-06 -0.0021678290961715395" pbc="T T T"
Si       2.35191979       6.62079065       0.34743144
Si       3.02095691       1.77006083       0.01791810
Si       1.87652896       3.76594251      -0.66432750
Si       3.49634774       4.62490897       1.02967704
Si       2.42691791       1.52512543       2.39040393
Si       2.94595879       6.86572604      -2.02505439
Si       5.10173673       5.13150375      -4.21392482
Si       0.27113997       3.25934773       4.57927436
Si       0.17592216       3.63356670       1.13082927
Si       5.19695454       4.75728478      -0.76547973
Si       6.79927029       7.56865149      -2.69394494
Si      -1.42639359       0.82219998       3.05929448
Si       0.19313490       1.09948852       1.21392356
Si       5.17974180       7.29136296      -0.84857402
Si       4.53474555       7.66964299      -3.78935241
Si       0.83813115       0.72120849       4.15470195
16
Lattice="6.723820042379164 1.4291816209496562 -3.7311082759934227 1.8164930582419483 8.08971037235435 -2.9284755268382567 -3.1807539976284795 -1.1498848290314345 7.038721899143771" Properties=species:S:1:pos:R:3 unique_starting_index=30 config_type=initial n_minim_iter=20 stress="0.0017802957079825425 0.0007126716998787843 0.000235421807821187 0.0007126716998787843 -0.0010726341802654742 -0.00016168378857887365 0.000235421807821187 -0.00016168378857887365 0.0018426341640634778" pbc="T T T"
Si       2.33077920       6.60950809       0.38188631
Si       3.02877990       1.75949908      -0.00274821
Si       1.87450825       3.75595527      -0.65241026
Si       3.48505085       4.61305189       1.03154836
Si       2.43123942       1.52155019       2.37693700
Si       2.92831969       6.84745697      -1.99779891
Si       5.11235809       5.09048285      -4.20320047
Si       0.24720101       3.27852432       4.58233856
Si       0.16836570       3.63295562       1.13836972
Si       5.19119340       4.73605154      -0.75923162
Si       6.78463267       7.52551264      -2.67794096
Si      -1.42507356       0.84349452       3.05707906
Si       0.20393271       1.10769142       1.21126298
Si       5.15562639       7.26131574      -0.83212489
Si       4.52015646       7.63636984      -3.77801460
Si       0.83940264       0.73263732       4.15715269
16
Lattice="6.71773221249754 1.4168975416406495 -3.7322169550600934 1.803237698123927 8.099129734883647 -2.9230153707075304 -3.1820495348909765 -1.1410875450667723 7.033476964598158" Properties=species:S:1:pos:R:3 unique_starting_index=30 config_type=initial n_minim_iter=21 stress="-6.197320566104367e-07 -0.00026241714398240795 -0.0002536500813604024 -0.00026241714398240795 0.00018453185949774095 3.865672155133811e-05 -0.0002536500813604024 3.865672155133811e-05 0.0002976266414913241" pbc="T T T"
Si       2.31201946       6.61785401       0.38471452
Si       3.02690092       1.75708572      -0.00646988
Si       1.86689532       3.75745577      -0.64823449
Si       3.47202506       4.61748396       1.02647913
Si       2.42544604       1.52718073       2.37263117
Si       2.91347433       6.84775900      -1.99438653
Si       5.10488152       5.08810741      -4.19614405
Si       0.23403886       3.28683232       4.57438869
Si       0.16418006       3.63574422       1.14283274
Si       5.17474032       4.73919551      -0.76458810
Si       6.76598570       7.51633976      -2.67357967
Si      -1.42706532       0.85859997       3.05182431
Si       0.20499389       1.10933661       1.21259299
Si       5.13392649       7.26560312      -0.83434835
Si       4.50492039       7.63907375      -3.76947545
Si       0.83399998       0.73586599       4.14772009
