18
Lattice="6.579458725949305 1.3734264614435303 -0.6919861450600908 -0.5249557597599082 5.991488304313725 -0.4029175487702845 -3.8614460910317248 -3.591756117862916 9.826083919078958" Properties=species:S:1:pos:R:3 unique_starting_index=108 config_type=initial n_minim_iter=1 energy=-2928.182175231279 free_energy=-2928.182175231279 pbc="T T T"
Si       2.69875151      -1.67713958       8.17344496
Si       1.22336837       1.12232090       6.55914325
Si      -2.38479905       3.87880649       5.60230237
Si       4.23924862       4.60006842       2.45248177
Si       2.83445946       0.75606066       4.84888031
Si       3.60833890       7.04382522       0.27549810
Si       1.96632050       3.67427762      -0.28410819
Si       0.60041074      -0.54511002       5.00582835
Si       2.25921499       4.25614241       3.98470968
Si       5.98814506       4.19254055      -1.17905079
Si       1.04715304       4.65076661       1.74919297
Si       3.07164455       0.34156502       2.58494055
Si       3.31195288       3.24374554       5.89629782
Si       0.72566459       3.50617077       5.98287203
Si       0.23292490       3.17387476       3.60303235
Si      -1.75770445       2.21278285       8.54513388
Si       4.17907025       3.38352698       0.32996947
Si      -0.83479307       5.07025336       0.39419875
18
Lattice="6.56578692302399 1.3640164508855113 -0.6698131958746799 -0.5209076797458864 5.921054193360819 -0.4202085735113327 -3.8069336735676815 -3.567174738174995 9.953193784389036" Properties=species:S:1:pos:R:3 unique_starting_index=108 config_type=initial n_minim_iter=2 stress="0.0005333358846422377 0.0007338410840321784 -0.00017778329583561711 0.0007338410840321784 -0.003973045763174962 -0.0005983706516614425 -0.00017778329583561711 -0.0005983706516614425 0.003435240120323073" pbc="T T T"
Si       2.73970081      -1.66476662       8.30551299
Si       1.25217307       1.10239838       6.65862115
Si      -2.35169802       3.82423892       5.66556446
Si       4.24298893       4.54823264       2.50023976
Si       2.85952235       0.73730737       4.93540520
Si       3.60669990       6.96594476       0.28237493
Si       1.96093940       3.63508209      -0.28173814
Si       0.62856530      -0.54421886       5.08087408
Si       2.28610017       4.20469042       4.05102961
Si       5.97634887       4.14905483      -1.17001864
Si       1.05642864       4.59313713       1.77239555
Si       3.08185764       0.33635202       2.63619146
Si       3.34174220       3.19885210       5.99511476
Si       0.76013065       3.45727886       6.06969981
Si       0.25310296       3.12760887       3.64939149
Si      -1.71052821       2.17370348       8.65624289
Si       4.17806156       3.34560515       0.35307068
Si      -0.82796623       5.00584081       0.39101336
18
Lattice="6.461319967341864 1.3362711878208766 -0.5393450026697478 -0.5632212582827548 6.008510068088062 -0.41200525509290614 -3.5445726368142245 -3.5607526196046897 9.88090154071548" Properties=species:S:1:pos:R:3 unique_starting_index=108 config_type=initial n_minim_iter=3 stress="-0.003714425488126871 0.0008039298294847849 0.004481664882323781 0.0008039298294847849 0.004496595088136219 -0.0002564768934638028 0.004481664882323781 -0.0002564768934638028 0.002319696639234348" pbc="T T T"
Si       2.90683933      -1.67218984       8.34975790
Si       1.32991316       1.13965593       6.70389035
Si      -2.26289532       3.92193164       5.63929025
Si       4.16574878       4.60535197       2.57907591
Si       2.94135789       0.71072392       5.01142345
Si       3.49046387       7.05137904       0.33631692
Si       1.88191302       3.68468954      -0.21798158
Si       0.74570096      -0.52857004       5.09220710
Si       2.35403227       4.27156815       4.13950017
Si       5.85225869       4.15871328      -1.04471249
Si       1.02471444       4.64562177       1.80009499
Si       3.10396320       0.33573339       2.69426848
Si       3.40578556       3.23539000       6.08492339
Si       0.85507385       3.52778388       6.11410619
Si       0.29314019       3.15256064       3.65424432
Si      -1.55183852       2.25528907       8.64135013
Si       4.11825660       3.36435841       0.45679914
Si      -0.84599703       5.06518620       0.41042807
18
Lattice="6.498444353151432 1.2943812176777223 -0.5725720048171532 -0.5912708421127962 5.9640197245160875 -0.39548918763680124 -3.611104295266287 -3.4978536619261895 9.834703161308312" Properties=species:S:1:pos:R:3 unique_starting_index=108 config_type=initial n_minim_iter=4 stress="-0.002555939589091241 -0.0016975613958588795 0.0003099892582665274 -0.0016975613958588795 -0.0034985704666243506 0.0003105633620479704 0.0003099892582665274 0.0003105633620479704 -0.002234482787892474" pbc="T T T"
Si       2.89362046      -1.65436569       8.27433196
Si       1.28069397       1.14087642       6.66224403
Si      -2.33374760       3.91790751       5.62643043
Si       4.13833356       4.56064463       2.53746224
Si       2.93808587       0.68803860       4.96698518
Si       3.46452705       6.98567057       0.30800674
Si       1.87013260       3.65239074      -0.21583139
Si       0.73195310      -0.51683185       5.05292496
Si       2.33973426       4.23451144       4.11791177
Si       5.87693013       4.09605575      -1.06985170
Si       0.98863476       4.60572013       1.78829875
Si       3.10746694       0.32505700       2.65837813
Si       3.38100538       3.20258095       6.03354097
Si       0.81105744       3.51127585       6.08109302
Si       0.25888931       3.12395490       3.63163978
Si      -1.62911560       2.26567198       8.60117859
Si       4.12737294       3.31896795       0.44029897
Si      -0.87595945       5.02408481       0.42722783
18
Lattice="6.542064770888446 1.3080122585919047 -0.5890048738779549 -0.584945186178758 5.981511712492969 -0.3951267132071832 -3.6620514904363586 -3.5142281763228644 9.865301833752754" Properties=species:S:1:pos:R:3 unique_starting_index=108 config_type=initial n_minim_iter=5 stress="0.0051071695562208315 -0.0007012845388426439 -0.000858020394536822 -0.0007012845388426439 0.002004581867996198 0.0006102936863627776 -0.000858020394536822 0.0006102936863627776 0.0030828842774485287" pbc="T T T"
Si       2.89454743      -1.65452145       8.28640943
Si       1.27055833       1.14755121       6.67687632
Si      -2.35315770       3.92997341       5.64639415
Si       4.15882814       4.58327333       2.53069136
Si       2.95031792       0.69086406       4.97254766
Si       3.49122274       7.01338848       0.29275294
Si       1.88583678       3.66837585      -0.21845378
Si       0.72831024      -0.51871279       5.06118932
Si       2.35323783       4.24713917       4.12442956
Si       5.92250437       4.11735890      -1.08852638
Si       0.99282556       4.62131693       1.78996857
Si       3.12046455       0.33077889       2.65696352
Si       3.39524170       3.21499231       6.03953626
Si       0.80844884       3.52446035       6.09404322
Si       0.25847071       3.13122536       3.63896860
Si      -1.65784725       2.27156628       8.62383314
Si       4.15627710       3.33568250       0.43302378
Si      -0.87559066       5.03679511       0.43121414
18
Lattice="6.523109233182918 1.3732889986546835 -0.6104911601586067 -0.523888471707919 5.979037255397291 -0.41158831039298815 -3.7081295394547347 -3.585979383664498 9.822923481093323" Properties=species:S:1:pos:R:3 unique_starting_index=108 config_type=initial n_minim_iter=6 stress="-0.002572776418106359 0.0062439151935933185 -0.003332890504253708 0.0062439151935933185 -0.0010735101506067633 -0.000625644777118545 -0.003332890504253708 -0.000625644777118545 -0.00219187185127728" pbc="T T T"
Si       2.85930274      -1.65486184       8.23146362
Si       1.23870993       1.14128795       6.63386807
Si      -2.30248650       3.90593161       5.61217697
Si       4.14876398       4.62623383       2.47529783
Si       2.94290806       0.68999875       4.93341580
Si       3.52254502       7.05005534       0.22151200
Si       1.90662264       3.69690423      -0.22526637
Si       0.72522052      -0.54002369       5.02012750
Si       2.36920066       4.23268605       4.08335444
Si       5.93608341       4.18000017      -1.12682386
Si       1.00595641       4.62837886       1.76149711
Si       3.09333890       0.35010526       2.62639090
Si       3.39987529       3.21550253       5.97793626
Si       0.82517112       3.51752904       6.04215814
Si       0.28665408       3.11497834       3.60502264
Si      -1.66325584       2.23115905       8.56034694
Si       4.15894579       3.37849453       0.40874355
Si      -0.83211238       5.02552845       0.41488474
18
Lattice="6.507788561271385 1.3012044847161905 -0.5635175347037754 -0.5948923933826284 5.990510240825215 -0.4240635963161871 -3.5998843793281563 -3.561336392722814 9.774372177915158" Properties=species:S:1:pos:R:3 unique_starting_index=108 config_type=initial n_minim_iter=7 stress="-0.0006061533084900463 0.0015451141499038656 -0.0016718000115578202 0.0015451141499038656 -0.0006471982020509288 -0.0011295365856595428 -0.0016718000115578202 -0.0011295365856595428 -0.0028609042206477905" pbc="T T T"
Si       2.96291474      -1.69950780       8.23995815
Si       1.25734241       1.12416437       6.63110183
Si      -2.28393372       3.94251683       5.58555441
Si       4.09127567       4.59035658       2.48363691
Si       2.98753670       0.63959612       4.94841724
Si       3.42735050       7.01818274       0.19933219
Si       1.85960060       3.68853338      -0.20661959
Si       0.79282388      -0.56726215       5.00510421
Si       2.35366473       4.17555896       4.09287579
Si       5.88594953       4.11833939      -1.10004698
Si       0.94572418       4.62375927       1.76308964
Si       3.10020110       0.31096875       2.63572316
Si       3.42193467       3.15745315       5.98086861
Si       0.83747027       3.50959064       6.03008286
Si       0.29144920       3.10266980       3.59487334
Si      -1.63851694       2.24441044       8.51631139
Si       4.11880005       3.33786095       0.43412439
Si      -0.89738337       5.03742886       0.39791447
18
Lattice="6.470055415707464 1.254766070383042 -0.5114305514419597 -0.6354843895607938 5.9963452200607295 -0.39464928587066317 -3.492402624107458 -3.481781836838729 9.762989102608453" Properties=species:S:1:pos:R:3 unique_starting_index=108 config_type=initial n_minim_iter=8 stress="-0.0013533719601616701 -0.0005571113357413173 -0.00011713798344815424 -0.0005571113357413173 -0.0003587866774145739 0.0029404550983093865 -0.00011713798344815424 0.0029404550983093865 4.891405449665326e-05" pbc="T T T"
Si       3.04851959      -1.67050330       8.29250344
Si       1.27490790       1.16158141       6.67690625
Si      -2.23887422       4.00565156       5.62307443
Si       4.03579694       4.59408210       2.54547891
Si       3.02465396       0.63941446       5.00234409
Si       3.34896431       7.00437691       0.23004264
Si       1.82238352       3.68902613      -0.16353878
Si       0.85735752      -0.55509742       5.01846348
Si       2.35767994       4.15810881       4.16624141
Si       5.82894674       4.07570837      -1.05266528
Si       0.89632109       4.64020723       1.81363498
Si       3.09220300       0.30730409       2.66111704
Si       3.44611795       3.15717544       6.04265627
Si       0.86407911       3.54872880       6.08566153
Si       0.30917168       3.11444727       3.63088183
Si      -1.59879245       2.30990749       8.54021515
Si       4.07346867       3.31985553       0.48237410
Si      -0.93917679       5.05096567       0.41904298
18
Lattice="6.472750552018801 1.2331795182462133 -0.4798522742094548 -0.6674597509121222 6.008557726241357 -0.467098347780656 -3.4137845148422445 -3.5799338336379565 9.770276453920149" Properties=species:S:1:pos:R:3 unique_starting_index=108 config_type=initial n_minim_iter=9 stress="0.0006227099218951926 -0.003187923562592117 0.0016773707413276183 -0.003187923562592117 0.0006137383342282428 -0.0019527731009333813 0.0016773707413276183 -0.0019527731009333813 0.0021194203533260163" pbc="T T T"
Si       3.14786891      -1.77776506       8.34084135
Si       1.30325678       1.08540490       6.66869827
Si      -2.19713699       3.96100037       5.56539817
Si       4.01790153       4.56382429       2.52128858
Si       3.07920575       0.56521962       5.02242789
Si       3.30529005       6.99562773       0.14142453
Si       1.80450628       3.69857213      -0.18469456
Si       0.92529378      -0.62855046       5.02043145
Si       2.38949826       4.07345335       4.15395164
Si       5.81448446       4.06795954      -1.07354949
Si       0.85703485       4.63253024       1.77939116
Si       3.09695501       0.26786995       2.66777859
Si       3.49738111       3.05893015       6.02187484
Si       0.90343036       3.48359693       6.05747159
Si       0.33381903       3.06426571       3.59917912
Si      -1.56602125       2.22243325       8.48285311
Si       4.05547512       3.30621404       0.46667627
Si      -0.98078630       5.05862624       0.34685828
18
Lattice="6.548932117570201 1.2807410392644296 -0.43328693205080926 -0.6298666580107514 5.986738803583217 -0.4798657051170332 -3.4191943676960883 -3.6206670219468777 9.648753053458867" Properties=species:S:1:pos:R:3 unique_starting_index=108 config_type=initial n_minim_iter=10 stress="0.0055120817845907945 -0.000813291147276241 0.004213274927756934 -0.000813291147276241 -0.0003432015514341672 0.0012906039922116852 0.004213274927756934 0.0012906039922116852 -0.0005638001685750459" pbc="T T T"
Si       3.25610047      -1.76815929       8.31027155
Si       1.35174739       1.07564526       6.59165239
Si      -2.11218993       3.90756578       5.48674605
Si       4.09836976       4.59142469       2.53487840
Si       3.16811587       0.58424622       5.00177589
Si       3.37663144       7.00352111       0.12180497
Si       1.85284595       3.72385824      -0.17778584
Si       1.00088216      -0.65124939       4.96778840
Si       2.51114668       4.01898851       4.15636469
Si       5.90152852       4.11058658      -1.05913254
Si       0.85173841       4.65168933       1.78966148
Si       3.10759526       0.29839011       2.64030956
Si       3.62303218       3.03378982       5.95696778
Si       0.99612956       3.46591479       6.01518251
Si       0.40086662       3.03278200       3.56482944
Si      -1.53650543       2.16755998       8.34200051
Si       4.09919715       3.33936753       0.45621104
Si      -0.98880194       5.05274734       0.30140446
18
Lattice="6.506295213988382 1.299133682946388 -0.4980395060981019 -0.6136340432497596 6.013035125338647 -0.5026318589945575 -3.4792915864290186 -3.6841399286276073 9.728383943382733" Properties=species:S:1:pos:R:3 unique_starting_index=108 config_type=initial n_minim_iter=11 stress="0.0008775932494373001 -0.00034144830513741886 -0.00021631291236585387 -0.00034144830513741886 0.0022507761420380965 -1.790769781123895e-05 -0.00021631291236585387 -1.790769781123895e-05 0.0024002435757711953" pbc="T T T"
Si       3.17559366      -1.80456843       8.33246789
Si       1.28432635       1.05209400       6.58917281
Si      -2.12516734       3.88399303       5.50439389
Si       4.05189464       4.61232334       2.50226293
Si       3.11359384       0.57592037       4.99420024
Si       3.35156882       7.04102065       0.05768522
Si       1.84418525       3.75283916      -0.21452561
Si       0.96820767      -0.67744668       4.97865013
Si       2.48645940       4.00455676       4.14835699
Si       5.87065006       4.14569828      -1.14419534
Si       0.80545410       4.68119297       1.78488802
Si       3.04300108       0.30186956       2.61307891
Si       3.56356448       3.01441823       5.92405534
Si       0.95185662       3.45471810       6.02748652
Si       0.37862743       3.02048761       3.56316232
Si      -1.60091543       2.12864370       8.35669200
Si       4.05761884       3.36437299       0.39169891
Si      -0.99412826       5.07781188       0.27994300
18
Lattice="6.5051720556444845 1.3181377130038197 -0.5007290211161366 -0.5952670202741248 6.006595186724307 -0.5077409173271026 -3.4907694613849887 -3.7025121973339656 9.713350494358266" Properties=species:S:1:pos:R:3 unique_starting_index=108 config_type=initial n_minim_iter=12 stress="0.00011880104385733645 0.0004663249220336286 -0.000617021176596606 0.0004663249220336286 0.0007123964078003114 -0.00023464064142269275 -0.000617021176596606 -0.00023464064142269275 0.0005936914719112061" pbc="T T T"
Si       3.16989486      -1.79905159       8.31641279
Si       1.28386431       1.04668662       6.56612670
Si      -2.12196459       3.85503287       5.48266417
Si       4.06197190       4.61881469       2.49773306
Si       3.12043076       0.57724671       4.98269044
Si       3.36075717       7.05120568       0.05582139
Si       1.84216312       3.76174929      -0.22335101
Si       0.96961095      -0.67265888       4.97034189
Si       2.51530670       4.00943521       4.13722484
Si       5.87666325       4.16087602      -1.14861074
Si       0.80048695       4.68220701       1.78088346
Si       3.03594988       0.31559480       2.60657558
Si       3.57417913       3.01054914       5.90677523
Si       0.96468316       3.44602928       6.02328463
Si       0.38574571       3.00395048       3.54967236
Si      -1.59730687       2.10688284       8.32783385
Si       4.06629419       3.37368583       0.37975274
Si      -0.97960027       5.06649766       0.27629799
18
Lattice="6.485458704272547 1.332757176842639 -0.49289689855508 -0.5785925859699931 5.994370665492416 -0.5104375218728794 -3.477162983547768 -3.711423803656639 9.679696980872645" Properties=species:S:1:pos:R:3 unique_starting_index=108 config_type=initial n_minim_iter=13 stress="-0.002309165283099872 0.00010629835088036894 -0.0006200397336995127 0.00010629835088036894 -0.0028523305233204062 -0.00010482782979196839 -0.0006200397336995127 -0.00010482782979196839 -0.0030470203905061275" pbc="T T T"
Si       3.17161606      -1.78696459       8.29786028
Si       1.29256741       1.04415662       6.53079630
Si      -2.10096184       3.81222106       5.44971936
Si       4.06735628       4.62123270       2.50128825
Si       3.13857496       0.57816208       4.96717586
Si       3.34280170       7.06203087       0.07096802
Si       1.81542552       3.77418232      -0.23314580
Si       0.98519199      -0.66654053       4.95653646
Si       2.53818720       4.00924565       4.11268726
Si       5.85939392       4.16877664      -1.14338786
Si       0.77319841       4.68915824       1.78833319
Si       3.01244940       0.33412300       2.60887834
Si       3.59096684       2.99392995       5.89082838
Si       0.99027910       3.43798717       6.02754243
Si       0.40842419       2.97973700       3.53684851
Si      -1.57136052       2.08171412       8.27488592
Si       4.06449131       3.38109147       0.36805819
Si      -0.96524028       5.04873482       0.27319372
18
Lattice="6.480101222266027 1.3450386344261938 -0.46457723039459187 -0.5725519518803606 6.006559024799908 -0.5227242438351539 -3.433726326048812 -3.7397405111281197 9.668210791970674" Properties=species:S:1:pos:R:3 unique_starting_index=108 config_type=initial n_minim_iter=14 stress="0.0005203141551177193 0.0002661153435478334 0.00045414552283332366 0.0002661153435478334 -7.436906836726738e-05 2.723000424905462e-05 0.00045414552283332366 2.723000424905462e-05 0.00030279949759596294" pbc="T T T"
Si       3.22744082      -1.79602083       8.32950264
Si       1.32044708       1.04519496       6.52903430
Si      -2.03585220       3.79109514       5.43647736
Si       4.07686702       4.64372964       2.50752388
Si       3.19328179       0.56957826       4.98293408
Si       3.31270814       7.09618498       0.06773559
Si       1.78728151       3.80437328      -0.23029011
Si       1.03793982      -0.68899344       4.95556077
Si       2.55421628       3.98397271       4.10900734
Si       5.84870524       4.18814070      -1.13705950
Si       0.73856261       4.72022057       1.81158406
Si       2.99110891       0.34139359       2.63138454
Si       3.63914624       2.96909725       5.89908269
Si       1.04319135       3.44554027       6.05050623
Si       0.46193078       2.96594773       3.54319401
Si      -1.51828928       2.06509028       8.23770669
Si       4.05763917       3.40387213       0.37057011
Si      -0.97508787       5.05834381       0.25541530
18
Lattice="6.461323162402974 1.359177088348322 -0.4574545804330577 -0.5608951742904768 6.017274584651456 -0.523137360278574 -3.418023318646388 -3.7537165738606046 9.657236368433884" Properties=species:S:1:pos:R:3 unique_starting_index=108 config_type=initial n_minim_iter=15 stress="0.0014587240832369488 -0.00040354865641241243 -0.0006164300137008415 -0.00040354865641241243 0.00153944942477678 3.1219740525327325e-05 -0.0006164300137008415 3.1219740525327325e-05 0.0015281633682671014" pbc="T T T"
Si       3.23179511      -1.79043695       8.33650180
Si       1.33492860       1.06013509       6.51404300
Si      -1.98927965       3.75250728       5.42269913
Si       4.08785884       4.66894228       2.49330701
Si       3.22591783       0.57124607       4.98092977
Si       3.27755988       7.13376695       0.08856914
Si       1.74666237       3.83239855      -0.22784860
Si       1.05833311      -0.69873453       4.94932639
Si       2.54525728       3.97747730       4.08365413
Si       5.82620798       4.20573131      -1.13902171
Si       0.70351429       4.75637444       1.84541402
Si       2.94898765       0.35142029       2.65425672
Si       3.64768816       2.95781158       5.88918683
Si       1.07591378       3.46553387       6.07497322
Si       0.50732904       2.95546196       3.55150385
Si      -1.46336099       2.06246334       8.20192826
Si       4.03808495       3.43214596       0.36379194
Si      -0.98748731       5.07063557       0.25140512
18
Lattice="6.43383424921376 1.37197195701625 -0.39793767340007613 -0.553087764104069 6.0249104742213655 -0.5307307162481166 -3.3211702114372876 -3.770255467678753 9.613184959393529" Properties=species:S:1:pos:R:3 unique_starting_index=108 config_type=initial n_minim_iter=16 stress="0.0011027677852446795 -0.0003465772875523456 0.001854220061322021 -0.0003465772875523456 0.002090190220291931 0.00012030566844527281 0.001854220061322021 0.00012030566844527281 0.0027216805644003305" pbc="T T T"
Si       3.32290499      -1.78754932       8.36380162
Si       1.38512311       1.07662317       6.51028258
Si      -1.90067399       3.71079796       5.38359826
Si       4.09136516       4.70062300       2.49393321
Si       3.30720073       0.55409612       5.01720671
Si       3.23474499       7.16536727       0.10489506
Si       1.70906660       3.86203930      -0.19565489
Si       1.12619165      -0.70611367       4.94700550
Si       2.61545026       3.96250702       4.10703654
Si       5.79409978       4.22108775      -1.10129731
Si       0.67660565       4.78288662       1.87931419
Si       2.92869052       0.35810240       2.68736266
Si       3.70156457       2.94098387       5.89712802
Si       1.15996451       3.48464747       6.10111431
Si       0.57017398       2.92379429       3.55344330
Si      -1.34637638       2.06505668       8.14743171
Si       4.00357707       3.45884882       0.39400185
Si      -1.01330334       5.08115044       0.24033858
18
Lattice="6.432872216044558 1.3855756553689094 -0.40112443298106654 -0.536709593737828 6.013207726958954 -0.5186044512328215 -3.3383924692723768 -3.7572648912669044 9.585710654163533" Properties=species:S:1:pos:R:3 unique_starting_index=108 config_type=initial n_minim_iter=17 stress="0.0005445024610787105 0.0003125078192925764 0.00019586937682324773 0.0003125078192925764 0.00029183051597491923 9.693495740890654e-05 0.00019586937682324773 9.693495740890654e-05 -0.00019541442057726346" pbc="T T T"
Si       3.30330786      -1.76434850       8.33076481
Si       1.38843345       1.09839376       6.49086199
Si      -1.89273146       3.67524242       5.36083274
Si       4.11017114       4.71211076       2.46431880
Si       3.31060449       0.56093613       5.00594503
Si       3.24364967       7.16763094       0.13282211
Si       1.70646669       3.86214922      -0.17756264
Si       1.10783992      -0.68836133       4.93503700
Si       2.62946587       3.97869529       4.08938983
Si       5.79880976       4.22631651      -1.09440511
Si       0.68738187       4.77926655       1.89190057
Si       2.91750323       0.36388126       2.69153413
Si       3.68662038       2.95523346       5.87590037
Si       1.16565808       3.49977770       6.09296949
Si       0.57788966       2.91491758       3.54888513
Si      -1.31168979       2.07965014       8.12517556
Si       3.99138569       3.46910739       0.39902070
Si      -1.01657128       5.07765807       0.25547897
18
Lattice="6.4003495116452775 1.3908115465938404 -0.39249738373305953 -0.5272779454063734 6.0030069017544445 -0.5141574183351154 -3.3119942118029244 -3.7481402502270846 9.578007513800106" Properties=species:S:1:pos:R:3 unique_starting_index=108 config_type=initial n_minim_iter=18 stress="-0.0018034976580835803 -0.0002974088508223707 -0.0007200192909794137 -0.0002974088508223707 -0.0016108027303685215 -0.00035012397971201137 -0.0007200192909794137 -0.00035012397971201137 -0.001260678934298225" pbc="T T T"
Si       3.30847332      -1.75420813       8.33599032
Si       1.39707827       1.11964962       6.48702861
Si      -1.84407861       3.62046329       5.33266984
Si       4.11037421       4.72575917       2.44114704
Si       3.32142771       0.55097641       5.02069802
Si       3.20786123       7.17719885       0.16420281
Si       1.68050605       3.87621524      -0.15348746
Si       1.11077641      -0.67829759       4.94103632
Si       2.64113865       3.97798435       4.07455522
Si       5.76567658       4.22919746      -1.08784059
Si       0.66467398       4.77858184       1.91625009
Si       2.88408875       0.36662215       2.71336279
Si       3.67447519       2.94146051       5.88190484
Si       1.18116897       3.51459380       6.10656484
Si       0.60305225       2.89383571       3.55773464
Si      -1.24546825       2.08513480       8.09745586
Si       3.94013076       3.47554646       0.40289829
Si      -1.02786055       5.08002944       0.26640396
18
Lattice="6.387940617050853 1.399920806762093 -0.3716737343991335 -0.5184092984761864 6.001142462128035 -0.5096944778082848 -3.2814495889482393 -3.7440250312613954 9.558940764352226" Properties=species:S:1:pos:R:3 unique_starting_index=108 config_type=initial n_minim_iter=19 stress="-0.0006616133536937368 -0.0001934171040386658 -0.0006293499518849565 -0.0001934171040386658 -0.0010801405736667765 1.8709232846365642e-05 -0.0006293499518849565 1.8709232846365642e-05 -0.0005058863867977416" pbc="T T T"
Si       3.35477017      -1.74527601       8.34844285
Si       1.40883830       1.14663021       6.48928324
Si      -1.77113428       3.58124010       5.29328800
Si       4.11891827       4.75546258       2.42894704
Si       3.34691555       0.53307246       5.04553585
Si       3.17415560       7.20034642       0.18835346
Si       1.66612435       3.90991081      -0.12261685
Si       1.13636870      -0.66784152       4.95050911
Si       2.66879518       3.97472867       4.06406234
Si       5.75027612       4.24528754      -1.07263636
Si       0.63537125       4.77696381       1.93413554
Si       2.86507975       0.37342428       2.73642067
Si       3.69285817       2.92191859       5.90763937
Si       1.20585733       3.53826475       6.11292269
Si       0.64055550       2.87944451       3.56802907
Si      -1.18114738       2.09009328       8.05515830
Si       3.89683125       3.48349222       0.41064389
Si      -1.03044767       5.09007069       0.27969005
18
Lattice="6.394424894771096 1.4047045984924915 -0.3615608785279445 -0.5190225079452297 6.015043598457548 -0.5185470019863028 -3.268262359111045 -3.765285561224118 9.559542209351738" Properties=species:S:1:pos:R:3 unique_starting_index=108 config_type=initial n_minim_iter=20 stress="0.0010176098741003566 3.175813334892741e-05 0.0004395533976635912 3.175813334892741e-05 0.0012473511247171392 3.656425296248935e-06 0.0004395533976635912 3.656425296248935e-06 0.0006866440115649833" pbc="T T T"
Si       3.38465242      -1.75675917       8.36165143
Si       1.40810121       1.14182398       6.49896818
Si      -1.75118700       3.59217336       5.27909264
Si       4.11985710       4.76751685       2.44180898
Si       3.35218816       0.51880492       5.05532519
Si       3.17498802       7.21139291       0.17274621
Si       1.67180303       3.93256270      -0.13074391
Si       1.15525614      -0.67143128       4.95901630
Si       2.68200947       3.97189564       4.07373642
Si       5.75498598       4.26155075      -1.06557440
Si       0.63408127       4.77556333       1.92280304
Si       2.87445673       0.37460972       2.73922220
Si       3.71255317       2.91386385       5.92432925
Si       1.21308865       3.53915080       6.10513467
Si       0.64810065       2.88580504       3.56407538
Si      -1.18176456       2.07712463       8.04660711
Si       3.90832370       3.48803715       0.40913935
Si      -1.01922101       5.10266649       0.27276255
18
Lattice="6.365951475926291 1.4351871102517513 -0.33053138226344847 -0.4899147779069968 6.008303621939235 -0.5226284753905923 -3.2195938034647935 -3.7834099664959306 9.545031741472203" Properties=species:S:1:pos:R:3 unique_starting_index=108 config_type=initial n_minim_iter=21 stress="-0.0003307280520495256 0.0005235412785282224 0.0009928978317963395 0.0005235412785282224 0.00078371729586429 0.00034671507716067194 0.0009928978317963395 0.00034671507716067194 0.00017576225026161546" pbc="T T T"
Si       3.42167632      -1.72985197       8.38302988
Si       1.41615209       1.16982075       6.52044171
Si      -1.65205588       3.52048017       5.21728725