22
Lattice="5.426801280231679 -1.255175257621168 1.465449290702329 -3.8049831638376337 10.260693859963755 -3.565714841806934 0.7150128022594736 -4.665881865798893 9.831209332946427" Properties=species:S:1:pos:R:3 unique_starting_index=18 config_type=initial n_minim_iter=1 energy=-3582.144668004778 free_energy=-3582.144668004778 pbc="T T T"
Si       0.83056637       7.98949446      -0.08960549
Si       2.49679956       0.01330259       5.94625987
Si      -0.21032880      -4.54054665       9.79553150
Si       5.05510326      -3.07502115       9.88330273
Si      -1.08692491      -0.36359384       6.75881280
Si       4.40437945       2.81214128       2.11101840
Si       2.44370535       0.14468713       1.68010507
Si       2.17988168       0.10471349       8.28391390
Si       2.09158590      -4.07218188       9.37047253
Si       0.22837213       0.54794328       5.08641909
Si       4.45099674      -0.24672192       4.62698765
Si      -0.87085298       4.40537046       4.44676003
Si       0.91282373      -1.73157335       5.07646023
Si      -1.80923357       6.66152803      -2.09570403
Si       2.33811399       2.35881803       5.13944243
Si      -0.32544487       5.93917097      -0.43623878
Si       1.33794080      -1.69145080       2.70290184
Si       5.47673516      -4.61731784       8.04932277
Si       2.18259368       2.26648518       2.79242316
Si       0.24344074       3.14019002       6.11100503
Si      -0.01560314       3.08495805       2.51802653
Si       2.05119501      -2.21048217       7.67899816
22
Lattice="5.414388468814696 -1.2812254687515492 1.4701494363321486 -3.807710892905204 10.38970573335964 -3.6067170977901166 0.7211816940762155 -4.760018346620979 9.836153122329138" Properties=species:S:1:pos:R:3 unique_starting_index=18 config_type=initial n_minim_iter=2 stress="0.000702228097581722 -4.316704246321851e-05 -3.436834327092952e-05 -4.316704246321851e-05 0.005560623054929928 -0.001918020197562223 -3.436834327092952e-05 -0.001918020197562223 0.002374921138005361" pbc="T T T"
Si       0.81782742       8.07094558      -0.12516965
Si       2.49105989      -0.01456360       5.93401397
Si      -0.20291255      -4.63179891       9.79799265
Si       5.04930272      -3.15784646       9.88251833
Si      -1.08430436      -0.39768993       6.74934080
Si       4.38368868       2.82313641       2.09756799
Si       2.43765435       0.13865838       1.67805061
Si       2.17868491       0.06765184       8.26998696
Si       2.09452491      -4.15719833       9.37276739
Si       0.22813671       0.53270066       5.07731797
Si       4.43813112      -0.27418767       4.62504337
Si      -0.86933743       4.43167190       4.41817857
Si       0.91901168      -1.77298739       5.07474438
Si      -1.81268036       6.74398389      -2.12476752
Si       2.32814363       2.35517565       5.12373583
Si      -0.32866155       6.00898718      -0.46365039
Si       1.33395290      -1.72203261       2.70774304
Si       5.46971224      -4.70807194       8.05925710
Si       2.18008090       2.27621907       2.77784233
Si       0.24133902       3.14303343       6.08526953
Si      -0.01835211       3.10852124       2.49906553
Si       2.05017755      -2.27488624       7.68137933
22
Lattice="5.3912444159562325 -1.2859410814472723 1.4615414865056344 -3.803489958266265 10.377985987802685 -3.5843660961231736 0.72717185651155 -4.756064643140508 9.763330957779264" Properties=species:S:1:pos:R:3 unique_starting_index=18 config_type=initial n_minim_iter=3 stress="-0.007237357700058993 -0.0008527900303161676 -4.650206701646305e-05 -0.0008527900303161676 0.0002894893475608107 -0.0020204923009215473 -4.650206701646305e-05 -0.0020204923009215473 -0.006561781642916411" pbc="T T T"
Si       0.80193569       8.05247743      -0.12737773
Si       2.47987939      -0.01662067       5.88445256
Si      -0.19473062      -4.62657231       9.72265364
Si       5.03518876      -3.16176440       9.81034084
Si      -1.08003654      -0.40033353       6.69840744
Si       4.35064031       2.80629051       2.08412465
Si       2.42679681       0.13951697       1.66753431
Si       2.17563551       0.06399499       8.20689417
Si       2.09544751      -4.15159922       9.30167834
Si       0.22787938       0.53250074       5.04154829
Si       4.41549112      -0.27873984       4.59679902
Si      -0.86345387       4.42092267       4.38090408
Si       0.92723219      -1.77127860       5.03544453
Si      -1.81270359       6.73656103      -2.11547834
Si       2.31227048       2.34100738       5.08953990
Si      -0.33009285       6.00608474      -0.46436030
Si       1.32592530      -1.71952941       2.69007535
Si       5.45283369      -4.70814684       8.00307278
Si       2.17637577       2.26970073       2.75595833
Si       0.23931581       3.13081977       6.03480894
Si      -0.02093700       3.10544021       2.47714483
Si       2.04577729      -2.28323785       7.63253471
22
Lattice="5.4687278899112375 -1.2705271202916677 1.4638664357215367 -3.8643316743005993 10.295135741063637 -3.528936788555636 0.7521492117158421 -4.663281195160425 9.754631483410826" Properties=species:S:1:pos:R:3 unique_starting_index=18 config_type=initial n_minim_iter=4 stress="0.0021692150323496737 -0.0017003364680768917 0.0005484118728535816 -0.0017003364680768917 0.0011157167924205806 0.0027832848168802323 0.0005484118728535816 0.0027832848168802323 -0.0022604521486823065" pbc="T T T"
Si       0.80068150       7.99155504      -0.07558940
Si       2.51512404       0.03230808       5.88144104
Si      -0.18991348      -4.53304060       9.70520307
Si       5.12619072      -3.07935761       9.81724160
Si      -1.09927763      -0.36179403       6.71182126
Si       4.37860636       2.78310914       2.11839910
Si       2.46281262       0.16490875       1.68083291
Si       2.23158552       0.12327323       8.22501577
Si       2.14690896      -4.05138165       9.29003555
Si       0.23622770       0.57174525       5.06723895
Si       4.46968512      -0.24146269       4.62794847
Si      -0.85153996       4.41468869       4.41253360
Si       0.97780451      -1.72220640       5.03131411
Si      -1.84206147       6.68784414      -2.09127131
Si       2.33581157       2.33943049       5.13686711
Si      -0.32298750       5.98935733      -0.43171533
Si       1.33200591      -1.68426177       2.69198634
Si       5.54142444      -4.62527590       8.00124946
Si       2.23669844       2.27684868       2.77710146
Si       0.25107043       3.13659366       6.05725553
Si      -0.01805079       3.11308034       2.49636691
Si       2.08408177      -2.24530718       7.66591772
22
Lattice="5.453732369716179 -1.2533881283661976 1.4706685689162808 -3.821522099406692 10.254543949971989 -3.579847921647845 0.7275586664397826 -4.678173974472393 9.816685933102171" Properties=species:S:1:pos:R:3 unique_starting_index=18 config_type=initial n_minim_iter=5 stress="2.700087511107852e-05 0.0002735729385932248 0.00032234228752571795 0.0002735729385932248 -0.001633455323652473 -0.000254395510630354 0.00032234228752571795 -0.000254395510630354 0.0006937114115721846" pbc="T T T"
Si       0.82392397       7.96227695      -0.10532649
Si       2.50438154       0.01980383       5.90416523
Si      -0.21339883      -4.55080971       9.76559389
Si       5.10013522      -3.08710427       9.87008380
Si      -1.10652931      -0.38993961       6.74564462
Si       4.37482050       2.77738134       2.11347400
Si       2.45773687       0.16801076       1.68661145
Si       2.22302755       0.09994552       8.26024594
Si       2.12299968      -4.06166889       9.34569263
Si       0.23264788       0.55249435       5.09026992
Si       4.45572438      -0.24308054       4.64842070
Si      -0.83703374       4.37695510       4.41663453
Si       0.97108882      -1.72940886       5.06039241
Si      -1.81559565       6.66354089      -2.12521589
Si       2.33296058       2.31538892       5.15275302
Si      -0.30188969       5.96626695      -0.45611744
Si       1.31935611      -1.68201947       2.70920782
Si       5.51013709      -4.61764498       8.05119054
Si       2.23854888       2.26546419       2.78021406
Si       0.25588672       3.10029071       6.07194856
Si      -0.00891532       3.09181833       2.49572434
Si       2.06645687      -2.26146527       7.71308621
22
Lattice="5.424896891172402 -1.2451274728284496 1.439162752689563 -3.7596218141931503 10.300653381277856 -3.560212854835517 0.6557845950137022 -4.706039328427676 9.806877655231581" Properties=species:S:1:pos:R:3 unique_starting_index=18 config_type=initial n_minim_iter=6 stress="-0.0011942140741573438 0.002491248022666624 -0.0036277875926310856 0.002491248022666624 0.0021116395383959765 0.0002856696493413598 -0.0036277875926310856 0.0002856696493413598 -0.00017477072708791194" pbc="T T T"
Si       0.84476692       8.02002613      -0.11054060
Si       2.45935304       0.02546085       5.88456054
Si      -0.28219336      -4.57998911       9.75577972
Si       5.02320378      -3.09453786       9.83602274
Si      -1.14755587      -0.40283159       6.74432930
Si       4.36252087       2.81661331       2.07422457
Si       2.44042092       0.17615242       1.67118660
Si       2.17424746       0.10233822       8.23369813
Si       2.05080388      -4.08578744       9.32996301
Si       0.19594189       0.55592699       5.08930120
Si       4.41634635      -0.23583508       4.62128078
Si      -0.84154454       4.39560257       4.41232784
Si       0.94904500      -1.73518877       5.05536766
Si      -1.77628985       6.69841252      -2.11701947
Si       2.30276202       2.32556583       5.13676634
Si      -0.28720530       5.98205945      -0.45647717
Si       1.28863698      -1.68344493       2.69433972
Si       5.43592680      -4.62608871       8.01350950
Si       2.20687088       2.28925049       2.77416179
Si       0.22916219       3.11040743       6.05957121
Si      -0.00569447       3.10339764       2.48965570
Si       2.00850463      -2.28051895       7.71291857
22
Lattice="5.436213472152578 -1.2729321078578668 1.4735825684101052 -3.8194533581282166 10.333161747991394 -3.618616717423731 0.727070515814139 -4.744888801457715 9.834579488979081" Properties=species:S:1:pos:R:3 unique_starting_index=18 config_type=initial n_minim_iter=7 stress="-0.0012831647352678495 -0.00013986246891522602 0.00048460195661695474 -0.00013986246891522602 0.0018414830461951847 -0.001977740206903299 0.00048460195661695474 -0.001977740206903299 0.0008288406286366306" pbc="T T T"
Si       0.80874521       8.03153189      -0.13136149
Si       2.48637685      -0.00304086       5.90019860
Si      -0.21243496      -4.61404625       9.77190918
Si       5.09173388      -3.15150206       9.88308460
Si      -1.11502718      -0.42651108       6.74212494
Si       4.36228253       2.80355897       2.07890087
Si       2.44725405       0.16263098       1.68586693
Si       2.22305478       0.06429809       8.24400583
Si       2.11639944      -4.13192042       9.36400272
Si       0.21138362       0.54019216       5.09944507
Si       4.44104205      -0.27093993       4.65183294
Si      -0.82914747       4.38487233       4.39183451
Si       1.00024782      -1.75402621       5.07401077
Si      -1.81211971       6.72030529      -2.15338884
Si       2.31926096       2.29113897       5.14933845
Si      -0.31761584       5.97426592      -0.47888819
Si       1.30292659      -1.69291187       2.70347848
Si       5.49831033      -4.67295021       8.06274027
Si       2.19984254       2.27800613       2.78971544
Si       0.24871066       3.08360106       6.05022357
Si       0.00234557       3.09286676       2.47789767
Si       2.05710260      -2.32780971       7.75745371
22
Lattice="5.454208503524672 -1.264554851203485 1.4691313439406206 -3.82546782078416 10.298502296442242 -3.6032677869455183 0.7230808229919476 -4.72053094968672 9.822462461952759" Properties=species:S:1:pos:R:3 unique_starting_index=18 config_type=initial n_minim_iter=8 stress="0.00015314999354548527 -3.279645779187355e-05 0.00016202979257957817 -3.279645779187355e-05 6.583510679790655e-05 -0.000676467065064268 0.00016202979257957817 -0.000676467065064268 -0.00046301593569809957" pbc="T T T"
Si       0.80877161       8.01271046      -0.12338191
Si       2.48869117       0.00962842       5.88795818
Si      -0.22282215      -4.59015707       9.75328824
Si       5.10971446      -3.12880409       9.87131710
Si      -1.12948220      -0.42656925       6.73658280
Si       4.36736408       2.80020181       2.07663899
Si       2.45469314       0.17283120       1.68622468
Si       2.23663459       0.07499008       8.23038221
Si       2.11984573      -4.11001029       9.35282559
Si       0.20102006       0.54885048       5.10497346
Si       4.45186896      -0.25976038       4.65377981
Si      -0.82000312       4.37357714       4.38858031
Si       1.02440137      -1.73826888       5.06914404
Si      -1.81172878       6.70320214      -2.14815606
Si       2.32303306       2.27908183       5.15575289
Si      -0.31151804       5.95777048      -0.47632212
Si       1.29562231      -1.67721878       2.69609475
Si       5.51457791      -4.64158800       8.04811417
Si       2.20951013       2.28157238       2.79599495
Si       0.24897331       3.07280934       6.04182570
Si       0.00603977       3.08806802       2.47278897
Si       2.05805607      -2.32915667       7.77502688
22
Lattice="5.441752250970622 -1.2596473095252683 1.4715099793949913 -3.8189770870891597 10.276513088269981 -3.5852222315759468 0.722928923790941 -4.683677157469593 9.848845338846992" Properties=species:S:1:pos:R:3 unique_starting_index=18 config_type=initial n_minim_iter=9 stress="-0.0021260340252489134 -0.000649433851101233 0.0003003011010565748 -0.000649433851101233 -0.0004920835392301774 0.0022178520388824135 0.0003003011010565748 0.0022178520388824135 0.0019530223017296528" pbc="T T T"
Si       0.79487124       8.00714938      -0.10064139
Si       2.48122859       0.03098774       5.90847350
Si      -0.22333675      -4.55368774       9.77354289
Si       5.10395080      -3.09350273       9.90341276
Si      -1.13188321      -0.41349056       6.76220448
Si       4.34764107       2.80351897       2.09578529
Si       2.44790736       0.18346492       1.69603745
Si       2.23906670       0.09949767       8.25819257
Si       2.11639269      -4.08419461       9.38455737
Si       0.18832215       0.56781419       5.13682413
Si       4.44173489      -0.24131054       4.67749197
Si      -0.80946534       4.38150388       4.41578011
Si       1.04457436      -1.71564142       5.08625695
Si      -1.80720266       6.69499360      -2.13725974
Si       2.31747666       2.28312186       5.19122028
Si      -0.30801985       5.95133141      -0.46547390
Si       1.28532151      -1.65893153       2.69715155
Si       5.50722061      -4.60361806       8.06221032
Si       2.20433109       2.29311121       2.82296241
Si       0.24716805       3.08188848       6.07077417
Si       0.00465684       3.09249778       2.48432193
Si       2.05143424      -2.31717678       7.82702853
22
Lattice="5.475209214843564 -1.2491636194454598 1.4651811120653884 -3.8223089765557154 10.250371912475039 -3.5933402666147374 0.7101399484290642 -4.690923197506454 9.83048527414342" Properties=species:S:1:pos:R:3 unique_starting_index=18 config_type=initial n_minim_iter=10 stress="0.002856332884445899 7.343091166269284e-05 -0.0003882523830483492 7.343091166269284e-05 -0.001863253861975064 0.00144615618903806 -0.0003882523830483492 0.00144615618903806 -0.00136432969924789" pbc="T T T"
Si       0.79969040       7.99489887      -0.12326621
Si       2.49234638       0.02536494       5.88656782
Si      -0.24576915      -4.56419177       9.74858143
Si       5.13034491      -3.09429596       9.87833663
Si      -1.15178491      -0.44259621       6.74312579
Si       4.37164977       2.80211773       2.08296166
Si       2.46180954       0.19136867       1.69105099
Si       2.25575843       0.08236501       8.22240706
Si       2.11383818      -4.10700118       9.37602321
Si       0.16718924       0.55874225       5.13155863
Si       4.47016751      -0.23638709       4.66455619
Si      -0.79931813       4.35875023       4.38732228
Si       1.07173826      -1.71391520       5.07591094
Si      -1.80276370       6.68715589      -2.14360822
Si       2.33642823       2.26072338       5.17539632
Si      -0.29265662       5.93832493      -0.48661758
Si       1.28026022      -1.64732607       2.68437597
Si       5.53561163      -4.58569035       8.03514509
Si       2.22025473       2.29204446       2.81969851
Si       0.24789401       3.05430452       6.03928600
Si       0.00447326       3.07832276       2.45769273
Si       2.04958564      -2.34266784       7.84320180
22
Lattice="5.439178617640351 -1.246908262931875 1.4752109715392743 -3.78107808736919 10.287105348070588 -3.629623489369893 0.7021653372797872 -4.7286701450299535 9.87021212004548" Properties=species:S:1:pos:R:3 unique_starting_index=18 config_type=initial n_minim_iter=11 stress="0.0002568713945194867 0.0004214438990944083 0.0003533245031528708 0.0004214438990944083 0.0008422765372403297 -8.588770733164958e-05 0.0003533245031528708 -8.588770733164958e-05 -0.00020509442677869042" pbc="T T T"
Si       0.79225664       8.03194654      -0.15394645
Si       2.49146205       0.00875962       5.91561503
Si      -0.24908024      -4.60798131       9.78862898
Si       5.09802460      -3.11222921       9.91998647
Si      -1.13539175      -0.47725371       6.76076386
Si       4.35687913       2.82434878       2.09615486
Si       2.44591050       0.19056912       1.69809814
Si       2.24448969       0.05674433       8.24384020
Si       2.08995824      -4.18185699       9.44118951
Si       0.15148332       0.54468499       5.14838240
Si       4.45800544      -0.23236616       4.66988771
Si      -0.78594255       4.36992269       4.38479211
Si       1.06855931      -1.72719463       5.09247963
Si      -1.78172934       6.72005816      -2.15605827
Si       2.34805899       2.27269476       5.17913299
Si      -0.27515363       5.96097346      -0.51403644
Si       1.27456245      -1.64825928       2.68809981
Si       5.50734523      -4.59461384       8.05258859
Si       2.20656382       2.29912363       2.83216710
Si       0.25249681       3.05688693       6.05053702
Si      -0.00494977       3.07739971       2.44539747
Si       2.03102157      -2.36625792       7.88978746
22
Lattice="5.435472752331864 -1.2587467992096897 1.4658899547028927 -3.7925635290928845 10.286372324852966 -3.6383072535594727 0.6878502862555977 -4.735694927418984 9.890559604773804" Properties=species:S:1:pos:R:3 unique_starting_index=18 config_type=initial n_minim_iter=12 stress="-0.00023987702631115166 -0.001096098745966654 -0.0008473431740008573 -0.001096098745966654 -6.867352982558489e-05 -0.0006519066567614559 -0.0008473431740008573 -0.0006519066567614559 0.0005215807047202897" pbc="T T T"
Si       0.76923192       8.02290012      -0.16809644
Si       2.47724721      -0.00314197       5.91808676
Si      -0.26603928      -4.61448803       9.80876466
Si       5.07990588      -3.12903937       9.93122511
Si      -1.15252438      -0.49054764       6.77434054
Si       4.34008140       2.81410224       2.08468867
Si       2.44007680       0.18527446       1.69750722
Si       2.22695003       0.03956357       8.25065047
Si       2.07315447      -4.20164230       9.46250921
Si       0.13200407       0.53919115       5.15943603
Si       4.44610402      -0.24520771       4.66623052
Si      -0.80228372       4.36122363       4.38525817
Si       1.06848451      -1.72980878       5.09742396
Si      -1.79122591       6.72171943      -2.16379975
Si       2.33278475       2.25751943       5.18199319
Si      -0.28472638       5.95315219      -0.52416878
Si       1.26632735      -1.64644245       2.68958270
Si       5.49880450      -4.60303880       8.05225785
Si       2.19266394       2.29037986       2.83162648
Si       0.23061808       3.04289872       6.05371457
Si      -0.01887700       3.06919555       2.44284944
Si       2.01373823      -2.38639754       7.91634480
22
Lattice="5.427127517658364 -1.2461157194755499 1.469647932179211 -3.7665132936161467 10.27362718112789 -3.64472821722756 0.6803374225042986 -4.73325816460043 9.901390938791922" Properties=species:S:1:pos:R:3 unique_starting_index=18 config_type=initial n_minim_iter=13 stress="-0.001215285925000592 -0.00033464290999105995 -0.00014822391971450297 -0.00033464290999105995 -0.0007172241864090238 -0.00038253679646299777 -0.00014822391971450297 -0.00038253679646299777 0.0006659215035630345" pbc="T T T"
Si       0.77587749       8.02625593      -0.17494678
Si       2.48149637       0.00314760       5.92141309
Si      -0.27976996      -4.61740386       9.81515642
Si       5.07520589      -3.11371066       9.95211737
Si      -1.15394398      -0.51275351       6.77798615
Si       4.33447923       2.83444072       2.08483205
Si       2.43923161       0.19491713       1.70708438
Si       2.23602069       0.03790996       8.25806972
Si       2.06151802      -4.21565126       9.48455958
Si       0.12512822       0.54210258       5.17141136
Si       4.44398754      -0.23220707       4.67048008
Si      -0.78227325       4.35737000       4.38068939
Si       1.08336867      -1.71950456       5.09405381
Si      -1.77813563       6.72349738      -2.17001050
Si       2.34481124       2.25959784       5.19341027
Si      -0.26670320       5.94633729      -0.53194655
Si       1.25166749      -1.63130768       2.69055969
Si       5.49433604      -4.57407798       8.05081157
Si       2.19576363       2.29850984       2.83915142
Si       0.23925410       3.03546781       6.05279152
Si      -0.01286862       3.06480013       2.43974892
Si       2.00475136      -2.40396104       7.95887869
22
Lattice="5.423906106383173 -1.2378095152350006 1.4641783503095924 -3.748351314043501 10.266893388817182 -3.6379219358122254 0.6649676070094159 -4.72978310537752 9.896572635182697" Properties=species:S:1:pos:R:3 unique_starting_index=18 config_type=initial n_minim_iter=14 stress="-0.0009494219113575267 -3.979730134940035e-05 -1.874006754421343e-05 -3.979730134940035e-05 -0.0007782700099495302 -6.306189522114432e-05 -1.874006754421343e-05 -6.306189522114432e-05 0.00012279195574330543" pbc="T T T"
Si       0.77995462       8.02777001      -0.18133957
Si       2.48672982       0.00864814       5.91560294
Si      -0.30586273      -4.62085251       9.81163995
Si       5.06322146      -3.09928650       9.95917475
Si      -1.16137804      -0.53702427       6.77178588
Si       4.32942028       2.85921613       2.07822472
Si       2.44062296       0.20030100       1.71590274
Si       2.23524055       0.03422786       8.26054716
Si       2.04062705      -4.23276012       9.49139137
Si       0.12014051       0.54692230       5.17207068
Si       4.44103708      -0.22278001       4.65628612
Si      -0.77703984       4.35930001       4.37360710
Si       1.08144077      -1.70746293       5.07176827
Si      -1.77480709       6.72911224      -2.16912864
Si       2.35647014       2.27284434       5.19372682
Si      -0.25264924       5.94315278      -0.53515889
Si       1.23707132      -1.61738720       2.69045369
Si       5.49179829      -4.54490797       8.02776773
Si       2.19958338       2.30385435       2.83330195
Si       0.23857635       3.03430917       6.04656684
Si      -0.01431317       3.06293886       2.44032241
Si       1.98969242      -2.42235850       7.98234346
22
Lattice="5.425206710763344 -1.2346248588911752 1.4601720629607644 -3.7424482441741063 10.267680809827404 -3.6304383274756473 0.6575912372639958 -4.72787849962492 9.88913790212837" Properties=species:S:1:pos:R:3 unique_starting_index=18 config_type=initial n_minim_iter=15 stress="-0.0002092561995183103 7.872666295871716e-05 8.977387277974822e-05 7.872666295871716e-05 -0.00026298754233524785 7.915151053460865e-05 8.977387277974822e-05 7.915151053460865e-05 -0.00013261195526771823" pbc="T T T"
Si       0.78385105       8.02874315      -0.18182584
Si       2.49177987       0.01219303       5.91207680
Si      -0.31999967      -4.62294437       9.80708402
Si       5.05818905      -3.09316314       9.96096576
Si      -1.16321452      -0.55031344       6.76214423
Si       4.33009232       2.87559579       2.07663538
Si       2.44292488       0.20065844       1.72177310
Si       2.23351862       0.03137741       8.26236246
Si       2.02956622      -4.24069490       9.49006454
Si       0.12293170       0.55090766       5.16800708
Si       4.44093946      -0.21989835       4.64396221
Si      -0.77861125       4.36415781       4.37102728
Si       1.07252505      -1.69952457       5.05432342
Si      -1.77668073       6.73494926      -2.16544331
Si       2.36489283       2.28652660       5.19019232
Si      -0.24750501       5.94557014      -0.53500769
Si       1.23203625      -1.61254531       2.68947551
Si       5.49411270      -4.52909250       8.01253283
Si       2.20320052       2.30694322       2.82625334
Si       0.23752466       3.03745936       6.04246551
Si      -0.01555269       3.06568023       2.44285360
Si       1.98310621      -2.43076036       7.98494730
22
Lattice="5.4294545104752485 -1.2301624693976878 1.45137113639072 -3.733879788147881 10.27113688748167 -3.6175790114089916 0.6414987752086144 -4.7259519417350475 9.8792032417573" Properties=species:S:1:pos:R:3 unique_starting_index=18 config_type=initial n_minim_iter=16 stress="0.0014756743798331642 0.00023031345213745815 8.060610602902836e-05 0.00023031345213745815 0.000754107947130166 0.0001329887933964983 8.060610602902836e-05 0.0001329887933964983 -0.0002740717371792623" pbc="T T T"
Si       0.78957767       8.02773138      -0.18111435
Si       2.49863640       0.01917707       5.90949617
Si      -0.35011825      -4.62884244       9.80182273
Si       5.04847312      -3.08885403       9.97224115
Si      -1.16508132      -0.58842390       6.73372051
Si       4.33220573       2.91131775       2.07975531
Si       2.44616751       0.19862600       1.73678294
Si       2.22761810       0.01634655       8.26820558
Si       2.00418465      -4.25938376       9.49511317
Si       0.12903790       0.56108617       5.16249931
Si       4.43931488      -0.21937913       4.61967538
Si      -0.78389479       4.37416182       4.36906107
Si       1.05201395      -1.67785598       5.02166990
Si      -1.78168293       6.75169756      -2.15724879
Si       2.38154484       2.31350989       5.18237781
Si      -0.24115991       5.95413562      -0.54100896
Si       1.22304504      -1.60560928       2.68127502
Si       5.50131652      -4.49218310       7.98741032
Si       2.20779180       2.31548020       2.81472010
Si       0.23174923       3.03898342       6.03309119
Si      -0.01753395       3.07590312       2.44572501
Si       1.96820766      -2.45509247       7.99553475
22
Lattice="5.424463309228036 -1.2328224883799177 1.452070390081931 -3.7338165061262445 10.27664944567621 -3.6204584937093345 0.6415484602053966 -4.728201111457613 9.887817895465705" Properties=species:S:1:pos:R:3 unique_starting_index=18 config_type=initial n_minim_iter=17 stress="0.00048307504194165004 0.00024544819223233595 -4.802210952738639e-05 0.00024544819223233595 0.00040730252274968757 3.6473276963504894e-06 -4.802210952738639e-05 3.6473276963504894e-06 0.0002488034934588241" pbc="T T T"
Si       0.78289069       8.02483398      -0.17509266
Si       2.49108192       0.02410098       5.91941034
Si      -0.35239359      -4.63265827       9.80574987
Si       5.04579845      -3.10186061       9.99685555
Si      -1.15397856      -0.63015876       6.70405017
Si       4.32606414       2.92750089       2.09659626
Si       2.43944821       0.19668536       1.74887167
Si       2.22588277      -0.00646092       8.27404036
Si       1.99646490      -4.26948230       9.51699799
Si       0.13063594       0.57368183       5.16877907
Si       4.43092045      -0.22631630       4.62243630
Si      -0.78033568       4.37873423       4.37505086
Si       1.05201678      -1.65780648       5.02259239
Si      -1.78264165       6.76821494      -2.15542307
Si       2.38269062       2.31514678       5.18385924
Si      -0.24754136       5.96235427      -0.55800907
Si       1.22105783      -1.60853174       2.66400061
Si       5.50332371      -4.46875067       7.99752860
Si       2.19970496       2.32600145       2.82425901
Si       0.22712772       3.02763268       6.02728609
Si      -0.01364794       3.08863803       2.44083675
Si       1.96458576      -2.47797556       8.01834659
22
Lattice="5.4195946298915345 -1.2376970726022167 1.4528386015700858 -3.737748634835957 10.283666352463783 -3.623245535011048 0.6442908061916808 -4.731459353758092 9.893170303252406" Properties=species:S:1:pos:R:3 unique_starting_index=18 config_type=initial n_minim_iter=18 stress="-0.0006529433812581365 0.00011413113891901698 -0.00014718158775175086 0.00011413113891901698 -0.000689193157266703 -0.0004115204013060201 -0.00014718158775175086 -0.0004115204013060201 -0.00011266946751176686" pbc="T T T"
Si       0.77052423       8.02118973      -0.17111229
Si       2.48478783       0.03034849       5.92681248
Si      -0.35496238      -4.63935378       9.80604853
Si       5.04312799      -3.11576704      10.02631100
Si      -1.13777912      -0.69419495       6.66222302
Si       4.31679129       2.94772084       2.11243738
Si       2.43224838       0.19763192       1.76340166
Si       2.22671661      -0.03644677       8.27945662
Si       1.99066051      -4.28642174       9.54214299
Si       0.13121550       0.59289418       5.17198310
Si       4.42263228      -0.23222655       4.62364877
Si      -0.77588657       4.38474813       4.37844797
Si       1.05609782      -1.63327085       5.01687240
Si      -1.78963731       6.78740570      -2.15614988
Si       2.38539533       2.31547321       5.18521808
Si      -0.25523498       5.96828486      -0.58029465
Si       1.21722112      -1.61058498       2.64605890
Si       5.50800714      -4.43993916       8.00404307