20
Lattice="3.726544301328184 0.8077063668278105 -5.6685498044386854e-15 0.7080062389330813 5.6812549091187 -6.766535172757207e-15 2.5175720235254096e-14 1.995141564750955e-14 19.39471934299128" Properties=species:S:1:pos:R:3 unique_starting_index=93 config_type=initial n_minim_iter=16 energy=-3259.467560202673 free_energy=-3259.467560202673 pbc="T T T"
Si       1.24249716       2.40192840      11.97319834
Si       3.19205339       4.08703288       2.27583867
Si      -0.34804728       1.46826780      15.22254698
Si       4.78259783       5.02069348       5.52518731
Si       0.38082531      -0.96352321       3.15894565
Si       4.05372524       7.45248449      12.85630532
Si       3.25313281       1.24973026       6.88872825
Si       1.18141774       5.23923102      16.58608793
Si       1.11911943       2.68706695       9.64457664
Si       3.31543112       3.80189433      -0.05278304
Si       3.84891859       2.15904839       3.45499316
Si       0.58563196       4.32991288      13.15235283
Si       1.69022524       2.29673361      18.54681727
Si       2.74432530       4.19222767       8.84945760
Si       5.71032906       2.74011608       4.84442055
Si      -1.27577851       3.74884519      14.54178022
Si       1.33363923       2.80472366      16.26043519
Si       3.10091131       3.68423762       6.56307552
Si      -0.74542632       4.95521092      18.03085840
Si       5.17997687       1.53375036       8.33349873
