10
Lattice="4.961354340122201 2.4736286406975184e-26 1.306690229000186e-19 -2.888882079594745e-26 5.793449337258451 -1.2524126412929158e-13 -1.7488732624700008e-19 1.4460963323389694e-13 6.694957604477173" Properties=species:S:1:pos:R:3 unique_starting_index=45 config_type=initial n_minim_iter=8 energy=-1626.7455342603769 free_energy=-1626.7455342603769 pbc="T T T"
Si       3.74751168       2.61649447       6.53192179
Si       1.21384266       3.17695487       6.53192179
Si       1.21384266       5.51321913       6.53192179
Si       3.74751168       0.28023020       6.53192179
Si       3.65030727       5.54537112       2.19544487
Si       1.31104707       0.24807822       2.19544487
Si       1.31104707       2.64864645       2.19544487
Si       3.65030727       3.14480289       2.19544487
Si       0.36209836       4.34508700       3.71097747
Si       4.59925598       1.44836233       3.71097747
