12
Lattice="3.841805171018052 -7.656013151816193e-13 -1.6007126498560208e-12 -1.9209025855083626 3.3271008744924346 1.7702785080817143e-12 7.186048628849452e-12 -5.027858367430448e-12 17.246942344079095" Properties=species:S:1:pos:R:3 unique_starting_index=180 config_type=initial n_minim_iter=1 energy=-1952.8375254627947 free_energy=-1952.8375254627947 pbc="T T T"
Si       0.89286020       2.15291284      17.89943245
Si      -0.50285548       1.47740484      12.15045167
Si      -0.39000472       3.02388408       6.40147089
Si       1.17153844       1.64840168       9.19870909
Si       2.76269109       1.48831799       3.44972831
Si       1.82847822       0.19038121      14.94768987
Si       1.46582379       0.13677380       2.10238247
Si       1.30644028       1.98927334      13.60034403
Si       2.99044369       1.20105374       7.85136325
Si       3.48434926      -0.17588132       4.94607624
Si       0.02641026       0.39750656      16.44403780
Si       2.25194823       3.10547564      10.69505702
12
Lattice="3.7942125669075906 -7.548807013854929e-13 -1.5808828875312924e-12 -1.8971062834531418 3.2858844703005174 1.7483481497085288e-12 7.1271008198871715e-12 -4.986614389016109e-12 17.105464111048416" Properties=species:S:1:pos:R:3 unique_starting_index=180 config_type=initial n_minim_iter=2 stress="-0.0022453205988391626 -1.6778262581711313e-16 -2.7784246447579422e-15 -1.6778262581711313e-16 -0.0022453205988392957 1.795538055044059e-15 -2.7784246447579422e-15 1.795538055044059e-15 -0.008363435481487758" pbc="T T T"
Si       0.88183130       2.12373078      17.75174075
Si      -0.49881713       1.46033077      12.04991938
Si      -0.38301417       2.98770740       6.34809801
Si       1.15442211       1.62541087       9.12583551
Si       2.72754233       1.47342017       3.42401414
Si       1.80935441       0.18705344      14.82765688
Si       1.44686652       0.13449840       2.08321287
Si       1.29015205       1.96561211      13.48685561
Si       2.95430028       1.18577397       7.78503424
Si       3.44233377      -0.17630053       4.90570345
Si       0.02325866       0.39288625      16.30934619
Si       2.22572642       3.06929876      10.60752482
12
Lattice="3.6943250528608833 -7.374073053913167e-13 -1.5392641171409039e-12 -1.847162526429807 3.1993793456151907 1.702320641422439e-12 7.431685129391088e-12 -5.199722711575932e-12 17.836484494606093" Properties=species:S:1:pos:R:3 unique_starting_index=180 config_type=initial n_minim_iter=3 stress="-0.007757401418897961 -4.835060809069985e-16 4.23313029799938e-15 -4.835060809069985e-16 -0.007757401418896882 -3.280336967155555e-15 4.23313029799938e-15 -3.280336967155555e-15 0.0034710960025186094" pbc="T T T"
Si       0.86108121       2.03415106      18.50007922
Si      -0.51607664       1.43658561      12.55458439
Si      -0.34500457       2.92802202       6.60908956
Si       1.08640414       1.55015347       9.55314536
Si       2.64643274       1.48344902       3.60765053
Si       1.80865069       0.16577685      15.49864019
Si       1.39271290       0.12324355       2.14354336
Si       1.25753812       1.93163282      14.03453303
Si       2.89123656       1.14450298       8.08903819
Si       3.36603311      -0.20713231       5.11704558
Si      -0.01523587       0.38787532      17.00803525
Si       2.19069034       3.01863634      11.06254041
12
Lattice="3.7555550276514564 -7.53911492730587e-13 -1.5647759770178772e-12 -1.8777775138250814 3.2524060592569204 1.7305350103445896e-12 7.2699428873645105e-12 -5.086556613356761e-12 17.448293533632732" Properties=species:S:1:pos:R:3 unique_starting_index=180 config_type=initial n_minim_iter=4 stress="-0.0003780707428291022 -2.9126432287497476e-16 -2.380319097405478e-16 -2.9126432287497476e-16 -0.00037807074282803535 -1.5289260677631136e-16 -2.380319097405478e-16 -1.5289260677631136e-16 -5.25881129202644e-05" pbc="T T T"
Si       0.87778098       2.03894999      18.09267932
Si      -0.55088552       1.47275044      12.27658148
Si      -0.32689547       2.99311170       6.46048363
Si       1.08519679       1.55308837       9.37250067
Si       2.68019310       1.53605388       3.55640282
Si       1.86794265       0.16326381      15.18859851
Si       1.40817848       0.12488866       2.07811320
Si       1.28184503       1.97044340      13.71030889
Si       2.94330904       1.15707401       7.89421105
Si       3.43152630      -0.23326534       5.00195503
Si      -0.03999935       0.39724978      16.63415072
Si       2.24180559       3.08842163      10.81805287
12
Lattice="3.788377648754841 -7.568112012341702e-13 -1.5784517316339536e-12 -1.8941888243767722 3.280831282951246 1.745659457871647e-12 7.213801808442854e-12 -5.04727641807954e-12 17.313551618944192" Properties=species:S:1:pos:R:3 unique_starting_index=180 config_type=initial n_minim_iter=5 stress="0.003790835209229953 -7.954602146643756e-16 -1.5615126821248147e-15 -7.954602146643756e-16 0.0037908352092308117 8.114216564033543e-16 -1.5615126821248147e-15 8.114216564033543e-16 0.0011678500921315832" pbc="T T T"
Si       0.88346044       2.04761762      17.95261905
Si      -0.56263017       1.49192329      12.18143518
Si      -0.32083027       3.02212166       6.41025130
Si       1.11563248       1.56841972       9.29818314
Si       2.69466390       1.53045536       3.52699926
Si       1.87227009       0.18195621      15.06936701
Si       1.43737809       0.13087727       2.06670263
Si       1.28884281       1.97058671      13.60907038
Si       2.95634557       1.17936731       7.83788650
Si       3.46069596      -0.22319561       4.96097274
Si      -0.02945223       0.39537847      16.50334048
Si       2.25132274       3.10864843      10.73215661
12
Lattice="3.7749511739476955 -7.544919620623781e-13 -1.5728575051935064e-12 -1.8874755869732003 3.2692036146849843 1.7394726267512853e-12 7.23129401678624e-12 -5.059515181080874e-12 17.35553395504446" Properties=species:S:1:pos:R:3 unique_starting_index=180 config_type=initial n_minim_iter=6 stress="-0.0021260772433921047 -5.055807862694861e-16 -8.286393278995845e-16 -5.055807862694861e-16 -0.002126077243391375 3.4210772158181296e-16 -8.286393278995845e-16 3.4210772158181296e-16 -0.003115476800103936" pbc="T T T"
Si       0.87822954       2.00316328      17.98835974
Si      -0.59180008       1.50705288      12.20318175
Si      -0.28642947       3.02819108       6.41800377
Si       1.12474371       1.54305716       9.34005365
Si       2.66143043       1.52361842       3.55487566
Si       1.87625262       0.20252805      15.12523163
Si       1.45529655       0.13168390       2.06385771
Si       1.27386891       1.94303789      13.63421368
Si       2.93326130       1.19448184       7.84903570
Si       3.46072745      -0.22278856       4.96932577
Si      -0.03582869       0.38352001      16.53968174
Si       2.23752800       3.10847217      10.75450376
12
Lattice="3.7768417121107145 -7.645370630286684e-13 -1.5736452099879653e-12 -1.8884208560547002 3.2708408687609865 1.7403437742795265e-12 7.345611681051398e-12 -5.1394997532020355e-12 17.62990312039849" Properties=species:S:1:pos:R:3 unique_starting_index=180 config_type=initial n_minim_iter=7 stress="0.00304500040833405 -4.0682628876836293e-16 2.098075398854588e-15 -4.0682628876836293e-16 0.0030450004083345723 -1.5289200364489154e-15 2.098075398854588e-15 -1.5289200364489154e-15 0.009096200618693552" pbc="T T T"
Si       0.87588402       1.98569468      18.26212304
Si      -0.60670083       1.51945572      12.38548867
Si      -0.26918319       3.03653134       6.50885430
Si       1.13784748       1.53321639       9.48897598
Si       2.64730145       1.51882785       3.61234161
Si       1.88011363       0.21879664      15.36561035
Si       1.48787023       0.11666957       2.10095772
Si       1.24552455       1.92397267      13.85422646
Si       2.93186779       1.23019864       7.97759209
Si       3.48480697      -0.20836296       5.05275377
Si      -0.03443025       0.35709099      16.80602251
Si       2.21488585       3.12211285      10.92938814
12
Lattice="3.815537808944473 -7.774521185170091e-13 -1.589768185762255e-12 -1.9077689044715684 3.30435267164633 1.7581746807211558e-12 7.219689359165542e-12 -5.05139575718987e-12 17.32768208940257" Properties=species:S:1:pos:R:3 unique_starting_index=180 config_type=initial n_minim_iter=8 stress="0.0017370243280341716 -2.646726118225928e-16 -4.2575202431864466e-16 -2.646726118225928e-16 0.0017370243280356028 2.2030112031699313e-16 -4.2575202431864466e-16 2.2030112031699313e-16 0.0015212441492727417" pbc="T T T"
Si       0.88203167       1.96734352      17.93171045
Si      -0.64501528       1.55681909      12.15581642
Si      -0.23701639       3.08454275       6.37992239
Si       1.15643896       1.52768718       9.33278887
Si       2.65256533       1.53900356       3.55689484
Si       1.91430242       0.23766193      15.10868290
Si       1.55279816       0.08403999       2.06703400
Si       1.20415059       1.91757003      13.61882206
Si       2.96635796       1.30274266       7.84292803
Si       3.56581189      -0.18796921       4.97492065
Si      -0.03792315       0.31025360      16.52670871
Si       2.19541798       3.18206829      10.75081468
12
Lattice="3.8193711615766675 -7.760013995968391e-13 -1.5913653766078504e-12 -1.9096855807876671 3.307672452407475 1.759941064355045e-12 7.186721403126592e-12 -5.028329087008699e-12 17.24855704219329" Properties=species:S:1:pos:R:3 unique_starting_index=180 config_type=initial n_minim_iter=9 stress="-0.00021195106331578772 -5.072696658503877e-16 -1.1204195350248521e-15 -5.072696658503877e-16 -0.0002119510633140921 6.224800645350521e-16 -1.1204195350248521e-15 6.224800645350521e-16 -0.0016524447449940158" pbc="T T T"
Si       0.88316907       1.95392842      17.84446387
Si      -0.65911847       1.56586140      12.09494486
Si      -0.22405060       3.09555509       6.34542585
Si       1.15100692       1.52491263       9.29018898
Si       2.65479519       1.54841491       3.54066996
Si       1.92325463       0.23434492      15.03970799
Si       1.57143927       0.06246376       2.05820028
Si       1.17806115       1.91553425      13.55723830
Si       2.97955633       1.32967445       7.80771929
Si       3.59117957      -0.17453767       4.95694401
Si      -0.03705827       0.28488855      16.45598203
Si       2.17493544       3.19732158      10.70646302
12
Lattice="3.8285633205185903 -7.56894980959239e-13 -1.595195348311987e-12 -1.9142816602586454 3.315633095566795 1.7641767506257934e-12 7.135952331504199e-12 -4.9928075208814594e-12 17.126708263210844" Properties=species:S:1:pos:R:3 unique_starting_index=180 config_type=initial n_minim_iter=10 stress="-0.0028221514653807207 9.236609298409973e-17 -1.7803931461409934e-15 9.236609298409973e-17 -0.0028221514653785635 1.2174195752541466e-15 -1.7803931461409934e-15 1.2174195752541466e-15 -0.006272461473436518" pbc="T T T"
Si       0.88794777       1.89658317      17.70949270
Si      -0.71576635       1.59835619      12.00058995
Si      -0.17218143       3.13632684       6.29168719
Si       1.13861261       1.52484120       9.22507792
Si       2.66552656       1.56714506       3.51617517
Si       1.93870581       0.22364685      14.93398068
Si       1.62682542       0.00348526       2.04487370
Si       1.10388727       1.90501833      13.46267921
Si       3.01213229       1.40712952       7.75377645
Si       3.65749379      -0.12330299       4.92910880
Si      -0.02124876       0.20980206      16.34691431
Si       2.10659995       3.22913403      10.63801156
12
Lattice="3.821970654659037 -7.19496025230939e-13 -1.5924484719952705e-12 -1.9109853273289013 3.3099236794537386 1.7611388936386298e-12 7.170377465683927e-12 -5.016893734025144e-12 17.209330624267686" Properties=species:S:1:pos:R:3 unique_starting_index=180 config_type=initial n_minim_iter=11 stress="-0.0024856266146775713 -4.0159794875826214e-17 -1.0554057839073281e-15 -4.0159794875826214e-17 -0.002485626614675809 6.917046574564925e-16 -1.0554057839073281e-15 6.917046574564925e-16 -0.004317183507343856" pbc="T T T"
Si       0.89469653       1.81756873      17.79855004
Si      -0.78427291       1.62630940      12.06210650
Si      -0.11042363       3.17596924       6.32566296
Si       1.12071838       1.53174244       9.27316809
Si       2.67715400       1.57348188       3.53672454
Si       1.93508360       0.20469937      15.00961163
Si       1.66103368      -0.03703483       2.05269444
Si       1.04839538       1.88994373      13.52558152
Si       3.02352692       1.45701478       7.78913798
Si       3.69101885      -0.06994557       4.94772160
Si       0.00490126       0.14838038      16.42060868
Si       2.03703587       3.23148888      10.68416514
12
Lattice="3.818893151805536 -7.172547836718905e-13 -1.5911662107851684e-12 -1.909446575902153 3.3072584838023853 1.7597208006022581e-12 7.214508288456878e-12 -5.0477707205306176e-12 17.315247212823223" Properties=species:S:1:pos:R:3 unique_starting_index=180 config_type=initial n_minim_iter=12 stress="-0.0002933374186526059 -1.7276421379768356e-17 -2.099505606426579e-16 -1.7276421379768356e-17 -0.0002933374186514363 3.363904857085475e-16 -2.099505606426579e-16 3.363904857085475e-16 -0.00019583958831021126" pbc="T T T"
Si       0.90173762       1.77750743      17.91371134
Si      -0.82094880       1.63757708      12.14196227
Si      -0.08078883       3.19943246       6.37021320
Si       1.11452079       1.53797675       9.33260912
Si       2.68411311       1.57306680       3.56086005
Si       1.92970583       0.19621495      15.10435819
Si       1.67403819      -0.04456380       2.06456836
Si       1.03383410       1.87978079      13.60806650
Si       3.02046744       1.47204150       7.83631743
Si       3.70356211      -0.04802917       4.97094579
Si       0.01607103       0.12389421      16.51444393
Si       2.00870658       3.23139346      10.74269486
12
Lattice="3.8158711120162696 -7.196733237717844e-13 -1.5899070586148443e-12 -1.9079355560075189 3.3046413205736367 1.7583282645804273e-12 7.249355941429608e-12 -5.072152557146743e-12 17.398883644009373" Properties=species:S:1:pos:R:3 unique_starting_index=180 config_type=initial n_minim_iter=13 stress="0.0015012779898617283 -3.48650298911428e-16 5.101983510558016e-16 -3.48650298911428e-16 0.0015012779898627645 -2.055721102072099e-19 5.101983510558016e-16 -2.055721102072099e-19 0.002839069314381361" pbc="T T T"
Si       0.91728793       1.73587080      18.01037068
Si      -0.86327131       1.64231127      12.21074280
Si      -0.05401662       3.23110057       6.41111492
Si       1.10148220       1.55108951       9.37391231
Si       2.70047737       1.57518500       3.57428443
Si       1.92184709       0.17836682      15.17354019
Si       1.68804622      -0.04701184       2.07808450
Si       1.02319900       1.86625633      13.67734026
Si       3.01256145       1.48539683       7.87771238
Si       3.72554687      -0.02588794       4.98505588
Si       0.02274251       0.09116706      16.58431164
Si       1.97551729       3.23936220      10.78468376
12
Lattice="3.8289046532015996 -7.389280594000409e-13 -1.5953375667533554e-12 -1.9144523266001663 3.3159286983414114 1.7643340344769908e-12 7.229729629324599e-12 -5.0584206270366674e-12 17.351779332476713" Properties=species:S:1:pos:R:3 unique_starting_index=180 config_type=initial n_minim_iter=14 stress="0.003537986750192169 -4.624990785295754e-16 -1.4390496304936079e-16 -4.624990785295754e-16 0.0035379867501933947 5.132798017221188e-16 -1.4390496304936079e-16 5.132798017221188e-16 0.003279194878432126" pbc="T T T"
Si       0.93207259       1.70730583      17.95579641
Si      -0.90191840       1.65507724      12.17186997
Si      -0.03015419       3.26947433       6.38794353
Si       1.10340872       1.55135452       9.34684635
Si       2.70626039       1.58467146       3.56291990
Si       1.93368787       0.17990272      15.13077279
Si       1.73497363      -0.05345294       2.07988496
Si       1.00067390       1.84012393      13.64773784
Si       3.00770944       1.52925772       7.86381140
Si       3.78266070      -0.01504684       4.97163551
Si       0.01009103       0.04757186      16.53948840
Si       1.95060525       3.28340369      10.75556196
12
Lattice="3.8131245056143066 -7.307249503343508e-13 -1.588762667523659e-12 -1.906562252806527 3.3022626896553438 1.7570626464485454e-12 7.2232884117176745e-12 -5.053913904147112e-12 17.33632002870216" Properties=species:S:1:pos:R:3 unique_starting_index=180 config_type=initial n_minim_iter=15 stress="-0.0008663774007205724 -7.518188124731829e-16 -4.705651978079464e-16 -7.518188124731829e-16 -0.0008663774007190751 6.693093817645922e-16 -4.705651978079464e-16 6.693093817645922e-16 -0.0011139076417764162" pbc="T T T"
Si       0.93406010       1.71471354      17.94429072
Si      -0.88860682       1.63598615      12.16551738
Si      -0.04545328       3.25382570       6.38674403
Si       1.08870770       1.55507467       9.33141625
Si       2.70894256       1.58187683       3.55264290
Si       1.92203649       0.16531120      15.11018959
Si       1.72046790      -0.04261584       2.08163590
Si       1.00942190       1.83360171      13.63918259
Si       2.98979696       1.51127683       7.86040924
Si       3.76566766      -0.02485768       4.96621304
Si       0.00220104       0.05352768      16.52375973
Si       1.95181806       3.27359270      10.74498639
12
Lattice="3.810656889655319 -7.108368425173028e-13 -1.587734519581551e-12 -1.9053284448270509 3.300125671548066 1.7559255852744615e-12 7.25689158237397e-12 -5.077425014561523e-12 17.416969628617284" Properties=species:S:1:pos:R:3 unique_starting_index=180 config_type=initial n_minim_iter=16 stress="-0.00021226066343057966 -7.818662786310938e-16 5.469658333523295e-16 -7.818662786310938e-16 -0.00021226066342895763 1.514262011851942e-17 5.469658333523295e-16 1.514262011851942e-17 0.0015422726734696975" pbc="T T T"
Si       0.93833577       1.64410562      18.02396982
Si      -0.95065910       1.66545025      12.21831328
Si       0.01232333       3.29069548       6.41265673
Si       1.06146110       1.58053471       9.38413822
Si       2.74338111       1.59060604       3.57848168
Si       1.91114313       0.12898492      15.18979476
Si       1.79795255      -0.06139512       2.08857520
Si       0.95318243       1.77375065      13.69988829
Si       2.96485034       1.58777015       7.89423175
Si       3.80707509       0.00372719       4.98654791
Si       0.00501874       0.00123833      16.59786099
Si       1.90389150       3.29516015      10.79220445
12
Lattice="3.814988204104252 -6.828504421346357e-13 -1.5895391893969766e-12 -1.9074941020515424 3.303876699892609 1.7579214264322984e-12 7.240249276153422e-12 -5.065780902072736e-12 17.377027107952184" Properties=species:S:1:pos:R:3 unique_starting_index=180 config_type=initial n_minim_iter=17 stress="-0.0008812118592046712 -1.1212668400241087e-15 1.1921330902968764e-16 -1.1212668400241087e-15 -0.000881211859203114 3.147815871294637e-16 1.1921330902968764e-16 3.147815871294637e-16 0.00016456131151245472" pbc="T T T"
Si       0.94351487       1.62123028      17.98048098
Si      -0.97522494       1.67615372      12.18813861
Si       0.03171006       3.31036941       6.39579624
Si       1.01395904       1.63689419       9.36330324
Si       2.81810653       1.60731532       3.57096087
Si       1.89041673       0.05966719      15.15564561
Si       1.87892581      -0.05247304       2.08426370
Si       0.92258821       1.70291575      13.66894844
Si       2.92096829       1.65343401       7.87660607
Si       3.83728678      -0.00168941       4.97610247
Si      -0.01261236      -0.01846643      16.56078721
Si       1.89780788       3.32403254      10.76844484
12
Lattice="3.8199253234354527 -6.633600226541578e-13 -1.5915962716839429e-12 -1.909962661717159 3.308152370654933 1.7601964184880661e-12 7.227013409203256e-12 -5.0565201709209285e-12 17.34526024330184" Properties=species:S:1:pos:R:3 unique_starting_index=180 config_type=initial n_minim_iter=18 stress="-0.0005550071041509227 -1.2427251695721053e-15 -2.162248723626929e-16 -1.2427251695721053e-15 -0.000555007104149626 4.592770300037958e-16 -2.162248723626929e-16 4.592770300037958e-16 -0.00033574428317390513" pbc="T T T"
Si       0.94607915       1.63864020      17.94889911
Si      -0.96389820       1.66950369      12.16714570
Si       0.01781904       3.30816086       6.38539228
Si       0.98876391       1.66858271       9.34397141
Si       2.86061572       1.61756635       3.56221799
Si       1.88050835       0.02200331      15.12572482
Si       1.89788703      -0.03138827       2.08020873
Si       0.93383611       1.68022813      13.64371555
Si       2.89816485       1.65931252       7.86196214
Si       3.83575556      -0.02393287       4.96817707
Si      -0.02864159      -0.00174295      16.53168390
Si       1.92277401       3.33382820      10.74993049
12
Lattice="3.822305884338841 -6.840021840973198e-13 -1.5925881475813933e-12 -1.9111529421688354 3.310213996872535 1.7612933652661642e-12 7.224364017674495e-12 -5.054666472726778e-12 17.338901546707454" Properties=species:S:1:pos:R:3 unique_starting_index=180 config_type=initial n_minim_iter=19 stress="-6.983369955077058e-05 -1.3281701534581615e-15 -4.1188235332612267e-16 -1.3281701534581615e-15 -6.98336995493455e-05 5.322627973169248e-16 -4.1188235332612267e-16 5.322627973169248e-16 -7.816213577911834e-05" pbc="T T T"
Si       0.94738495       1.64356065      17.94207451
Si      -0.96148015       1.66797425      12.16244066
Si       0.01409520       3.30889311       6.38280681
Si       0.98445790       1.67465895       9.33963419
Si       2.86922118       1.62031898       3.56000034
Si       1.87977974       0.01523608      15.11926804
Si       1.89928304      -0.02564244       2.07980318
Si       0.93930441       1.67820786      13.63907087
Si       2.89487137       1.65764859       7.85943702
Si       3.83558371      -0.02871083       4.96715509
Si      -0.03150322       0.00285648      16.52642279
Si       1.92937833       3.33606835      10.74678894
12
Lattice="3.824445499247476 -7.208305339904106e-13 -1.5934796317919818e-12 -1.9122227496231212 3.312066957737747 1.7622792857175343e-12 7.22265127968189e-12 -5.05346812235484e-12 17.334790874078514" Properties=species:S:1:pos:R:3 unique_starting_index=180 config_type=initial n_minim_iter=20 stress="0.00038920539190786233 -8.490540827781886e-16 -4.609988167810187e-16 -8.490540827781886e-16 0.00038920539190870373 5.095778153481026e-16 -4.609988167810187e-16 5.095778153481026e-16 0.00024678159640744996" pbc="T T T"
Si       0.94860171       1.64731336      17.93562880
Si      -0.95990839       1.66689710      12.15736518
Si       0.01130668       3.30992346       6.37910155
Si       0.98081819       1.67833577       9.33657777
Si       2.87529507       1.62348561       3.55831414
Si       1.88055499       0.01024558      15.11484139
Si       1.89766723      -0.01952471       2.08001756
Si       0.94648024       1.67840129      13.63654480
Si       2.89252078       1.65319038       7.85828118
Si       3.83434040      -0.03170414       4.96830427
Si      -0.03240404       0.00728284      16.52483152
Si       1.93473189       3.33648826      10.74656789
12
Lattice="3.8228037793094103 -7.167508620668084e-13 -1.5927955986993598e-12 -1.911401889654092 3.3106451865654827 1.7615227919878245e-12 7.223816514261836e-12 -5.054283401339918e-12 17.337587506088077" Properties=species:S:1:pos:R:3 unique_starting_index=180 config_type=initial n_minim_iter=21 stress="-3.365626955901471e-05 -6.182984027476689e-16 -3.8163371581726736e-16 -6.182984027476689e-16 -3.365626955765465e-05 4.648780518408401e-16 -3.8163371581726736e-16 4.648780518408401e-16 -3.894382966996542e-06" pbc="T T T"
Si       0.94778375       1.64250365      17.93650810
Si      -0.96284388       1.66858856      12.15731227
Si       0.01506013       3.31019817       6.37811643
Si       0.98215282       1.67379965       9.33895874
Si       2.86987849       1.62317607       3.55976291
Si       1.88217435       0.01366947      15.11815458
Si       1.89661094      -0.02201286       2.08040751
Si       0.94403272       1.67913836      13.63879918
Si       2.89356200       1.65351969       7.85960335
Si       3.83444231      -0.02669062       4.97019098
Si      -0.02893402       0.00326605      16.52858265
Si       1.92869738       3.33406976      10.74938682
