10
Lattice="3.44097654301157 3.1015983916502455e-20 -1.3000157621384893e-19 -5.277787090320914e-20 5.855284689873168 1.33537522878211e-15 3.3698089092572855e-19 -2.0342000858269698e-15 8.919456016526725" Properties=species:S:1:pos:R:3 unique_starting_index=72 config_type=initial n_minim_iter=1 energy=-1625.307683810503 free_energy=-1625.307683810503 pbc="T T T"
Si       3.08000604       5.38905727       3.30613491
Si       3.08000604       0.46622742       5.61332110
Si       1.35951777       2.46141492       1.15359310
Si       1.35951777       3.39386977       7.76586292
Si       0.47518389       1.72467797       3.31707832
Si       0.47518389       4.13060672       5.60237770
Si       2.19567216       4.65232032       1.14264969
Si       2.19567216       1.20296437       7.77680632
Si       0.48274427       0.00000000      -0.00000000
Si       2.20323254       2.92764234       4.45972801
10
Lattice="3.5745393660269995 5.266462386820671e-20 -2.974854293647172e-19 -7.813695956348206e-21 4.957400019417467 2.7026211361123088e-15 1.3728193803836088e-22 3.120866787256748e-17 10.52987964791349" Properties=species:S:1:pos:R:3 unique_starting_index=72 config_type=initial n_minim_iter=2 stress="0.02311964577583652 -1.5215351190202e-16 6.18361787385534e-17 -1.5215351190202e-16 0.0039628512754252086 2.647724444493717e-17 6.18361787385534e-17 2.647724444493717e-17 0.044389134634324874" pbc="T T T"
Si       3.12033297       4.40877117       3.83334498
Si       3.12033297       0.54862885       6.69653467
Si       1.33306329       1.93007116       1.43159485
Si       1.33306329       3.02732886       9.09828480
Si       0.55888407       1.50447145       3.78710923
Si       0.55888407       3.45292857       6.74277041
Si       2.34615376       3.98317146       1.47783059
Si       2.34615376       0.97422856       9.05204906
Si       0.52942006       0.00000000      -0.00000000
Si       2.31668974       2.47870001       5.26493982
10
Lattice="3.5928745000314333 5.228076622981234e-20 -3.1842537126742293e-19 -1.2575290190402394e-22 4.504926893738518 6.7559084816055994e-15 -5.069948945282076e-21 5.793362690487286e-15 11.19974608478532" Properties=species:S:1:pos:R:3 unique_starting_index=72 config_type=initial n_minim_iter=3 stress="0.0013723027461181173 -2.665061588664025e-16 8.567987644234821e-18 -2.665061588664025e-16 -0.01603406921966242 5.058855859866896e-16 8.567987644234821e-18 5.058855859866896e-16 0.044271248804675395" pbc="T T T"
Si       3.08893347       3.92525348       4.03330688
Si       3.08893347       0.57967341       7.16643920
Si       1.29249622       1.67279003       1.56656616
Si       1.29249622       2.83213686       9.63317992
Si       0.60192349       1.39204084       3.95047567
Si       0.60192349       3.11288606       7.24927042
Si       2.39836074       3.64450428       1.64939738
Si       2.39836074       0.86042261       9.55034871
Si       0.54659995       0.00000000      -0.00000000
Si       2.34303720       2.25246345       5.59987304
10
Lattice="3.6956597760915044 4.9390932381469586e-20 6.279431342345183e-18 -9.099996522971911e-26 4.249584987894478 1.840925738730906e-14 1.7121320381105468e-17 2.247048159541959e-14 11.52752308516843" Properties=species:S:1:pos:R:3 unique_starting_index=72 config_type=initial n_minim_iter=4 stress="-0.003970414845004323 -6.207123858219988e-17 5.856255039371525e-17 -6.207123858219988e-17 -0.0008314443891772739 1.1752886728699275e-15 5.856255039371525e-17 1.1752886728699275e-15 0.027303754571258648" pbc="T T T"
Si       3.12782297       3.62753590       4.10075180
Si       3.12782297       0.62204909       7.42677128
Si       1.27999308       1.50274340       1.66300974
Si       1.27999308       2.74684158       9.86451334
Si       0.66681518       1.33871333       3.99129234
Si       0.66681518       2.91087166       7.53623075
Si       2.51464506       3.46350582       1.77246920
Si       2.51464506       0.78607916       9.75505388
Si       0.56585150       0.00000000      -0.00000000
Si       2.41368139       2.12479249       5.76376154
10
Lattice="3.741530557190453 4.9270972162197116e-20 -7.130035213768634e-17 -2.452369682217593e-27 4.239259060879032 2.585876851123575e-14 -1.8514892150195067e-16 3.4910246710966987e-14 11.075522439814431" Properties=species:S:1:pos:R:3 unique_starting_index=72 config_type=initial n_minim_iter=5 stress="-0.01570408505949932 -1.7110468662343658e-16 2.66021063922293e-16 -1.7110468662343658e-16 -0.007747981751612926 1.8820512622730325e-15 2.66021063922293e-16 1.8820512622730325e-15 -0.01428160921514301" pbc="T T T"
Si       3.16788907       3.61740244       3.93385102
Si       3.16788907       0.62185662       7.14167142
Si       1.29712379       1.49777291       1.60391020
Si       1.29712379       2.74148615       9.47161224
Si       0.68418524       1.33824913       3.84606644
Si       0.68418524       2.90100993       7.22945600
Si       2.55495052       3.45787866       1.69169478
Si       2.55495052       0.78138040       9.38382766
Si       0.55220118       0.00000000      -0.00000000
Si       2.42296646       2.11962953       5.53776122
10
Lattice="3.954080114015665 4.773298289927637e-20 2.6684429150800384e-16 -9.807031066781923e-31 4.106930815769643 4.8407232736733026e-14 7.063154940234484e-16 6.858563257550967e-14 10.935470989404736" Properties=species:S:1:pos:R:3 unique_starting_index=72 config_type=initial n_minim_iter=6 stress="-0.014011657187903813 -8.380618500483829e-17 5.25020083337324e-16 -8.380618500483829e-17 0.013465170383514479 3.652967194729022e-15 5.25020083337324e-16 3.652967194729022e-15 -0.04080892570910746" pbc="T T T"
Si       3.33270320       3.46201134       3.84646377
Si       3.33270320       0.64491947       7.08900722
Si       1.35566315       1.40854594       1.62127173
Si       1.35566315       2.69838488       9.31419926
Si       0.78416508       1.32162251       3.82033584
Si       0.78416508       2.78530830       7.11513515
Si       2.76120513       3.37508792       1.64739965
Si       2.76120513       0.73184290       9.28807134
Si       0.49164147       0.00000000      -0.00000000
Si       2.46868152       2.05346541       5.46773549
10
Lattice="4.142515247295683 4.5840556125565866e-20 -1.0698527045963532e-16 -3.9017043562705304e-32 3.944107011885358 1.0354481112875142e-13 -2.766678087933959e-16 1.4956829578210954e-13 10.932197374375432" Properties=species:S:1:pos:R:3 unique_starting_index=72 config_type=initial n_minim_iter=7 stress="-0.014424736875566996 -2.830294770028425e-16 3.7465000103001453e-16 -2.830294770028425e-16 0.014481308189428927 7.949567964868167e-15 3.7465000103001453e-16 7.949567964868167e-15 -0.040248757227500535" pbc="T T T"
Si       3.49398372       3.29718318       3.82207107
Si       3.49398372       0.64692384       7.11012630
Si       1.42272610       1.32512967       1.64402761
Si       1.42272610       2.61897734       9.28816976
Si       0.86723261       1.28821148       3.85417085
Si       0.86723261       2.65589554       7.07802652
Si       2.93849024       3.26026498       1.61192784
Si       2.93849024       0.68384203       9.32026954
Si       0.41876085       0.00000000      -0.00000000
Si       2.49001847       1.97205351       5.46609869
10
Lattice="4.285797985266882 4.606435953589022e-20 -1.2147756126010408e-18 5.105922588149096e-35 3.9633629869307017 2.1467347367792498e-13 4.0683073316337987e-19 3.2295261149558463e-13 10.719877538894835" Properties=species:S:1:pos:R:3 unique_starting_index=72 config_type=initial n_minim_iter=8 stress="-0.01788642051943147 -4.4247776387931334e-16 2.975119621108179e-16 -4.4247776387931334e-16 0.025990676504452838 1.6989781901996746e-14 2.975119621108179e-16 1.6989781901996746e-14 -0.026507252674259886" pbc="T T T"
Si       3.66642557       3.32874851       3.76118628
Si       3.66642557       0.63461448       6.95869126
Si       1.52352658       1.34706701       1.59875249
Si       1.52352658       2.61629597       9.12112505
Si       0.89513172       1.29892507       3.85109802
Si       0.89513172       2.66443792       6.86877952
Si       3.03803071       3.28060656       1.50884075
Si       3.03803071       0.68275642       9.21103679
Si       0.33425768       0.00000000      -0.00000000
Si       2.47715667       1.98168149       5.35993877
10
Lattice="4.429159594379358 4.4258150163376325e-20 -1.3936762342554948e-18 -1.6882840748721217e-37 3.8079573013702266 3.5284803304613286e-13 -2.5887058958285777e-21 5.178334185420041e-13 10.885025729576261" Properties=species:S:1:pos:R:3 unique_starting_index=72 config_type=initial n_minim_iter=9 stress="-0.007191875410932204 -3.190079398922915e-16 2.741715782593124e-16 -3.190079398922915e-16 0.013593718396918055 2.7055758273059817e-14 2.741715782593124e-16 2.7055758273059817e-14 -0.0038911940801098464" pbc="T T T"
Si       3.79594623       3.18074211       3.81070298
Si       3.79594623       0.62721520       7.07432275
Si       1.58136643       1.27676346       1.63180989
Si       1.58136643       2.53119385       9.25321584
Si       0.93429111       1.25633459       3.90916276
Si       0.93429111       2.55162271       6.97586296
Si       3.14887091       3.16031324       1.53335010
Si       3.14887091       0.64764406       9.35167563
Si       0.31325035       0.00000000      -0.00000000
Si       2.52783015       1.90397865       5.44251286
10
Lattice="4.523788152296937 4.3532338565603696e-20 -1.3949733009749807e-18 -2.2640223119502774e-39 3.745508700089406 5.925341434858186e-13 1.1731269037257213e-23 8.747136416201363e-13 10.902986468286905" Properties=species:S:1:pos:R:3 unique_starting_index=72 config_type=initial n_minim_iter=10 stress="0.00013975783741670112 -3.9406541405685264e-16 7.057945953529162e-17 -3.9406541405685264e-16 0.0005565843169734101 4.178556312935115e-14 7.057945953529162e-17 4.178556312935115e-14 0.021394036751735943" pbc="T T T"
Si       3.92012040       3.13907463       3.83660006
Si       3.92012040       0.60643407       7.06638641
Si       1.65822632       1.26632028       1.61489318
Si       1.65822632       2.47918842       9.28809329
Si       0.90442774       1.23043050       3.90953666
Si       0.90442774       2.51507820       6.99344981
Si       3.16632182       3.10318485       1.54195657
Si       3.16632182       0.64232385       9.36102989
Si       0.33344343       0.00000000      -0.00000000
Si       2.59533750       1.87275435       5.45149323
10
Lattice="4.672831254703341 4.296900499637202e-20 -1.3600064272676331e-18 9.016583439571759e-42 3.6970396572159077 9.755836229356606e-13 -2.2377898622329946e-25 1.4681418664485312e-12 10.629653505487726" Properties=species:S:1:pos:R:3 unique_starting_index=72 config_type=initial n_minim_iter=11 stress="0.008468532924401452 -4.377518509821504e-16 4.249882864095954e-17 -4.377518509821504e-16 -0.009150035469222733 7.175437786225339e-14 4.249882864095954e-17 7.175437786225339e-14 0.013074309763551386" pbc="T T T"
Si       4.09007730       3.09980501       3.75310893
Si       4.09007730       0.59723465       6.87654458
Si       1.75366168       1.25128518       1.56171782
Si       1.75366168       2.44575447       9.06793568
Si       0.90465150       1.21450613       3.81081812
Si       0.90465150       2.48253353       6.81883539
Si       3.24106713       3.06302596       1.50400863
Si       3.24106713       0.63401370       9.12564487
Si       0.32197210       0.00000000      -0.00000000
Si       2.65838773       1.84851983       5.31482675
10
Lattice="4.614397168640694 4.3518805203022525e-20 -1.3499744189142585e-18 2.5693936944707277e-42 3.7443442938510203 1.5176071591597017e-12 -1.5207362963198092e-26 2.3183962830847984e-12 10.55124510743657" Properties=species:S:1:pos:R:3 unique_starting_index=72 config_type=initial n_minim_iter=12 stress="0.002065075375600142 -4.645703639127457e-16 1.7211593903463947e-16 -4.645703639127457e-16 -0.006040148967245446 1.1454519046985194e-13 1.7211593903463947e-16 1.1454519046985194e-13 0.002478567692954401" pbc="T T T"
Si       4.04134137       3.13499121       3.73326178
Si       4.04134137       0.60935308       6.81798333
Si       1.73414278       1.26281906       1.54236078
Si       1.73414278       2.48152523       9.00888433
Si       0.88257580       1.22898879       3.76146466
Si       0.88257580       2.51535550       6.78978045
Si       3.18977439       3.10116094       1.51415790
Si       3.18977439       0.64318336       9.03708721
Si       0.33465021       0.00000000      -0.00000000
Si       2.64184880       1.87217215       5.27562255
10
Lattice="4.599158928862934 4.389211722804457e-20 -1.340140367815531e-18 1.2112172632509465e-43 3.7764639429263496 2.3075678925145054e-12 -1.5764547014279334e-27 3.5519175413490663e-12 10.47438333361998" Properties=species:S:1:pos:R:3 unique_starting_index=72 config_type=initial n_minim_iter=13 stress="0.0007044893270589775 -4.766405069874238e-16 6.943608125433001e-17 -4.766405069874238e-16 -0.0025664380083810384 1.8926815085084427e-13 6.943608125433001e-17 1.8926815085084427e-13 -0.008425677090285574" pbc="T T T"
Si       4.03806021       3.13885555       3.71686013
Si       4.03806021       0.63760839       6.75752320
Si       1.73848075       1.25062358       1.52033154
Si       1.73848075       2.52584036       8.95405180
Si       0.87565750       1.24562298       3.70173836
Si       0.87565750       2.53084096       6.77264497
Si       3.17523696       3.13385496       1.53545330
Si       3.17523696       0.64260899       8.93893003
Si       0.32142325       0.00000000      -0.00000000
Si       2.62100272       1.88823197       5.23719167
10
Lattice="4.58291082253004 4.4245284251243864e-20 -1.3388130230296347e-18 1.513794870946175e-44 3.8068503223953534 3.4594016978470078e-12 -1.9507748352332631e-28 5.332728955500448e-12 10.464008963243208" Properties=species:S:1:pos:R:3 unique_starting_index=72 config_type=initial n_minim_iter=14 stress="-0.001009734674593121 -3.909088105481707e-16 8.150567596323156e-17 -3.909088105481707e-16 -0.00123952229099848 2.9176488926716546e-13 8.150567596323156e-17 2.9176488926716546e-13 -0.008119606514307274" pbc="T T T"
Si       4.04123521       3.14107710       3.72862255
Si       4.04123521       0.66577322       6.73538641
Si       1.74977980       1.23765194       1.50338193
Si       1.74977980       2.56919839       8.96062704
Si       0.86808722       1.26201237       3.67395236
Si       0.86808722       2.54483795       6.79005660
Si       3.15954263       3.16543753       1.55805212
Si       3.15954263       0.64141279       8.90595684
Si       0.29435950       0.00000000      -0.00000000
Si       2.58581491       1.90342516       5.23200448
10
Lattice="4.577373081975458 4.458399116149852e-20 -1.3414620224932257e-18 -2.402921159022544e-45 3.8359925583099397 5.16424976196734e-12 -2.1854737692787261e-29 7.954745298761234e-12 10.484713239608986" Properties=species:S:1:pos:R:3 unique_starting_index=72 config_type=initial n_minim_iter=15 stress="-4.383124641547021e-05 -6.568555833436115e-16 2.1956308439404342e-16 -6.568555833436115e-16 0.0021559833650706883 4.48878847261508e-13 2.1956308439404342e-16 4.48878847261508e-13 -0.002001082744270094" pbc="T T T"
Si       4.05029178       3.14731486       3.75326701
Si       4.05029178       0.68867770       6.73144623
Si       1.76160524       1.22931858       1.48908961
Si       1.76160524       2.60667398       8.99562363
Si       0.86727519       1.27511506       3.66871199
Si       0.86727519       2.56087750       6.81600125
Si       3.15596173       3.19311134       1.57364463
Si       3.15596173       0.64288122       8.91106861
Si       0.26565041       0.00000000      -0.00000000
Si       2.55433695       1.91799628       5.24235662
10
Lattice="4.571410296084668 4.449555679312335e-20 -1.3466423434336004e-18 1.8862552181686074e-47 3.8283836931912134 1.0244880823631548e-11 -3.872385239205568e-31 1.5648207980341705e-11 10.525202033720166" Properties=species:S:1:pos:R:3 unique_starting_index=72 config_type=initial n_minim_iter=16 stress="-0.0027168410968237107 -6.135733522827222e-16 2.1619457427249619e-16 -6.135733522827222e-16 -0.00031121162567564117 9.021827117820202e-13 2.1619457427249619e-16 9.021827117820202e-13 0.0043754063638114845" pbc="T T T"
Si       4.04683444       3.13087140       3.78992305
Si       4.04683444       0.69751229       6.73527899
Si       1.76112929       1.21667956       1.47267797
Si       1.76112929       2.61170414       9.05252406
Si       0.87525982       1.26732940       3.68133739
Si       0.87525982       2.56105430       6.84386465
Si       3.16096497       3.18152124       1.58126363
Si       3.16096497       0.64686245       8.94393840
Si       0.24343787       0.00000000      -0.00000000
Si       2.52914302       1.91419185       5.26260102
10
Lattice="4.621930568156663 4.446632134801238e-20 -1.3355057450828727e-18 -5.165583008052854e-49 3.8258682848680667 2.0112375691918268e-11 -1.0908666984734073e-32 3.0797689774075175e-11 10.4381596588991" Properties=species:S:1:pos:R:3 unique_starting_index=72 config_type=initial n_minim_iter=17 stress="0.004942672427201047 -6.262232968440379e-16 2.41506953115655e-16 -6.262232968440379e-16 0.003999389037731429 1.8807156541777237e-12 2.41506953115655e-16 1.8807156541777237e-12 0.004077843488845347" pbc="T T T"
Si       4.09038299       3.13092030       3.78243803
Si       4.09038299       0.69494798       6.65572163
Si       1.77941770       1.21798616       1.43664180
Si       1.77941770       2.60788213       9.00151786
Si       0.88559891       1.25053944       3.65105132
Si       0.88559891       2.57532885       6.78710834
Si       3.19656419       3.16347358       1.56802851
Si       3.19656419       0.66239471       8.87013115
Si       0.24714453       0.00000000      -0.00000000
Si       2.55810982       1.91293414       5.21907983
10
Lattice="4.612748257562762 4.429779716738882e-20 -1.3316357989614902e-18 -2.7702833105995115e-49 3.81136851760599 2.9886712376801205e-11 -1.9857454516979327e-33 4.566403195469365e-11 10.407912604078236" Properties=species:S:1:pos:R:3 unique_starting_index=72 config_type=initial n_minim_iter=18 stress="0.0003224527875025793 -6.23800964109267e-16 4.56633324745943e-16 -6.23800964109267e-16 -0.001739314881444954 2.82842414335873e-12 4.56633324745943e-16 2.82842414335873e-12 8.724984660198055e-06" pbc="T T T"
Si       4.08307264       3.11387143       3.78005824
Si       4.08307264       0.69749709       6.62785436
Si       1.77669851       1.20818717       1.42389806
Si       1.77669851       2.60318135       8.98401454
Si       0.88402127       1.23957467       3.63155762
Si       0.88402127       2.57179384       6.77635498
Si       3.19039540       3.14525893       1.57239868
Si       3.19039540       0.66610958       8.83551392
Si       0.24465811       0.00000000      -0.00000000
Si       2.55103224       1.90568426       5.20395630
10
Lattice="4.5905986944189765 4.4489446104334954e-20 -1.3277575671342002e-18 5.553482582225893e-51 3.8278579322355983 5.668250191185386e-11 -1.3489244038777365e-34 8.67976678516921e-11 10.377600789132279" Properties=species:S:1:pos:R:3 unique_starting_index=72 config_type=initial n_minim_iter=19 stress="-0.002495506695573632 -7.174218828439583e-16 6.242045216796556e-16 -7.174218828439583e-16 -0.0014682521812140212 5.4668930912599e-12 6.242045216796556e-16 5.4668930912599e-12 -0.004302562969488097" pbc="T T T"
Si       4.07002810       3.11240461       3.78111155
Si       4.07002810       0.71545332       6.59648924
Si       1.77472875       1.19847564       1.40768884
Si       1.77472875       2.62938229       8.96991195
Si       0.88044821       1.23321199       3.60068799
Si       0.88044821       2.59464594       6.77691280
Si       3.17574756       3.14714096       1.58811240
Si       3.17574756       0.68071697       8.78948839
Si       0.22901639       0.00000000      -0.00000000
Si       2.52431574       1.91392897       5.18880039
10
Lattice="4.583199953331396 4.4533052761722236e-20 -1.3365269703875039e-18 -1.6223321462059628e-52 3.831609836161298 1.0814507049558596e-10 -7.304944640367946e-36 1.6470324967991138e-10 10.446141438706048" Properties=species:S:1:pos:R:3 unique_starting_index=72 config_type=initial n_minim_iter=20 stress="0.0006635825700508692 -5.906947515054714e-16 4.165225587798452e-16 -5.906947515054714e-16 -1.878769236882831e-05 1.0219415721502348e-11 4.165225587798452e-16 1.0219415721502348e-11 -0.0007086644070644428" pbc="T T T"
Si       4.07120555       3.10314172       3.79425116
Si       4.07120555       0.72846812       6.65189027
Si       1.77960558       1.18733680       1.42881955
Si       1.77960558       2.64427303       9.01732188
Si       0.88247416       1.20788922       3.61698940
Si       0.88247416       2.62372062       6.82915203
Si       3.17407413       3.12369413       1.60608132
Si       3.17407413       0.70791570       8.84006012
Si       0.20628295       0.00000000      -0.00000000
Si       2.49788292       1.91580492       5.22307072
10
Lattice="4.564575587168849 4.453117709788224e-20 -1.3461553049837918e-18 3.4697421775645248e-53 3.831448455534081 1.623936564738205e-10 -6.899573138459232e-37 2.4635549279697546e-10 10.52139539709743" Properties=species:S:1:pos:R:3 unique_starting_index=72 config_type=initial n_minim_iter=21 stress="0.0008446857354088601 -7.24670244301813e-16 4.3412871058489e-16 -7.24670244301813e-16 0.0003494502142197778 1.5443192990656958e-11 4.3412871058489e-16 1.5443192990656958e-11 0.002298495349441848" pbc="T T T"
Si       4.05115752       3.09530637       3.80962428
Si       4.05115752       0.73614209       6.71177112
Si       1.76886973       1.17958214       1.45107342
Si       1.76886973       2.65186632       9.07032198
Si       0.88338515       1.19261411       3.64218409
Si       0.88338515       2.63883434       6.87921131
Si       3.16567294       3.10833834       1.61851361
Si       3.16567294       0.72311011       8.90288179
Si       0.20345906       0.00000000      -0.00000000
Si       2.48574686       1.91572423       5.26069770
