12
Lattice="5.87400532806813 -0.3815965660419675 1.1542632662827401 -2.5211778067483768 5.025782516211754 0.34410111415472383 2.3424138077919965 0.9343147394047234 8.098596738299564" Properties=species:S:1:pos:R:3 unique_starting_index=44 config_type=initial n_minim_iter=1 energy=-1953.4192985462187 free_energy=-1953.4192985462187 pbc="T T T"
Si       1.83257050       2.70554530       6.85572996
Si      -1.09252515       3.33847596       3.88600964
Si       1.50534432       4.57885855       5.27909366
Si       2.66066166       2.65136567       4.01297770
Si       5.03147333       4.93445948       8.46508038
Si       5.35927106       1.03859641       6.29342157
Si       3.87103874       2.66167102       1.88861450
Si       0.04495508       3.63497175       1.86273569
Si       3.42644908       2.95579188       8.61659622
Si       5.95276900       0.14861698       3.43890199
Si       1.67229093       0.45633715       4.56218197
Si       5.44328572       1.60917355       8.68421855
12
Lattice="5.878863893374114 -0.3838465955185911 1.154855734032887 -2.526537751163553 5.0266188822534055 0.3514217139653928 2.344016594013725 0.9440751308972648 8.105862367778665" Properties=species:S:1:pos:R:3 unique_starting_index=44 config_type=initial n_minim_iter=2 stress="0.0006902373257109919 -3.1741439615593616e-05 -7.043056846929518e-05 -3.1741439615593616e-05 0.0002485073572128966 0.0003994524090070608 -7.043056846929518e-05 0.0003994524090070608 0.0006381747099831193" pbc="T T T"
Si       1.83199751       2.71426641       6.86456563
Si      -1.09596664       3.34445860       3.89304773
Si       1.50530576       4.58413603       5.28911135
Si       2.66191293       2.65392251       4.02060965
Si       5.03239958       4.94101449       8.47790598
Si       5.36221919       1.04416721       6.29965533
Si       3.87251970       2.66132217       1.89404644
Si       0.04285768       3.63677176       1.86938690
Si       3.42812309       2.96444598       8.62657036
Si       5.95675874       0.14897616       3.44217705
Si       1.67309603       0.46098479       4.56619845
Si       5.44637166       1.61816960       8.69397294
12
Lattice="5.872697946808348 -0.3892087414891753 1.1553787014410084 -2.5297683428052196 5.022394114630288 0.3567417979676172 2.3431850104356915 0.9504092433616168 8.099004290820703" Properties=species:S:1:pos:R:3 unique_starting_index=44 config_type=initial n_minim_iter=3 stress="-0.001798324635649312 -0.0006613077503753075 -3.522984910517707e-05 -0.0006613077503753075 -0.0022615963438504323 0.0010498931711817685 -3.522984910517707e-05 0.0010498931711817685 -0.0018559487014269574" pbc="T T T"
Si       1.82735382       2.71957460       6.86150042
Si      -1.09918585       3.34801767       3.89098264
Si       1.50502177       4.58215030       5.28852518
Si       2.65971638       2.64963046       4.02329645
Si       5.02322202       4.93563595       8.47492394
Si       5.35439010       1.04542209       6.29625308
Si       3.86604587       2.65557934       1.89742762
Si       0.03968242       3.63318330       1.87223338
Si       3.42521849       2.96540250       8.62029345
Si       5.94846214       0.14417865       3.44182411
Si       1.67077240       0.46193499       4.56254036
Si       5.43966067       1.62313178       8.69130585
12
Lattice="5.8814138861081675 -0.39282035843796176 1.1617373087973981 -2.534268418655487 5.034692918188884 0.35084108221086974 2.3517011601243722 0.9443997392821352 8.113057091528688" Properties=species:S:1:pos:R:3 unique_starting_index=44 config_type=initial n_minim_iter=4 stress="0.00028412435264112633 -0.0007877605543119414 9.153149144458517e-05 -0.0007877605543119414 0.0016060021734881946 0.0001624112116497158 9.153149144458517e-05 0.0001624112116497158 0.0009216467039796928" pbc="T T T"
Si       1.83124551       2.72335725       6.87222164
Si      -1.10161111       3.35630870       3.89081223
Si       1.51740857       4.58797666       5.29153502
Si       2.66971320       2.64792785       4.03326214
Si       5.03434252       4.93426665       8.48433601
Si       5.36175919       1.04258643       6.30991032
Si       3.87328915       2.66030938       1.90147078
Si       0.04169523       3.63882962       1.87164596
Si       3.43715601       2.96130265       8.63092762
Si       5.95515861       0.13721735       3.45291932
Si       1.67359553       0.45455214       4.57109812
Si       5.45018404       1.62244622       8.71196364
12
Lattice="5.887199207219645 -0.3799050893985796 1.1600631782701054 -2.526376627197718 5.018649909446107 0.3484751209639839 2.3543764849608997 0.9428762690511739 8.109387400892844" Properties=species:S:1:pos:R:3 unique_starting_index=44 config_type=initial n_minim_iter=5 stress="0.0006106200717525253 0.00028817361576692933 0.00010306016341495045 0.00028817361576692933 -0.00027409086775258376 5.5084998698493556e-05 0.00010306016341495045 5.5084998698493556e-05 0.0005343769751539759" pbc="T T T"
Si       1.83748462       2.71723856       6.86846312
Si      -1.09608531       3.34438611       3.88841353
Si       1.52686777       4.57884744       5.28673952
Si       2.67726406       2.64525979       4.02970478
Si       5.04894503       4.93049311       8.47778815
Si       5.36897226       1.04900594       6.30623799
Si       3.88312969       2.66248594       1.89818714
Si       0.04987055       3.63004573       1.86808465
Si       3.44466219       2.95817443       8.62570136
Si       5.96178176       0.14802204       3.44976345
Si       1.67547744       0.45472084       4.56915047
Si       5.45784294       1.62588064       8.70686489
12
Lattice="5.883622707013924 -0.3813748285977094 1.1569577178490413 -2.5261699127630677 5.022226183633499 0.3490921927037452 2.349842987635677 0.9428488174129828 8.102212779340837" Properties=species:S:1:pos:R:3 unique_starting_index=44 config_type=initial n_minim_iter=6 stress="-6.510395188528418e-05 0.0001485346333300312 -0.00021734989029535554 0.0001485346333300312 -8.265560217558082e-05 1.3533404929569067e-05 -0.00021734989029535554 1.3533404929569067e-05 -0.00023341592569757247" pbc="T T T"
Si       1.83306549       2.71806074       6.86312527
Si      -1.09721541       3.34618868       3.88563078
Si       1.52248826       4.58139454       5.28180798
Si       2.67382952       2.64525562       4.02563948
Si       5.04201950       4.93252803       8.46916914
Si       5.36361363       1.04902768       6.29967836
Si       3.88000211       2.66368681       1.89533062
Si       0.04871818       3.63198916       1.86603907
Si       3.43819281       2.95936994       8.61740680
Si       5.95715050       0.14699673       3.44428899
Si       1.67290331       0.45482970       4.56536974
Si       5.45139413       1.62562740       8.69823606
12
Lattice="5.882291280628464 -0.3849373177664241 1.1604592157848168 -2.527821049791412 5.0246129821735686 0.3467243776356187 2.353526993767722 0.940590621129751 8.101700236371167" Properties=species:S:1:pos:R:3 unique_starting_index=44 config_type=initial n_minim_iter=7 stress="-0.0004952888304242877 -0.00012985572500705708 6.623888064847499e-05 -0.00012985572500705708 -9.949909718475452e-05 -0.00013140349215060224 6.623888064847499e-05 -0.00013140349215060224 -0.0007076369452356361" pbc="T T T"
Si       1.83375218       2.71653379       6.86391634
Si      -1.09554742       3.34681072       3.88278342
Si       1.52291790       4.58111626       5.27988784
Si       2.67479091       2.64061079       4.02703928
Si       5.04259522       4.92935124       8.46889681
Si       5.36456746       1.04714203       6.30240532
Si       3.87907158       2.66296772       1.89739226
Si       0.04911075       3.63178857       1.86383483
Si       3.43953640       2.95697320       8.61610447
Si       5.95604510       0.14303461       3.44615089
Si       1.67475567       0.45309442       4.56610095
Si       5.45370186       1.62264095       8.70084671
12
Lattice="5.880454928305467 -0.3858873404309152 1.1613935931119421 -2.527815791584254 5.025018287187818 0.3469846821759554 2.3529156192645124 0.9404307248205058 8.106818851281224" Properties=species:S:1:pos:R:3 unique_starting_index=44 config_type=initial n_minim_iter=8 stress="-0.000756944423362535 -0.00018398547713019368 -0.0002539784635492495 -0.00018398547713019368 3.962939187714057e-05 -0.00011212908644394362 -0.0002539784635492495 -0.00011212908644394362 -0.00039851829446942085" pbc="T T T"
Si       1.82993444       2.71668523       6.87135414
Si      -1.09432938       3.34712167       3.88352892
Si       1.52309605       4.58168697       5.28130940
Si       2.67597263       2.63367684       4.03219029
Si       5.04058463       4.92800499       8.47299230
Si       5.36186456       1.05017585       6.30840968
Si       3.87915616       2.66525551       1.89951522
Si       0.05127792       3.63070012       1.86241344
Si       3.43642930       2.95653139       8.61910423
Si       5.95208921       0.14157330       3.44619050
Si       1.67369470       0.45196191       4.57043965
Si       5.45107524       1.62440490       8.70963661
12
Lattice="5.886010558730741 -0.3846701001120534 1.1652544898098112 -2.528722695642272 5.024128935586926 0.3456220620035956 2.3605536473221895 0.9414233056180078 8.107626001901915" Properties=species:S:1:pos:R:3 unique_starting_index=44 config_type=initial n_minim_iter=9 stress="-6.0431243127835035e-05 -3.33198558350016e-05 0.00012764065089863422 -3.33198558350016e-05 0.00014702253187729968 4.1952583548671286e-05 0.00012764065089863422 4.1952583548671286e-05 -0.0003228453613108302" pbc="T T T"
Si       1.83471346       2.71745057       6.87347424
Si      -1.09061810       3.34691386       3.88152467
Si       1.52944438       4.58219050       5.28131298
Si       2.68268980       2.63055685       4.03504144
Si       5.05166942       4.92886222       8.47552078
Si       5.37040673       1.05353460       6.31266051
Si       3.88481748       2.66788065       1.90266042
Si       0.05472279       3.63023777       1.86139991
Si       3.44478195       2.95738731       8.61937285
Si       5.95811523       0.14260346       3.44808794
Si       1.67779914       0.45191414       4.57182209
Si       5.46105745       1.62719615       8.71419989
12
Lattice="5.888854290623379 -0.38505773367952834 1.1674976762890736 -2.5300302139994764 5.019245688122676 0.34343114636412425 2.3623842305096847 0.9365899304887028 8.117908260202825" Properties=species:S:1:pos:R:3 unique_starting_index=44 config_type=initial n_minim_iter=10 stress="0.0005433859980113013 2.603227918853671e-05 1.4999256437903596e-05 2.603227918853671e-05 -0.000242464398910216 6.259639854474073e-06 1.4999256437903596e-05 6.259639854474073e-06 0.0006811596021198098" pbc="T T T"
Si       1.83346996       2.71153642       6.88216397
Si      -1.08826098       3.34175938       3.88349998
Si       1.53119174       4.57515526       5.28611824
Si       2.68580554       2.62197606       4.04063182
Si       5.05520365       4.91995354       8.48544056
Si       5.37358489       1.05083946       6.32224170
Si       3.88709278       2.66746881       1.90494092
Si       0.05607677       3.62655018       1.86124413
Si       3.44648136       2.94966841       8.62794386
Si       5.95958061       0.14015493       3.44962719
Si       1.67814935       0.44816157       4.57801009
Si       5.46283305       1.62247742       8.72680685
12
Lattice="5.886493795524791 -0.3819173719233913 1.1698116334332231 -2.5257585814230312 5.021195363603975 0.3418566660850782 2.3651004061869263 0.9377316352860895 8.11845014349071" Properties=species:S:1:pos:R:3 unique_starting_index=44 config_type=initial n_minim_iter=11 stress="0.0003439907582406947 0.0005035415250918545 9.626238539236037e-05 0.0005035415250918545 0.00026051758934624486 0.00041499052410414654 9.626238539236037e-05 0.00041499052410414654 0.0004966008707185908" pbc="T T T"
Si       1.83367119       2.71407721       6.88164035
Si      -1.07960891       3.34210011       3.88086316
Si       1.53645438       4.57746679       5.28791870
Si       2.69002008       2.62187992       4.04235569
Si       5.06048839       4.92577924       8.48940341
Si       5.37570797       1.05415492       6.32533860
Si       3.88697071       2.67644537       1.90754097
Si       0.05927348       3.63135690       1.86139927
Si       3.45032257       2.95141926       8.62725865
Si       5.95609657       0.14256245       3.44574570
Si       1.67775776       0.44739901       4.57854364
Si       5.46194457       1.62673934       8.72905591
12
Lattice="5.887920318132149 -0.3878198738469117 1.1695777509303007 -2.530465978522602 5.02259559955361 0.3373896726236557 2.3645863506602187 0.92861050277393 8.114526916923795" Properties=species:S:1:pos:R:3 unique_starting_index=44 config_type=initial n_minim_iter=12 stress="0.00023815917303379605 0.00010963538664278252 -2.8887637549989777e-05 0.00010963538664278252 4.872024640951617e-05 8.760127502724955e-05 -2.8887637549989777e-05 8.760127502724955e-05 -7.118003074235393e-07" pbc="T T T"
Si       1.82976786       2.70641685       6.87646909
Si      -1.08011914       3.33845151       3.87601553
Si       1.53346030       4.57053151       5.28305447
Si       2.68959592       2.61423380       4.03925594
Si       5.05756710       4.91424615       8.48308225
Si       5.37657050       1.04404083       6.32255400
Si       3.88514876       2.67408065       1.90552022
Si       0.05665738       3.63075283       1.85734023
Si       3.44785745       2.94043963       8.62058121
Si       5.95552903       0.13394207       3.44040294
Si       1.67673467       0.44114560       4.57668710
Si       5.46002602       1.61482079       8.72437065
12
Lattice="5.8836069207338255 -0.39763680766939663 1.1746704010063387 -2.534690654681662 5.026133167232407 0.3282541033195183 2.366705159863849 0.9134199188278709 8.11775398010092" Properties=species:S:1:pos:R:3 unique_starting_index=44 config_type=initial n_minim_iter=13 stress="-0.0007498341567537101 -0.00039660298750485265 -5.256935301230866e-05 -0.00039660298750485265 -0.00022273025705782444 -0.00037225528939316985 -5.256935301230866e-05 -0.00037225528939316985 -0.0004938534028098985" pbc="T T T"
Si       1.82415318       2.69451305       6.87686820
Si      -1.07492136       3.33121281       3.87119641
Si       1.53186236       4.55924501       5.28133404
Si       2.69073074       2.59957121       4.04191931
Si       5.05244054       4.89641856       8.48431984
Si       5.37663541       1.02835924       6.32835366
Si       3.87896483       2.67366687       1.90837235
Si       0.05522712       3.63105992       1.85054922
Si       3.44435438       2.92335732       8.61933886
Si       5.94695031       0.11838568       3.43531521
Si       1.67545992       0.43014795       4.58073896
Si       5.45509402       1.59656008       8.72963188
12
Lattice="5.89510534962795 -0.4004853973634244 1.1802198913216075 -2.5403970396512645 5.0276544344363465 0.32193271687614855 2.377586579384944 0.9061653432103643 8.119945721036071" Properties=species:S:1:pos:R:3 unique_starting_index=44 config_type=initial n_minim_iter=14 stress="0.00036242674827133053 -7.347502662280187e-05 -0.00022775959724796323 -7.347502662280187e-05 0.00024035032371520502 -2.5566871594916082e-05 -0.00022775959724796323 -2.5566871594916082e-05 -0.000268715703444847" pbc="T T T"
Si       1.82584475       2.69137674       6.87852830
Si      -1.06635381       3.32186589       3.86996685
Si       1.54463816       4.55085053       5.28269364
Si       2.70764361       2.58882021       4.05073820
Si       5.06705060       4.89007896       8.48668549
Si       5.39530682       1.02287868       6.33290192
Si       3.88591330       2.68379142       1.91642649
Si       0.06057422       3.63449813       1.84333902
Si       3.45242300       2.91788967       8.61631787
Si       5.94896390       0.10718164       3.42272348
Si       1.67853034       0.42213658       4.58702784
Si       5.46546011       1.59339934       8.73345264
12
Lattice="5.894093638175497 -0.40320367492201425 1.1938835320026773 -2.5400617498548588 5.02567727525194 0.31402025456506205 2.3912365608072497 0.8987036898376091 8.139628698001037" Properties=species:S:1:pos:R:3 unique_starting_index=44 config_type=initial n_minim_iter=15 stress="-8.167831214599826e-05 0.0002547497767055419 0.00028778373209080194 0.0002547497767055419 -7.211148035484823e-05 0.00017655990822965957 0.00028778373209080194 0.00017655990822965957 0.0005023846628540426" pbc="T T T"
Si       1.83340001       2.68562938       6.89477539
Si      -1.05251793       3.31094246       3.87630322
Si       1.55673299       4.53904505       5.29604848
Si       2.72048386       2.58010031       4.06967259
Si       5.07779601       4.88132847       8.51090998
Si       5.40950720       1.01408771       6.35296320
Si       3.88442095       2.68955583       1.93103609
Si       0.06480622       3.63572337       1.84259061
Si       3.46200795       2.91167429       8.63462625
Si       5.94111468       0.09554391       3.42365364
Si       1.68468220       0.41528848       4.60250920
Si       5.47332161       1.58902277       8.75567155
12
Lattice="5.920043912440708 -0.4293806223435394 1.220438070358604 -2.565821361469251 5.0244378618627 0.2819579728448033 2.4266007892174004 0.85103185555649 8.161687960426852" Properties=species:S:1:pos:R:3 unique_starting_index=44 config_type=initial n_minim_iter=16 stress="-9.268338252062973e-05 -0.00018211606595295733 -0.0005147210451014545 -0.00018211606595295733 0.00011491309256013213 -1.1807347891375711e-05 -0.0005147210451014545 -1.1807347891375711e-05 0.000324947418022526" pbc="T T T"
Si       1.84211113       2.64687665       6.91948174
Si      -1.02207559       3.27561138       3.86907656
Si       1.57982068       4.48356887       5.30095964
Si       2.76771871       2.51781136       4.11587803
Si       5.10851771       4.81983061       8.53341491
Si       5.46981940       0.96021944       6.37895785
Si       3.88712026       2.70553200       1.95550531
Si       0.06311894       3.63874576       1.82945592
Si       3.48127115       2.86407138       8.63538240
Si       5.92537728       0.02879318       3.38171612
Si       1.70774732       0.37378864       4.62969337
Si       5.49768956       1.55285213       8.77265030
12
Lattice="5.943933856874321 -0.4486179922042738 1.2511720425482438 -2.584782848299033 5.021928219465498 0.2508421624005342 2.4684641956797027 0.8110619099542233 8.183979372260126" Properties=species:S:1:pos:R:3 unique_starting_index=44 config_type=initial n_minim_iter=17 stress="9.762889671583259e-05 -0.00034804717331162686 -0.000370192134415195 -0.00034804717331162686 6.577023439033593e-06 -0.0002637690443407462 -0.000370192134415195 -0.0002637690443407462 0.00041383099078297646" pbc="T T T"
Si       1.86014498       2.61431056       6.94410978
Si      -0.98818265       3.24460977       3.86146559
Si       1.60970724       4.43607677       5.30724165
Si       2.81648275       2.46292203       4.16033666
Si       5.14935568       4.76926431       8.55951153
Si       5.53134955       0.91714504       6.40815408
Si       3.89408634       2.72211377       1.98273982
Si       0.06603342       3.64247141       1.81607478
Si       3.51102343       2.82571463       8.64123648
Si       5.91444785      -0.02479437       3.35125884
Si       1.73508125       0.33890123       4.65662106
Si       5.53000833       1.52375761       8.79481346
12
Lattice="5.971193503415843 -0.4547483899229172 1.2792785062233505 -2.5958590849776866 5.017186918314484 0.2277864282049003 2.5148589695054 0.7908135495167802 8.188743201496164" Properties=species:S:1:pos:R:3 unique_starting_index=44 config_type=initial n_minim_iter=18 stress="0.00022571729930093116 -3.132334107052478e-05 0.0005933399818356281 -3.132334107052478e-05 -0.0005667242866320837 -0.0001601450288354115 0.0005933399818356281 -0.0001601450288354115 -0.0010865322883946112" pbc="T T T"
Si       1.89795863       2.59748654       6.96103662
Si      -0.95734850       3.22867344       3.85057064
Si       1.64473021       4.40354590       5.30590745
Si       2.86591214       2.42625407       4.19774441
Si       5.20307952       4.74395670       8.57295237
Si       5.59867668       0.89196759       6.41718302
Si       3.90887125       2.74001734       2.00948408
Si       0.06728481       3.65278469       1.80664755
Si       3.55505048       2.81444376       8.63994069
Si       5.90846272      -0.06053371       3.32310556
Si       1.77653352       0.31953982       4.67347699
Si       5.57307721       1.51613965       8.79432304
12
Lattice="5.964962067909324 -0.4373952880711042 1.2673020130208716 -2.5822661752391154 5.01716564188373 0.2442033111205264 2.504102689235342 0.819464533657194 8.170324036331005" Properties=species:S:1:pos:R:3 unique_starting_index=44 config_type=initial n_minim_iter=19 stress="-0.0003074286378737839 0.000332320794350351 0.0008347101455083686 0.000332320794350351 -0.00047020693574123 0.0005524765695138116 0.0008347101455083686 0.0005524765695138116 -0.00224910265555695" pbc="T T T"
Si       1.91019575       2.62064151       6.95164710
Si      -0.97187078       3.25418489       3.85061257
Si       1.63758357       4.43128695       5.29844600
Si       2.84848330       2.45812095       4.17846826
Si       5.19943776       4.78151677       8.55760687
Si       5.58256982       0.91961985       6.38993833
Si       3.91235847       2.73595398       2.00202621
Si       0.06222771       3.66042338       1.81352479
Si       3.55829795       2.85084824       8.63866436
Si       5.91319616      -0.02960860       3.33482453
Si       1.78282636       0.34392041       4.65925168
Si       5.56978613       1.54104010       8.77026497
12
Lattice="5.97475479337519 -0.4491562706144335 1.2894562221919046 -2.589304328344195 5.025254885821316 0.21670085230281178 2.5281434614517386 0.7832745811089663 8.201809553970616" Properties=species:S:1:pos:R:3 unique_starting_index=44 config_type=initial n_minim_iter=20 stress="-6.557182507288057e-05 2.9511724817086002e-05 0.00013430215983267944 2.9511724817086002e-05 0.0005389187338062001 7.536022607889837e-05 0.00013430215983267944 7.536022607889837e-05 0.0009415643816879575" pbc="T T T"
Si       1.92358812       2.59703973       6.98690042
Si      -0.94689020       3.24070081       3.84700538
Si       1.66277587       4.39521623       5.31052211
Si       2.88200913       2.41049114       4.21452648
Si       5.22472353       4.74743250       8.59124468
Si       5.61975047       0.88394462       6.40361209
Si       3.91571172       2.75787780       2.03421064
Si       0.05577711       3.68763494       1.78689354
Si       3.58290364       2.82882020       8.67212700
Si       5.87982614      -0.07040166       3.30013129
Si       1.81288291       0.31406489       4.69831003
Si       5.57481452       1.50348781       8.79522878
12
Lattice="5.97287320326727 -0.44490855089433246 1.2688478041572133 -2.587354463659037 5.023551039684575 0.22267597248109836 2.5043399103926265 0.7831880752723932 8.177942514301296" Properties=species:S:1:pos:R:3 unique_starting_index=44 config_type=initial n_minim_iter=21 stress="-6.524953962760805e-05 -3.812960546237568e-06 -0.0004823609285221599 -3.812960546237568e-06 -0.00032098519569466705 -0.0002002208317604647 -0.0004823609285221599 -0.0002002208317604647 -0.0007132418172667961" pbc="T T T"
Si       1.90113687       2.59594024       6.96097466
Si      -0.96510851       3.24428557       3.83567000
Si       1.65273616       4.39805837       5.29493271
Si       2.86126975       2.42044371       4.17699092
Si       5.20770720       4.74877866       8.56120780
Si       5.59250703       0.89292774       6.37058941
Si       3.91397482       2.74772924       2.01446092
Si       0.05161848       3.68207406       1.77900805
Si       3.56711951       2.82405753       8.65607482
Si       5.88605712      -0.05240351       3.29524310
Si       1.79598792       0.31473641       4.68463215
Si       5.55925203       1.49391354       8.76317222
