10
Lattice="6.9605191660258265 -1.303292439695274e-17 -2.257368722675116e-17 1.3397048892936227e-17 7.154987840578614 4.012274124665296e-12 1.3397048892932539e-17 -3.5774939202927807 6.196401233707836" Properties=species:S:1:pos:R:3 unique_starting_index=146 config_type=initial n_minim_iter=1 energy=-1627.478996403091 free_energy=-1627.478996403091 pbc="T T T"
Si       1.31551894       4.98996716       4.97752131
Si       1.31551894       5.39317024      -0.61379775
Si       1.31551894       0.34934435       1.83267767
Si       2.77647370      -0.39631233       5.51283992
Si       2.77647370       1.39492166       3.78319782
Si       2.77647370      -0.99860934       3.09676473
Si       6.08076321      -0.06389001       2.70970300
Si       6.08076321      -1.19887729       4.89688010
Si       6.08076321       1.26276728       4.78621937
Si       0.96743975      -0.00000000       4.13093416
10
Lattice="6.909634231619774 -1.2877315148525813e-17 -2.230416410234774e-17 1.3323577903177641e-17 7.08261939638344 3.971555265479025e-12 1.3323577903174036e-17 -3.541309698195159 6.133728322602477" Properties=species:S:1:pos:R:3 unique_starting_index=146 config_type=initial n_minim_iter=2 stress="-0.005648121022671411 4.245293112399265e-17 8.106857035221465e-17 4.245293112399265e-17 0.0009151764837942658 7.312092625634332e-17 8.106857035221465e-17 7.312092625634332e-17 0.0009151764837939107" pbc="T T T"
Si       1.30593705       4.94102994       4.92776475
Si       1.30593705       5.33836418      -0.60921150
Si       1.30593705       0.34453496       1.81517507
Si       2.75574775      -0.39150793       5.45776516
Si       2.75574775       1.38100754       3.74390155
Si       2.75574775      -0.98949962       3.06578993
Si       6.03757225      -0.06269028       2.68400193
Si       6.03757225      -1.18555070       4.84601873
Si       6.03757225       1.24824098       4.73743598
Si       0.95775962      -0.00000000       4.08915222
10
Lattice="6.965588824883413 -1.2976900665608636e-17 -2.247665127763337e-17 1.3272900255343047e-17 7.052556447331556 3.955094527051537e-12 1.3272900255339496e-17 -3.5262782236692023 6.107693045010878" Properties=species:S:1:pos:R:3 unique_starting_index=146 config_type=initial n_minim_iter=3 stress="0.006843840362253426 -1.1869641362897502e-16 9.373721160090464e-17 -1.1869641362897502e-16 -0.0037420468894960885 -1.7198983139460993e-16 9.373721160090464e-17 -1.7198983139460993e-16 -0.003742046889497178" pbc="T T T"
Si       1.31729860       4.92108100       4.90971219
Si       1.31729860       5.31767320      -0.60894421
Si       1.31729860       0.34008046       1.80692507
Si       2.77822345      -0.38746941       5.43896598
Si       2.77822345       1.37773919       3.72376840
Si       2.77822345      -0.99026979       3.05265171
Si       6.08856556      -0.06092094       2.67643983
Si       6.08856556      -1.17795287       4.82223221
Si       6.08856556       1.23887380       4.71671405
Si       0.95637692      -0.00000000       4.07179536
10
Lattice="6.929915807140217 -1.2932489604193308e-17 -2.2399729062843885e-17 1.3291177005908873e-17 7.074493014269632 3.965277713221838e-12 1.3291177005905317e-17 -3.5372465071382493 6.126690669251065" Properties=species:S:1:pos:R:3 unique_starting_index=146 config_type=initial n_minim_iter=4 stress="-0.0009053578971141145 -1.5501136234419214e-16 1.17506005151078e-16 -1.5501136234419214e-16 0.0003445829404748828 -8.85958662891391e-17 1.17506005151078e-16 -8.85958662891391e-17 0.0003445829404743387" pbc="T T T"
Si       1.31226139       4.93853962       4.93286963
Si       1.31226139       5.33996711      -0.61664491
Si       1.31226139       0.33323279       1.81046595
Si       2.76279599      -0.38205215       5.46757149
Si       2.76279599       1.38883537       3.72377179
Si       2.76279599      -1.00678323       3.06203806
Si       6.06283206      -0.05694220       2.69303644
Si       6.06283206      -1.17653744       4.82948584
Si       6.06283206       1.23347964       4.73085906
Si       0.93360559      -0.00000000       4.08446045
10
Lattice="6.948445211941879 -1.2989449154036608e-17 -2.2498385897148822e-17 1.3307749220524756e-17 7.09556164123772 3.974805329341412e-12 1.3307749220521202e-17 -3.5477808206223025 6.144936635428284" Properties=species:S:1:pos:R:3 unique_starting_index=146 config_type=initial n_minim_iter=5 stress="-0.0017302561519285577 -1.7226731443380376e-16 1.29936254950685e-16 -1.7226731443380376e-16 -0.0017620842366149127 1.1321110619507972e-16 1.29936254950685e-16 1.1321110619507972e-16 -0.0017620842366149595" pbc="T T T"
Si       1.33239232       4.98363427       5.00494674
Si       1.33239232       5.39037470      -0.67349062
Si       1.33239232       0.26933348       1.81348052
Si       2.73641801      -0.31571202       5.54348035
Si       2.73641801       1.41087000       3.64661108
Si       2.73641801      -1.09515799       3.09978184
Si       6.08309316      -0.02497462       2.73003816
Si       6.08309316      -1.17101112       4.80154621
Si       6.08309316       1.19598573       4.75828891
Si       0.97538064      -0.00000000       4.09662442
10
Lattice="6.991394469796314 -1.3152559915266079e-17 -2.2780902022859874e-17 1.340029107965495e-17 7.190258992310143 4.028261266481364e-12 1.3400291079651322e-17 -3.5951294961585596 6.226946947128068" Properties=species:S:1:pos:R:3 unique_starting_index=146 config_type=initial n_minim_iter=6 stress="0.0059047459210028455 -1.770145050143181e-16 1.4738278006561233e-16 -1.770145050143181e-16 0.00649765191226684 -9.786310806067549e-17 1.4738278006561233e-16 -9.786310806067549e-17 0.006497651912266318" pbc="T T T"
Si       1.35628866       5.11020254       5.13316970
Si       1.35628866       5.48548358      -0.76520312
Si       1.35628866       0.18970236       1.85898038
Si       2.72866225      -0.21668617       5.64665529
Si       2.72866225       1.40336052       3.59127503
Si       2.72866225      -1.18667435       3.21596357
Si       6.12560753       0.01581022       2.77394892
Si       6.12560753      -1.20072438       4.82628044
Si       6.12560753       1.18491415       4.85366454
Si       0.99369553      -0.00000000       4.15129797
10
Lattice="7.007863301707633 -1.3250373972779378e-17 -2.2950320940167597e-17 1.3469730530157462e-17 7.263975157424864 4.072835372511495e-12 1.346973053015377e-17 -3.6319875787159575 6.290787018786959" Properties=species:S:1:pos:R:3 unique_starting_index=146 config_type=initial n_minim_iter=7 stress="0.0059587274519880004 -3.995530350243572e-16 3.216337468686269e-16 -3.995530350243572e-16 0.010944315901706775 -2.3562675729350667e-16 3.216337468686269e-16 -2.3562675729350667e-16 0.010944315901706398" pbc="T T T"
Si       1.37360856       5.23212602       5.24830078
Si       1.37360856       5.56108637      -0.86451742
Si       1.37360856       0.10275034       1.90700366
Si       2.72199049      -0.09786345       5.70056524
Si       2.72199049       1.35377846       3.52525663
Si       2.72199049      -1.25591501       3.35575216
Si       6.14510561       0.05865821       2.79580570
Si       6.14510561      -1.24007793       4.84208467
Si       6.14510561       1.18141971       4.94368367
Si       0.97775315      -0.00000000       4.19385801
10
Lattice="6.9968213731066555 -1.3209283292831783e-17 -2.2879149794780717e-17 1.3441721220060457e-17 7.2378490380569 4.059351559438661e-12 1.3441721220056788e-17 -3.6189245190319643 6.2681611357120035" Properties=species:S:1:pos:R:3 unique_starting_index=146 config_type=initial n_minim_iter=8 stress="0.0018572215093447563 -3.1050295570190943e-16 3.3237336347266944e-16 -3.1050295570190943e-16 0.0031164135491486187 -4.421967473215289e-16 3.3237336347266944e-16 -4.421967473215289e-16 0.003116413549147925" pbc="T T T"
Si       1.37093906       5.22144734       5.23827303
Si       1.37093906       5.54467836      -0.87288143
Si       1.37093906       0.09064784       1.90276953
Si       2.72706540      -0.07301901       5.64926288
Si       2.72706540       1.30999014       3.50676601
Si       2.72706540      -1.23697115       3.38029339
Si       6.13382582       0.06258893       2.77382076
Si       6.13382582      -1.24801975       4.82704716
Si       6.13382582       1.18543081       4.93545436
Si       0.95442848      -0.00000000       4.17877409
10
Lattice="6.979575476817319 -1.3163349912952292e-17 -2.2799590847065974e-17 1.3422551107635298e-17 7.220122337795725 4.047185649555884e-12 1.342255110763166e-17 -3.610061168901366 6.2528093629605594" Properties=species:S:1:pos:R:3 unique_starting_index=146 config_type=initial n_minim_iter=9 stress="0.00031053055795761045 -3.218622397595735e-16 4.51413112536364e-16 -3.218622397595735e-16 -0.001199137312970724 -2.4119435980546343e-16 4.51413112536364e-16 -2.4119435980546343e-16 -0.0011991373129716938" pbc="T T T"
Si       1.36935661       5.21207239       5.24792673
Si       1.36935661       5.54886283      -0.88494109
Si       1.36935661       0.06924828       1.88982373
Si       2.72789636      -0.04186543       5.61621551
Si       2.72789636       1.27465684       3.48095814
Si       2.72789636      -1.23279142       3.40844508
Si       6.11459396       0.06944076       2.76574323
Si       6.11459396      -1.24957766       4.80980028
Si       6.11459396       1.18013689       4.93007522
Si       0.93636721      -0.00000000       4.16853958
10
Lattice="6.9619785826632254 -1.3130151517406739e-17 -2.274208953925124e-17 1.3417647206400897e-17 7.21732144725454 4.043600387521502e-12 1.341764720639727e-17 -3.6086607236307713 6.250383720598678" Properties=species:S:1:pos:R:3 unique_starting_index=146 config_type=initial n_minim_iter=10 stress="-0.0005877005979927866 -2.722646666360928e-16 4.2796678235070814e-16 -2.722646666360928e-16 -0.0012348074507005544 -2.463856593051516e-16 4.2796678235070814e-16 -2.463856593051516e-16 -0.0012348074507013463" pbc="T T T"
Si       1.36612119       5.21086019       5.26368468
Si       1.36612119       5.56171528      -0.89419592
Si       1.36612119       0.05340670       1.88089496
Si       2.72600490      -0.02379023       5.60948686
Si       2.72600490       1.26119251       3.46624324
Si       2.72600490      -1.23740228       3.42503735
Si       6.09393041       0.07337035       2.76840744
Si       6.09393041      -1.24783473       4.80263942
Si       6.09393041       1.17446437       4.92972059
Si       0.93413942      -0.00000000       4.16692248
10
Lattice="6.946625988626164 -1.3104335216355305e-17 -2.2697374394166607e-17 1.3414670009845968e-17 7.217290969426273 4.042851283491315e-12 1.3414670009842346e-17 -3.6086454847166376 6.250357326025147" Properties=species:S:1:pos:R:3 unique_starting_index=146 config_type=initial n_minim_iter=11 stress="-0.0004260063627120074 -2.96738896204899e-16 3.928729099257832e-16 -2.96738896204899e-16 -0.0003995973758305089 -3.075516200503624e-16 3.928729099257832e-16 -3.075516200503624e-16 -0.0003995973758316426" pbc="T T T"
Si       1.36050564       5.21223424       5.27847600
Si       1.36050564       5.57382266      -0.90280794
Si       1.36050564       0.03987954       1.87468927
Si       2.72796275      -0.01185402       5.60851146
Si       2.72796275       1.25439492       3.45636748
Si       2.72796275      -1.24254091       3.43583572
Si       6.07365452       0.07443577       2.77299919
Si       6.07365452      -1.24437563       4.79939447
Si       6.07365452       1.16993986       4.92832100
Si       0.93649318      -0.00000000       4.16690488
10
Lattice="6.935400874378163 -1.3087643262383255e-17 -2.2668463081809403e-17 1.3411752815273489e-17 7.21806664872383 4.0454693863906e-12 1.3411752815269855e-17 -3.609033324365419 6.251029084002021" Properties=species:S:1:pos:R:3 unique_starting_index=146 config_type=initial n_minim_iter=12 stress="-3.3241575125498226e-05 -2.568871076967544e-16 2.9777617343631545e-16 -2.568871076967544e-16 0.00024277241542367307 -2.9178500507974947e-16 2.9777617343631545e-16 -2.9178500507974947e-16 0.00024277241542292375" pbc="T T T"
Si       1.35388304       5.21590609       5.28776802
Si       1.35388304       5.58042171      -0.90996211
Si       1.35388304       0.03077216       1.87322318
Si       2.73270222      -0.00657479       5.61015141
Si       2.73270222       1.25278771       3.45164731
Si       2.73270222      -1.24621293       3.44025945
Si       6.05770223       0.07258866       2.77660492
Si       6.05770223      -1.24071726       4.79986300
Si       6.05770223       1.16812859       4.92559025
Si       0.93922296      -0.00000000       4.16735272
10
Lattice="6.927988776608345 -1.307817450429897e-17 -2.2652062711722822e-17 1.3407849644999147e-17 7.218374102670044 4.0441123963989665e-12 1.340784964499552e-17 -3.6091870513385254 6.25129534692994" Properties=species:S:1:pos:R:3 unique_starting_index=146 config_type=initial n_minim_iter=13 stress="0.00012779549585419095 -2.735650394622832e-16 1.396346988443995e-16 -2.735650394622832e-16 0.0003435178590710321 -1.160584420205582e-16 1.396346988443995e-16 -1.160584420205582e-16 0.0003435178590713503" pbc="T T T"
Si       1.34758617       5.22005542       5.29120697
Si       1.34758617       5.58147898      -0.91500874
Si       1.34758617       0.02602674       1.87509713
Si       2.73824223      -0.00685568       5.61206245
Si       2.73824223       1.25442943       3.45120131
Si       2.73824223      -1.24757376       3.43932693
Si       6.04669626       0.06821790       2.77820639
Si       6.04669626      -1.23729869       4.80311372
Si       6.04669626       1.16908079       4.92127059
Si       0.94098305      -0.00000000       4.16753023
10
Lattice="6.9273455510701165 -1.3081419600256343e-17 -2.2657683382796434e-17 1.3403654421470164e-17 7.21857286725819 4.043754056442895e-12 1.3403654421466538e-17 -3.6092864336325987 6.2514674821126475" Properties=species:S:1:pos:R:3 unique_starting_index=146 config_type=initial n_minim_iter=14 stress="7.694187760372192e-05 -2.4825994109970763e-16 7.351020250676889e-17 -2.4825994109970763e-16 0.00017961957044570765 -2.997981011194567e-16 7.351020250676889e-17 -2.997981011194567e-16 0.00017961957044627588" pbc="T T T"
Si       1.34591020       5.22244453       5.29083064
Si       1.34591020       5.58005791      -0.91671747
Si       1.34591020       0.02535685       1.87735432
Si       2.74024295      -0.00886127       5.61298201
Si       2.74024295       1.25612920       3.45265056
Si       2.74024295      -1.24726794       3.43730240
Si       6.04544967       0.06489865       2.77783900
Si       6.04544967      -1.23605663       4.80634410
Si       6.04544967       1.17115797       4.91875187
Si       0.94083894      -0.00000000       4.16764499
10
Lattice="6.928629190818529 -1.3090575163319744e-17 -2.2673541283194155e-17 1.3396086445235051e-17 7.218245147425658 4.0445543881358126e-12 1.3396086445231429e-17 -3.609122573716334 6.251183668412349" Properties=species:S:1:pos:R:3 unique_starting_index=146 config_type=initial n_minim_iter=15 stress="-0.0001311983954863806 -2.1320217134310033e-16 -1.283962691255294e-17 -2.1320217134310033e-16 -0.00030327348468145335 -3.22380615139491e-16 -1.283962691255294e-17 -3.22380615139491e-16 -0.000303273484681067" pbc="T T T"
Si       1.34530732       5.22606677       5.29033732
Si       1.34530732       5.57765570      -0.91989157
Si       1.34530732       0.02364525       1.88073793
Si       2.74180785      -0.01280509       5.61323472
Si       2.74180785       1.25848383       3.45565584
Si       2.74180785      -1.24567875       3.43347678
Si       6.04686410       0.05635740       2.77591811
Si       6.04686410      -1.23328568       4.81441767
Si       6.04686410       1.17692826       4.91203156
Si       0.93951609      -0.00000000       4.16745578
10
Lattice="6.931069444672264 -1.3105252479875838e-17 -2.2698963141188113e-17 1.3386657728815863e-17 7.218769000370597 4.0458721447061516e-12 1.3386657728812245e-17 -3.609384500188805 6.251637338370514" Properties=species:S:1:pos:R:3 unique_starting_index=146 config_type=initial n_minim_iter=16 stress="-0.0002546712109440908 -1.813180930485892e-16 -1.3371197233136008e-17 -1.813180930485892e-16 -4.9927714838581725e-05 -2.896727627879932e-16 -1.3371197233136008e-17 -2.896727627879932e-16 -4.992771483817283e-05" pbc="T T T"
Si       1.35234028       5.23697098       5.31237999
Si       1.35234028       5.59155503      -0.93990257
Si       1.35234028      -0.00037252       1.87915992
Si       2.73563429      -0.00786979       5.61221930
Si       2.73563429       1.25487487       3.45234313
Si       2.73563429      -1.24700509       3.43871226
Si       6.05085448       0.02292747       2.77319493
Si       6.05085448      -1.21919098       4.84518410
Si       6.05085448       1.19626350       4.88489565
Si       0.93600519      -0.00000000       4.16775823
10
Lattice="6.928786278105088 -1.310326244574622e-17 -2.269551630096682e-17 1.3380499375278028e-17 7.216732743584734 4.045923388014945e-12 1.3380499375274412e-17 -3.6083663717958734 6.249873888265329" Properties=species:S:1:pos:R:3 unique_starting_index=146 config_type=initial n_minim_iter=17 stress="-0.00020982316274408417 -2.8463761502086193e-16 9.83670029210323e-17 -2.8463761502086193e-16 -0.00027222150389855944 -3.204088219828766e-16 9.83670029210323e-17 -3.204088219828766e-16 -0.00027222150389805925" pbc="T T T"
Si       1.35039820       5.23491425       5.31208958
Si       1.35039820       5.59131377      -0.93973964
Si       1.35039820      -0.00112891       1.87752394
Si       2.73699030      -0.00960039       5.61082585
Si       2.73699030       1.25555154       3.45277514
Si       2.73699030      -1.24595116       3.43614678
Si       6.04745748       0.01746433       2.77311580
Si       6.04745748      -1.21550981       4.84819143
Si       6.04745748       1.19804547       4.87844054
Si       0.93762654      -0.00000000       4.16658259
10
Lattice="6.928049867962785 -1.3106925118836963e-17 -2.27018602368515e-17 1.337731043354843e-17 7.217786741347016 4.045933255938433e-12 1.3377310433544823e-17 -3.6088933706770137 6.2507866771029965" Properties=species:S:1:pos:R:3 unique_starting_index=146 config_type=initial n_minim_iter=18 stress="1.682178271682908e-06 -2.469790161103443e-16 6.048216524134943e-17 -2.469790161103443e-16 4.443545991039038e-05 -2.1851249509142417e-16 6.048216524134943e-17 -2.1851249509142417e-16 4.443545991100415e-05" pbc="T T T"
Si       1.34915060       5.23657233       5.31499306
Si       1.34915060       5.59352621      -0.94171452
Si       1.34915060      -0.00341844       1.87750814
Si       2.73803163      -0.00764964       5.61235112
Si       2.73803163       1.25537009       3.45123590
Si       2.73803163      -1.24772045       3.43798634
Si       6.04613644       0.01306757       2.77448503
Si       6.04613644      -1.21265264       4.85222731
Si       6.04613644       1.19958506       4.87486102
Si       0.93887737      -0.00000000       4.16719112
10
Lattice="6.9295533086631815 -1.311750454955965e-17 -2.272018434837837e-17 1.3371099282251639e-17 7.218735884142635 4.0481516840976806e-12 1.337109928224803e-17 -3.6093679420748264 6.251608658875819" Properties=species:S:1:pos:R:3 unique_starting_index=146 config_type=initial n_minim_iter=19 stress="0.0002630878267659039 -1.5263614191622292e-16 1.9723545071860814e-16 -1.5263614191622292e-16 0.0002164005815862291 -1.3554528738635366e-16 1.9723545071860814e-16 -1.3554528738635366e-16 0.0002164005815858201" pbc="T T T"
Si       1.34708992       5.23694866       5.31629258
Si       1.34708992       5.59493803      -0.94186821
Si       1.34708992      -0.00378287       1.87718429
Si       2.73982171      -0.00392044       5.61343195
Si       2.73982171       1.25396694       3.44828788
Si       2.73982171      -1.25004651       3.44149749
Si       6.04782452       0.00067362       2.77627122
Si       6.04782452      -1.20538336       4.86288968
Si       6.04782452       1.20470973       4.86405643
Si       0.94142568      -0.00000000       4.16773911
10
Lattice="6.932682974028169 -1.3131112994587671e-17 -2.274375486657894e-17 1.3365005860320675e-17 7.219750449717679 4.050313160295136e-12 1.3365005860317074e-17 -3.6098752248623507 6.252487298437611" Properties=species:S:1:pos:R:3 unique_starting_index=146 config_type=initial n_minim_iter=20 stress="-1.372733618404971e-06 -6.618479641084525e-17 2.4333721755776344e-16 -6.618479641084525e-17 8.661390344397758e-05 3.8498321379599915e-17 2.4333721755776344e-16 3.8498321379599915e-17 8.661390344381865e-05" pbc="T T T"
Si       1.34850330       5.23705063       5.31424657
Si       1.34850330       5.59362244      -0.94005487
Si       1.34850330      -0.00104740       1.87829560
Si       2.73859851       0.00003907       5.61355962
Si       2.73859851       1.25159047       3.44567365
Si       2.73859851      -1.25162955       3.44574133
Si       6.05270135       0.00109809       2.77618729
Si       6.05270135      -1.20617556       4.86344268
Si       6.05270135       1.20507746       4.86534463
Si       0.94038163      -0.00000000       4.16832487
10
Lattice="6.932554159747056 -1.3134423443093953e-17 -2.2749488731587656e-17 1.3360234386588272e-17 7.219155316029484 4.048325228542873e-12 1.3360234386584687e-17 -3.609577658018251 6.251971897544987" Properties=species:S:1:pos:R:3 unique_starting_index=146 config_type=initial n_minim_iter=21 stress="2.881696129614611e-06 -1.6982785929993708e-16 2.27930365354499e-16 -1.6982785929993708e-16 -1.2801984108022313e-05 -1.8125154381572188e-16 2.27930365354499e-16 -1.8125154381572188e-16 -1.2801984108181274e-05" pbc="T T T"
Si       1.34857961       5.23635013       5.31348171
Si       1.34857961       5.59301273      -0.93958119
Si       1.34857961      -0.00062990       1.87807138
Si       2.73860659      -0.00033293       5.61294609
Si       2.73860659       1.25154271       3.44578717
Si       2.73860659      -1.25120979       3.44521053
Si       6.05244939       0.00055321       2.77572573
Si       6.05244939      -1.20600527       4.86362993
Si       6.05244939       1.20545205       4.86458813
Si       0.94030162      -0.00000000       4.16798127
