10
Lattice="6.939123218852878 -3.478371443542146e-17 -6.024716067805716e-17 2.963097950779367e-17 5.911186347893122 3.462612690052942e-12 2.96309795076894e-17 -2.955593173949559 5.11923754377747" Properties=species:S:1:pos:R:3 unique_starting_index=146 config_type=initial n_minim_iter=1 energy=-1626.6838445201022 free_energy=-1626.6838445201022 pbc="T T T"
Si       1.23932249       3.51168685       3.48763075
Si       1.23932249       4.22012657       0.33421215
Si       1.23932249       1.13496609       1.29739465
Si       2.87295321      -0.63558676       4.66653592
Si       2.87295321       1.40353886       3.33640386
Si       2.87295321      -0.76795210       2.23553531
Si       6.02447123       0.57744420       2.17115690
Si       6.02447123      -1.36403825       3.53357775
Si       6.02447123       0.78659404       4.53374044
Si       0.97868258      -0.00000000       3.41282503
10
Lattice="6.927017182548217 -3.4723501385362656e-17 -6.014286861607676e-17 2.963116193093711e-17 5.911302785556264 3.4635365263482467e-12 2.963116193083283e-17 -2.95565139278113 5.119338381751708" Properties=species:S:1:pos:R:3 unique_starting_index=146 config_type=initial n_minim_iter=2 stress="-0.0012090430969850388 -7.283930945298963e-17 -1.378602713030182e-17 -7.283930945298963e-17 -0.00091286606995525 5.335332129220254e-17 -1.378602713030182e-17 5.335332129220254e-17 -0.0009128660699551822" pbc="T T T"
Si       1.23716147       3.51236253       3.48781130
Si       1.23716147       4.22000331       0.33363756
Si       1.23716147       1.13458833       1.29788953
Si       2.86758788      -0.63568106       4.66664556
Si       2.86758788       1.40362274       3.33653155
Si       2.86758788      -0.76794169       2.23549966
Si       6.01423744       0.57753400       2.17111802
Si       6.01423744      -1.36417504       3.53362025
Si       6.01423744       0.78664103       4.53393849
Si       0.97720165      -0.00000000       3.41289225
10
Lattice="6.923523666845148 -3.4768438029579976e-17 -6.022070116698307e-17 2.9660660379945175e-17 5.927800099540619 3.475412488542677e-12 2.966066037984059e-17 -2.963900049773317 5.1336254747563626" Properties=species:S:1:pos:R:3 unique_starting_index=146 config_type=initial n_minim_iter=3 stress="-0.0011705312641823152 -8.999199293481002e-17 -2.0402065977916666e-17 -8.999199293481002e-17 0.001974761235758029 1.8465718426639253e-16 -2.0402065977916666e-17 1.8465718426639253e-16 0.0019747612357579616" pbc="T T T"
Si       1.23674303       3.52586897       3.49830061
Si       1.23674303       4.23058276       0.33098307
Si       1.23674303       1.13524841       1.30434179
Si       2.86426856      -0.63806343       4.67993205
Si       2.86426856       1.40807171       3.34623858
Si       2.86426856      -0.77000829       2.24108031
Si       6.01251993       0.57960727       2.17674914
Si       6.01251993      -1.36858363       3.54329629
Si       6.01251993       0.78897636       4.54720552
Si       0.97776468      -0.00000000       3.42241698
10
Lattice="6.938379603956068 -3.486971995619474e-17 -6.039612660976827e-17 2.9672510727311526e-17 5.934721060573197 3.482991093351868e-12 2.9672510727206786e-17 -2.9673605302896124 5.139619202829174" Properties=species:S:1:pos:R:3 unique_starting_index=146 config_type=initial n_minim_iter=4 stress="-0.0002789240385786078 -1.2670483751999002e-16 -4.42782363346256e-17 -1.2670483751999002e-16 0.00024279948893842892 3.465918072694341e-16 -4.42782363346256e-17 3.465918072694341e-16 0.0002427994889386975" pbc="T T T"
Si       1.24063069       3.54319082       3.50511673
Si       1.24063069       4.23128524       0.31856758
Si       1.24063069       1.12760552       1.31593490
Si       2.86411513      -0.64053851       4.68563072
Si       2.86411513       1.41078396       3.35152646
Si       2.86411513      -0.77024546       2.24208122
Si       6.02965284       0.58113494       2.17919846
Si       6.02965284      -1.37068678       3.54674235
Si       6.02965284       0.78955183       4.55329760
Si       0.98236364      -0.00000000       3.42641280
10
Lattice="6.952876743380258 -3.5051892269806846e-17 -6.071165831267706e-17 2.9721456605520396e-17 5.9630933694665265 3.5079749811229025e-12 2.972145660541512e-17 -2.981546684736299 5.164190343094805" Properties=species:S:1:pos:R:3 unique_starting_index=146 config_type=initial n_minim_iter=5 stress="0.0006548144747554824 -8.664252814195545e-17 -1.638190605929284e-17 -8.664252814195545e-17 -0.0012394248754813559 2.3000444680562356e-16 -1.638190605929284e-17 2.3000444680562356e-16 -0.0012394248754813559" pbc="T T T"
Si       1.24841606       3.58510001       3.52806917
Si       1.24841606       4.24439420       0.29536808
Si       1.24841606       1.11514584       1.34075310
Si       2.85933989      -0.64646504       4.70659573
Si       2.85933989       1.41771730       3.37074762
Si       2.85933989      -0.77125227       2.25103734
Si       6.04941715       0.58275744       2.19504892
Si       6.04941715      -1.37195728       3.56198314
Si       6.04941715       0.78919984       4.57134863
Si       0.97961776      -0.00000000       3.44279356
10
Lattice="6.941391691795996 -3.5322966339318556e-17 -6.118117237368664e-17 2.9851399821472914e-17 6.044844628486776 3.5710748000426063e-12 2.985139982136634e-17 -3.022422314246479 5.234989010197671" Properties=species:S:1:pos:R:3 unique_starting_index=146 config_type=initial n_minim_iter=6 stress="0.0011617292680719516 -2.0691839350634604e-18 4.10030495758772e-17 -2.0691839350634604e-18 0.0007358638381488852 2.739204686962271e-17 4.10030495758772e-17 2.739204686962271e-17 0.0007358638381492733" pbc="T T T"
Si       1.26471422       3.67161736       3.59000044
Si       1.26471422       4.29564521       0.26027488
Si       1.26471422       1.10000436       1.38471369
Si       2.83723001      -0.65542660       4.75735378
Si       2.83723001       1.42528021       3.42392821
Si       2.83723001      -0.76985361       2.28869604
Si       6.03952188       0.58198774       2.24646241
Si       6.03952188      -1.36792267       3.60774163
Si       6.03952188       0.78593492       4.61577398
Si       0.97478638      -0.00000000       3.48999267
10
Lattice="6.930375526323854 -3.5563605062873345e-17 -6.159797086915228e-17 2.9926726817133494e-17 6.1100765747284225 3.6240435395263623e-12 2.99267268170263e-17 -3.0550382873673483 5.291481532781211" Properties=species:S:1:pos:R:3 unique_starting_index=146 config_type=initial n_minim_iter=7 stress="0.00022986830952806238 -1.3449310349113088e-16 -1.1328034622549939e-16 -1.3449310349113088e-16 0.0001685125939743274 1.9869677526320254e-17 -1.1328034622549939e-16 1.9869677526320254e-17 0.0001685125939749616" pbc="T T T"
Si       1.27937928       3.74644563       3.64186549
Si       1.27937928       4.33576350       0.22603170
Si       1.27937928       1.08290573       1.42358435
Si       2.81743745      -0.66240793       4.79626000
Si       2.81743745       1.42984868       3.46701362
Si       2.81743745      -0.76744076       2.31968944
Si       6.02921726       0.58069628       2.28777528
Si       6.02921726      -1.36411492       3.64469616
Si       6.02921726       0.78341864       4.65049163
Si       0.97125146      -0.00000000       3.52765436
10
Lattice="6.860876105044808 -3.834364332477806e-17 -6.64131383857361e-17 2.901686832582429e-17 6.455502941912322 3.906267112662563e-12 2.9016868325734826e-17 -3.2277514709595447 5.590629541899298" Properties=species:S:1:pos:R:3 unique_starting_index=146 config_type=initial n_minim_iter=8 stress="-0.0074880745040631245 -2.86259086087847e-17 3.7550088961442885e-18 -2.86259086087847e-17 -0.015469562276365327 -3.100694825695536e-17 3.7550088961442885e-18 -3.100694825695536e-17 -0.015469562276364984" pbc="T T T"
Si       1.36666985       4.17371511       3.92963555
Si       1.36666985       4.54405813       0.01126846
Si       1.36666985       0.96548117       1.64972554
Si       2.71662281      -0.69733587       5.01079699
Si       2.71662281       1.46039395       3.68914162
Si       2.71662281      -0.76305809       2.48132047
Si       5.94853343       0.57370835       2.47294120
Si       5.94853343      -1.37297575       3.85731293
Si       5.94853343       0.79926739       4.85100495
Si       0.93949654      -0.00000000       3.72708636
10
Lattice="6.858442597221797 -3.9365346856870675e-17 -6.81827808135817e-17 2.8207418164497344e-17 6.469504861205638 3.916238792240519e-12 2.820741816441936e-17 -3.234752430606213 5.6027555597090455" Properties=species:S:1:pos:R:3 unique_starting_index=146 config_type=initial n_minim_iter=9 stress="-0.008051812349306773 -4.73807791543928e-17 5.233438186996779e-18 -4.73807791543928e-17 -0.015850112236902213 -1.025397805587855e-16 5.233438186996779e-18 -1.025397805587855e-16 -0.015850112236901526" pbc="T T T"
Si       1.36987259       4.19094767       3.94120333
Si       1.36987259       4.55246080       0.00268675
Si       1.36987259       0.96084882       1.65886549
Si       2.71289890      -0.69874934       5.01965575
Si       2.71289890       1.46177163       3.69806236
Si       2.71289890      -0.76302230       2.48779301
Si       5.94580335       0.57346550       2.48041143
Si       5.94580335      -1.37338587       3.86591415
Si       5.94580335       0.79992036       4.85918554
Si       0.93824238      -0.00000000       3.73517037
10
Lattice="6.840063564222639 -4.1083152692626514e-17 -7.115810779863334e-17 2.747193137099279e-17 6.6163994490914355 3.8513218484484835e-12 2.7471931370925687e-17 -3.308199724549055 5.729970004496625" Properties=species:S:1:pos:R:3 unique_starting_index=146 config_type=initial n_minim_iter=10 stress="0.0018606100174624067 -4.1608919442707665e-18 -3.2859005193340847e-17 -4.1608919442707665e-18 0.004360330809807527 -3.0396252188062256e-16 -3.2859005193340847e-17 -3.0396252188062256e-16 0.004360330809808404" pbc="T T T"
Si       1.38560471       4.33224711       4.04591335
Si       1.38560471       4.64593991      -0.04482272
Si       1.38560471       0.94641215       1.72887938
Si       2.70051643      -0.70392901       5.14509613
Si       2.70051643       1.49954873       3.76704235
Si       2.70051643      -0.79561973       2.54780153
Si       5.92421395       0.57755892       2.52428157
Si       5.92421395      -1.41088722       3.96764852
Si       5.92421395       0.83332829       4.96800992
Si       0.90982461      -0.00000000       3.81998000
10
Lattice="6.873308935663549 -4.2768417688662203e-17 -7.407707239596961e-17 2.6324569668174604e-17 6.6458075240306025 3.8342293948267745e-12 2.632456966811957e-17 -3.3229037620186226 5.755438144470347" Properties=species:S:1:pos:R:3 unique_starting_index=146 config_type=initial n_minim_iter=11 stress="-0.0022532210538644677 6.68879195096194e-17 8.591108927841023e-17 6.68879195096194e-17 -0.0058846986419552475 2.7010525649859625e-17 8.591108927841023e-17 2.7010525649859625e-17 -0.005884698641954653" pbc="T T T"
Si       1.38938481       4.38789654       4.06077406
Si       1.38938481       4.64568898      -0.07497876
Si       1.38938481       0.93512575       1.76964285
Si       2.69667989      -0.69312981       5.17969497
Si       2.69667989       1.50940856       3.76585869
Si       2.69667989      -0.81627876       2.56532264
Si       5.97451611       0.57278473       2.55093404
Si       5.97451611      -1.40012245       3.98392499
Si       5.97451611       0.82733771       4.97601725
Si       0.90947193      -0.00000000       3.83695876
10
Lattice="6.8807681979345 -4.4674404773173415e-17 -7.737833886489766e-17 2.5159092819545097e-17 6.720708689294776 3.796789000003607e-12 2.5159092819500726e-17 -3.360354344650676 5.820304456362195" Properties=species:S:1:pos:R:3 unique_starting_index=146 config_type=initial n_minim_iter=12 stress="-0.001910636502566596 1.0019619231709838e-16 2.236593506875047e-16 1.0019619231709838e-16 2.1784979581257266e-05 3.093410810788276e-16 2.236593506875047e-16 3.093410810788276e-16 2.1784979581653254e-05" pbc="T T T"
Si       1.39152351       4.44685644       4.09481626
Si       1.39152351       4.68314103      -0.07819432
Si       1.39152351       0.95106556       1.80368252
Si       2.68283776      -0.65859302       5.24910352
Si       2.68283776       1.51479916       3.76611098
Si       2.68283776      -0.85620615       2.62539441
Si       5.99076657       0.56208929       2.59703019
Si       5.99076657      -1.39230487       4.03500576
Si       5.99076657       0.83021558       5.00857297
Si       0.92957259      -0.00000000       3.88020297
10
Lattice="6.886874915500782 -4.5904971548145834e-17 -7.950974304124773e-17 2.437673588081555e-17 6.7621908794716425 3.807534816028193e-12 2.4376735880777062e-17 -3.381095439739119 5.856229086859975" Properties=species:S:1:pos:R:3 unique_starting_index=146 config_type=initial n_minim_iter=13 stress="-0.00028279279814498936 8.445692052435679e-17 2.227759590634939e-16 8.445692052435679e-17 0.0003920271700661876 1.2827395707068626e-16 2.227759590634939e-16 1.2827395707068626e-16 0.0003920271700669171" pbc="T T T"
Si       1.40381044       4.49522399       4.12873825
Si       1.40381044       4.70907565      -0.10111821
Si       1.40381044       0.93898667       1.82860905
Si       2.67669297      -0.65781308       5.27992784
Si       2.67669297       1.52036274       3.78594800
Si       2.67669297      -0.86254967       2.64658233
Si       5.99423186       0.56007943       2.61502937
Si       5.99423186      -1.39645330       4.06367138
Si       5.99423186       0.83637385       5.03375742
Si       0.92837386      -0.00000000       3.90415273
10
Lattice="6.890046064296416 -4.676595239908998e-17 -8.100100561942121e-17 2.3538864344100824e-17 6.743127214508843 3.8065636749074596e-12 2.35388643440676e-17 -3.3715636072577193 5.839719468712955" Properties=species:S:1:pos:R:3 unique_starting_index=146 config_type=initial n_minim_iter=14 stress="0.0006832358763188067 1.5383332090231513e-17 1.742549180329051e-16 1.5383332090231513e-17 0.0007094364302326898 -5.804234776189596e-17 1.742549180329051e-16 -5.804234776189596e-17 0.0007094364302331874" pbc="T T T"
Si       1.40330343       4.47287108       4.11705518
Si       1.40330343       4.70060244      -0.09242811
Si       1.40330343       0.94121729       1.81509239
Si       2.67971036      -0.65827681       5.26574820
Si       2.67971036       1.51784651       3.77692981
Si       2.67971036      -0.85956970       2.63676093
Si       5.99644710       0.55948610       2.60504726
Si       5.99644710      -1.39526956       4.05266666
Si       5.99644710       0.83578345       5.02172502
Si       0.92854161      -0.00000000       3.89314631
10
Lattice="6.897668329265444 -4.809356101940102e-17 -8.330049120235929e-17 2.2286938261565302e-17 6.719632727545073 3.801226974052579e-12 2.2286938261538884e-17 -3.3598163637758294 5.81937264615345" Properties=species:S:1:pos:R:3 unique_starting_index=146 config_type=initial n_minim_iter=15 stress="0.0005452380428860017 1.0317269028489267e-16 2.5414362481597173e-16 1.0317269028489267e-16 0.0001692463830681328 -6.87115839565654e-17 2.5414362481597173e-16 -6.87115839565654e-17 0.0001692463830684226" pbc="T T T"
Si       1.40561849       4.44674639       4.10675874
Si       1.40561849       4.69300056      -0.08500206
Si       1.40561849       0.93970213       1.79761597
Si       2.67877233      -0.65445193       5.25339260
Si       2.67877233       1.51698105       3.75944834
Si       2.67877233      -0.86252912       2.62590435
Si       6.00660387       0.55453981       2.59093903
Si       6.00660387      -1.39326726       4.04365757
Si       6.00660387       0.83872744       5.00414870
Si       0.92841929      -0.00000000       3.87958176
10
Lattice="6.901651017161399 -4.954470669947938e-17 -8.581394924943274e-17 2.1162889709678654e-17 6.735426336496028 3.8027445443155924e-12 2.11628897096574e-17 -3.367713168251306 5.833050312722412" Properties=species:S:1:pos:R:3 unique_starting_index=146 config_type=initial n_minim_iter=16 stress="-9.685477986708517e-05 1.6539051310369629e-16 3.844696068188044e-16 1.6539051310369629e-16 0.0001369762719923564 3.063118414250406e-16 3.844696068188044e-16 3.063118414250406e-16 0.0001369762719923564" pbc="T T T"
Si       1.40933698       4.46607504       4.12387554
Si       1.40933698       4.70605663      -0.09662190
Si       1.40933698       0.93100783       1.80579667
Si       2.67382399      -0.65039041       5.26884388
Si       2.67382399       1.52043468       3.76188299
Si       2.67382399      -0.87004428       2.63537375
Si       6.01316098       0.54959226       2.59372477
Si       6.01316098      -1.39627777       4.06022707
Si       6.01316098       0.84668549       5.01214879
Si       0.93045311      -0.00000000       3.88870021
10
Lattice="6.914010716252071 -5.1212704201684773e-17 -8.870300567014545e-17 1.965788519352255e-17 6.717341617140383 3.7996656818632816e-12 1.965788519350673e-17 -3.3586708085734815 5.8173884863401115" Properties=species:S:1:pos:R:3 unique_starting_index=146 config_type=initial n_minim_iter=17 stress="-0.0034572689080365243 7.105021083430079e-17 4.369337563433795e-16 7.105021083430079e-17 -0.001848866591954967 5.657243020803431e-16 4.369337563433795e-16 5.657243020803431e-16 -0.001848866591954625" pbc="T T T"
Si       1.40411578       4.45051346       4.14638213
Si       1.40411578       4.72428633      -0.11006029
Si       1.40411578       0.90121263       1.78106665
Si       2.67384857      -0.63738442       5.26214341
Si       2.67384857       1.51717126       3.73830788
Si       2.67384857      -0.87978686       2.63432569
Si       6.03698308       0.51662087       2.57408784
Si       6.03698308      -1.38775578       4.08293777
Si       6.03698308       0.87113491       4.97775136
Si       0.93048537      -0.00000000       3.87825899
10
Lattice="6.976562587007707 -5.317499476270392e-17 -9.210179262104059e-17 1.806817117214865e-17 6.705458599735269 3.815049601933253e-12 1.8068171172137314e-17 -3.3527292998709366 5.807097491393661" Properties=species:S:1:pos:R:3 unique_starting_index=146 config_type=initial n_minim_iter=18 stress="0.0016502724124026762 7.174372122624725e-17 1.6737913449032225e-16 7.174372122624725e-17 0.002005870726347494 5.388002792788481e-16 1.6737913449032225e-16 5.388002792788481e-16 0.0020058707263465266" pbc="T T T"
Si       1.38537894       4.44282058       4.29852974
Si       1.38537894       4.85395496      -0.18976287
Si       1.38537894       0.76141235       1.69833062
Si       2.70177275      -0.57249637       5.26083407
Si       2.70177275       1.48953483       3.67247685
Si       2.70177275      -0.91703847       2.68088406
Si       6.11544151       0.35950408       2.51211143
Si       6.11544151      -1.35692903       4.23970211
Si       6.11544151       0.99742494       4.86238144
Si       0.95049966      -0.00000000       3.87139833
10
Lattice="6.993856879324407 -5.507753507538692e-17 -9.539708910605173e-17 1.6981523409549032e-17 6.776434027323152 3.8486550982694314e-12 1.6981523409540268e-17 -3.3882170136649057 5.868564014729213" Properties=species:S:1:pos:R:3 unique_starting_index=146 config_type=initial n_minim_iter=19 stress="0.009283315739002393 8.025234938048515e-17 2.9548731672105886e-16 8.025234938048515e-17 0.006920514995262251 2.9738494455186736e-16 2.9548731672105886e-16 2.9738494455186736e-16 0.006920514995260846" pbc="T T T"
Si       1.36502634       4.52564822       4.47047187
Si       1.36502634       4.99693511      -0.28599825
Si       1.36502634       0.64206771       1.68409039
Si       2.72668483      -0.51969220       5.30304007
Si       2.72668483       1.46419650       3.66711063
Si       2.72668483      -0.94450431       2.76697733
Si       6.13378702       0.22748543       2.51718740
Si       6.13378702      -1.32201150       4.41296216
Si       6.13378702       1.09452606       4.80697848
Si       0.96001490      -0.00000000       3.91237601
10
Lattice="6.982232744013537 -5.786629725750996e-17 -1.0022736689570895e-16 1.5691123777466642e-17 6.932727259237436 3.905554404563516e-12 1.5691123777460273e-17 -3.4663636296220965 6.003917924006528" Properties=species:S:1:pos:R:3 unique_starting_index=146 config_type=initial n_minim_iter=20 stress="0.015799320423691844 -3.541967850181602e-17 2.128403936666255e-16 -3.541967850181602e-17 0.017127955706084733 -5.1140369141209e-17 2.128403936666255e-16 -5.1140369141209e-17 0.01712795570608307" pbc="T T T"
Si       1.34499261       4.70481208       4.69099294
Si       1.34499261       5.17647664      -0.41606533
Si       1.34499261       0.51780216       1.72899032
Si       2.74836312      -0.46895848       5.39350051
Si       2.74836312       1.43902406       3.71329763
Si       2.74836312      -0.97006559       2.90103771
Si       6.11344971       0.09728676       2.58103443
Si       6.11344971      -1.27976563       4.62914790
Si       6.11344971       1.18247886       4.79765352
Si       0.96351171      -0.00000000       4.00261195
10
Lattice="6.9605191660258265 -6.24311768324964e-17 -1.0813397025001177e-16 1.3397048892936237e-17 7.154987840578618 4.012274124665297e-12 1.3397048892932547e-17 -3.5774939202927785 6.196401233707837" Properties=species:S:1:pos:R:3 unique_starting_index=146 config_type=initial n_minim_iter=21 stress="0.01291862099151047 -1.6603202689442273e-16 3.191405831147434e-16 -1.6603202689442273e-16 0.01789873020870332 -2.045888278312065e-16 3.191405831147434e-16 -2.045888278312065e-16 0.01789873020870104" pbc="T T T"
Si       1.31551894       4.98996716       4.97752131
Si       1.31551894       5.39317024      -0.61379775
Si       1.31551894       0.34934435       1.83267767
Si       2.77647370      -0.39631233       5.51283992
Si       2.77647370       1.39492166       3.78319782
Si       2.77647370      -0.99860934       3.09676473
Si       6.08076321      -0.06389001       2.70970300
Si       6.08076321      -1.19887729       4.89688010
Si       6.08076321       1.26276728       4.78621937
Si       0.96743975      -0.00000000       4.13093416
