14
Lattice="5.749911183307792 1.3385391487285572 -1.8124279063010162 0.15429345099124092 5.7110243472296895 0.5066108021134518 -4.333316538282213 -2.8864080722346652 9.605284796642847" Properties=species:S:1:pos:R:3 unique_starting_index=128 config_type=initial n_minim_iter=5 energy=-2280.078166182592 free_energy=-2280.078166182592 pbc="T T T"
Si      -4.08946209      -2.50368809       8.40806977
Si       1.46152794       1.32850850       8.34159947
Si      -1.30557771       3.10140072       6.31652281
Si       3.15527372       2.11489515       2.09050720
Si       0.45258871       3.44989578       8.99866181
Si      -0.03711058       0.95141774       1.99357361
Si       2.38331262       3.83112650       3.53568686
Si      -1.38936466      -0.78492232       7.38616937
Si       2.60044199       5.32666509       0.00273815
Si      -0.27990741       0.51033791       4.28223521
Si       2.23652796       5.78594287       2.27825147
Si      -0.12320291       1.05108176       6.59974034
Si       0.44157977      -1.69527980       4.60978566
Si       2.35166650       2.99066226      -0.03288868
