22
Lattice="9.250718364102099 -0.3185476358341517 -2.3902450276745126 -4.1836460873317405 8.256777111209106 2.39024502767422 -4.5483125564456195 -2.6830574671693728 7.968976700762771" Properties=species:S:1:pos:R:3 unique_starting_index=6 config_type=initial n_minim_iter=2 energy=-3579.7351630759777 free_energy=-3579.7351630759777 pbc="T T T"
Si      -5.42315916       5.95927105       7.76337120
Si       1.57411724       2.08392400       5.38737828
Si       4.80188836       1.38163777      -0.90742738
Si      -0.73307096       1.60748754       4.66476771
Si       5.92990554      -0.69643076       0.19135339
Si      -1.04334418       3.16357975       2.59585052
Si       2.28547104       5.26701689       3.30420899
Si      -5.31676900       2.25420184       8.87640408
Si      -1.60572118       5.40621995       3.23278648
Si       0.35508254       6.56468431       4.26227515
Si       1.22378869       3.60667815       1.95264733
Si       1.43115300       5.87124479       0.90900107
Si       1.25670776       0.40286264       3.70670155
Si       1.03145032      -1.86342287       4.73619022
Si       0.17467784       1.08696588       7.05997563
Si      -1.79210009      -0.05454479       6.01632936
Si      -2.59982666       2.78340274       0.52289380
Si       0.44979663       4.17529153       4.27994571
Si      -0.95047412      -0.51720084       3.68903098
Si      -5.11269477       4.38739823       9.83632793
Si       2.53353614       3.96911474      -0.00000000
Si       2.35120290      -1.50080255       2.78936583
