10
Lattice="3.8230478857817776 1.2246988367120613e-13 2.3425793054511164e-15 -1.9115239428909945 3.310856588971343 1.0780472386625388e-14 5.035128222120048e-15 -9.239285688841753e-15 10.511415629122498" Properties=species:S:1:pos:R:3 unique_starting_index=122 config_type=initial n_minim_iter=9 energy=-1552.0370906043472 free_energy=-1552.0370906043472 pbc="T T T"
Si       0.00180827       3.15892805       6.26983839
Si       0.82599628       1.73139256       6.26983839
Si      -0.82237973       1.73139256       6.26983839
Si       1.09016684       0.62836411       7.46731504
Si       1.91333222       2.05412836       7.46731504
Si       2.73649759       0.62836411       7.46731504
Si       0.00180827       1.25565154       8.53640845
Si      -0.82228954       2.68303081       8.53640845
Si       0.82590608       2.68303081       8.53640845
Si      -1.90971567       3.31085658      10.16538913
