10
Lattice="7.890399629297456 0.3172999816021598 -0.6106638547106675 -1.2178039424998413 3.557653308955285 0.2342836108307497 -5.052103805951559 -1.3797940445181436 7.716692385254342" Properties=species:S:1:pos:R:3 unique_starting_index=68 config_type=initial n_minim_iter=5 energy=-1628.9473103492794 free_energy=-1628.9473103492794 pbc="T T T"
Si      -0.82444681       1.48421491       2.17693004
Si      -4.29273796       2.00398399       6.86138160
Si       5.70959045       3.47941630       0.30146506
Si       2.74367640      -0.01023783       5.95153697
Si      -2.32413328       2.74928885       5.79147761
Si      -0.98968857       1.27218125       4.52284461
Si       2.88700049       0.40258963       1.07218827
Si       1.55255579       1.87969723       2.34082127
Si       4.85560517       1.14789450       0.00228428
Si       1.38731403       1.66766358       4.68673584
