22
Lattice="10.16595540742249 -0.2755665265039046 -1.1944097595627141 -4.529989988368061 9.105041293784288 1.1944097595627328 -3.824769709965047 -3.7720925074298766 8.717319296153834" Properties=species:S:1:pos:R:3 unique_starting_index=6 config_type=initial n_minim_iter=1 energy=-3573.820270008633 free_energy=-3573.820270008633 pbc="T T T"
Si      -4.57756043       6.39848894       7.64123068
Si       2.14831778       1.36561876       6.10676304
Si       6.20659059       2.13932563      -0.71105462
Si      -0.35644198       0.33994192       4.63673318
Si       6.67539659      -1.52407289       1.41614649
Si      -0.62376253       3.87472973       2.27049837
Si       2.26960902       4.87719174       4.08058611
Si      -4.49736622       2.75830525       9.42837391
Si      -1.11431770       6.00704179       2.89273951
Si       0.79586109       6.62321588       4.17133174
Si       1.61762872       4.18895783       2.00277604
Si       1.57969918       6.19713012       0.89031906
Si       1.84776672      -0.26172018       4.54598755
Si       2.09308130      -2.25377295       5.82457979
Si       1.13127550       0.26987324       7.82700023
Si      -0.70621198      -0.54119665       6.71454326
Si      -2.21786846       2.31874310       1.95115937
Si       3.04630310       3.36594799       5.60025452
Si      -2.05422116       0.40818575       3.11706477
Si      -5.31777747       4.29745423       7.96056968
Si       2.81798271       4.41473739      -0.00000000
Si       3.17059285      -2.02382951       3.76145477
22
Lattice="10.184538273018457 -0.27271614150207113 -1.1955871232425137 -4.535228234336738 9.123096995586996 1.1955871232425324 -3.832434437880185 -3.78191207780587 8.73144946803067" Properties=species:S:1:pos:R:3 unique_starting_index=6 config_type=initial n_minim_iter=2 stress="0.00018193628687167263 -0.00028166196215940873 -3.132145026367988e-05 -0.00028166196215940873 -7.953551308865222e-05 1.999287785665491e-05 -3.132145026367988e-05 1.999287785665491e-05 0.00036172468752934157" pbc="T T T"
Si      -4.58317525       6.41035023       7.65304618
Si       2.15318721       1.36894533       6.11670040
Si       6.21859187       2.14585712      -0.71184452
Si      -0.35653275       0.34051986       4.64426151
Si       6.68728199      -1.52522471       1.41916194
Si      -0.62354275       3.88286672       2.27399040
Si       2.27585135       4.88843925       4.08718795
Si      -4.50415927       2.76212134       9.44329398
Si      -1.11416658       6.01953872       2.89709897
Si       0.79981961       6.63751984       4.17792827
Si       1.62215995       4.19808925       2.00600038
Si       1.58487285       6.21122806       0.89141272
Si       1.85140984      -0.26192695       4.55352119
Si       2.09668833      -2.25819404       5.83435050
Si       1.13422014       0.27068193       7.84003674
Si      -0.70750175      -0.54306167       6.72544909
Si      -2.22097172       2.32289919       1.95398585
Si       3.05337895       3.37396820       5.60953274
Si      -2.05759018       0.40816099       3.12191672
Si      -5.32560412       4.30462532       7.97305073
Si       2.82465502       4.42519043      -0.00000000
Si       3.17605192      -2.02731411       3.76793117
22
Lattice="10.177969713060907 -0.2378267792521358 -1.1880339517511267 -4.500816263768552 9.131827966881051 1.1880339517511458 -3.8399894519844873 -3.8077861840973126 8.70714069670828" Properties=species:S:1:pos:R:3 unique_starting_index=6 config_type=initial n_minim_iter=3 stress="-0.00013118845265227042 0.0007647039108337266 0.0005132091522426085 0.0007647039108337266 0.0005786997639521342 -0.0003275878929401394 0.0005132091522426085 -0.0003275878929401394 -0.0006193087579454102" pbc="T T T"
Si      -4.55382038       6.40943152       7.62849559
Si       2.15923142       1.37796493       6.09901556
Si       6.22135224       2.17169446      -0.70784141
Si      -0.35213566       0.34081039       4.63152761
Si       6.67879496      -1.50692964       1.42009118
Si      -0.60987800       3.89196321       2.26667906
Si       2.29455203       4.91029619       4.07561308
Si      -4.48944062       2.74962899       9.41498210
Si      -1.09107330       6.03191362       2.88733625
Si       0.82359452       6.65662151       4.16512081
Si       1.63655289       4.21125895       2.00044821
Si       1.60725683       6.23597632       0.88636655
Si       1.85117142      -0.25819384       4.54201989
Si       2.09063536      -2.25791127       5.81980445
Si       1.13968908       0.27553071       7.82077414
Si      -0.70917082      -0.55033595       6.70669248
Si      -2.21015141       2.32046261       1.94636317
Si       3.06521472       3.39263968       5.59565558
Si      -2.05319223       0.40088356       3.11148511
Si      -5.30551281       4.29627095       7.94881147
Si       2.83857672       4.44700060      -0.00000000
Si       3.16899013      -2.02280648       3.75955337
22
Lattice="10.180195042438683 -0.24102575485035346 -1.2239850756897672 -4.504654804617576 9.132499636344361 1.223985075689786 -3.8694866436897892 -3.78717923384122 8.710737658038715" Properties=species:S:1:pos:R:3 unique_starting_index=6 config_type=initial n_minim_iter=4 stress="9.984138320456381e-06 0.00048092117565354313 -0.000737340322078569 0.00048092117565354313 0.0004564318037177877 0.00047065365345523466 -0.000737340322078569 0.00047065365345523466 -0.0002969937482599845" pbc="T T T"
Si      -4.57628324       6.42326061       7.65724567
Si       2.13745378       1.39059658       6.08943942
Si       6.21957794       2.16500555      -0.72409354
Si      -0.36599963       0.35570289       4.63302123
Si       6.67214942      -1.50395700       1.39731316
Si      -0.62121277       3.89868911       2.27747706
Si       2.28278687       4.92207046       4.07771643
Si      -4.52425799       2.76581041       9.43483119
Si      -1.10023152       6.03836767       2.90463160
Si       0.80712691       6.66296771       4.17631298
Si       1.62848850       4.20682430       2.00442183
Si       1.60664000       6.24239527       0.89077812
Si       1.83436370      -0.24985202       4.53442467
Si       2.07084809      -2.24289405       5.80610605
Si       1.11627392       0.29828064       7.81995954
Si      -0.73929523      -0.53891090       6.70631582
Si      -2.21408907       2.32317996       1.95730378
Si       3.04323387       3.40468793       5.59447137
Si      -2.06250672       0.40662523       3.11626628
Si      -5.33472594       4.31512194       7.97741895
Si       2.83777012       4.44573695      -0.00000000
Si       3.15535420      -2.01410249       3.74337629
22
Lattice="10.175460860159518 -0.29129668503063616 -1.205280995224269 -4.548260028310248 9.107040583538826 1.2052809952242878 -3.829550959492066 -3.759377867563762 8.733795122987608" Properties=species:S:1:pos:R:3 unique_starting_index=6 config_type=initial n_minim_iter=5 stress="0.00023169154310512653 -0.0008591590539357144 0.00014830803068388235 -0.0008591590539357144 -0.000565881059751604 -9.466689178364426e-05 0.00014830803068388235 -9.466689178364426e-05 0.0007801035971541507" pbc="T T T"
Si      -4.58011359       6.39728834       7.66052752
Si       2.14284124       1.36228212       6.09739793
Si       6.19457014       2.10987405      -0.71441767
Si      -0.35031616       0.36349340       4.64749499
Si       6.67940000      -1.53346071       1.43111619
Si      -0.64682790       3.88662234       2.27854859
Si       2.27484656       4.89164752       4.08630013
Si      -4.52380079       2.74771711       9.44821278
Si      -1.12243365       6.01300935       2.90409134
Si       0.77717090       6.61503360       4.18138363
Si       1.60913437       4.15081335       2.00939935
Si       1.58511026       6.21791727       0.87695567
Si       1.84343258      -0.26940340       4.55241149
Si       2.09712991      -2.24590747       5.82970378
Si       1.14307114       0.29624775       7.85683945
Si      -0.74201603      -0.55224629       6.72439577
Si      -2.21250716       2.31737726       1.94978330
Si       3.03066474       3.36421109       5.62198436
Si      -2.05399386       0.40598431       3.11181076
Si      -5.34432484       4.31645610       7.98929281
Si       2.81360042       4.40787195      -0.00000000
Si       3.17295495      -2.02533727       3.76425706
22
Lattice="10.172690766515755 -0.26574742459464545 -1.2153371980052476 -4.523919241824691 9.115284626290164 1.215337198005267 -3.848812847192844 -3.770863835647276 8.717713532227345" Properties=species:S:1:pos:R:3 unique_starting_index=6 config_type=initial n_minim_iter=6 stress="3.645443674849442e-05 -9.921181767387503e-05 -6.722196128792955e-05 -9.921181767387503e-05 -5.5645654955976355e-05 4.290862811289862e-05 -6.722196128792955e-05 4.290862811289862e-05 9.978261144085555e-05" pbc="T T T"
Si      -4.56983547       6.40509958       7.65547647
Si       2.13781073       1.37490234       6.08288092
Si       6.19732606       2.12989280      -0.71812849
Si      -0.35475629       0.36833078       4.63986136
Si       6.67093315      -1.51864704       1.41949540
Si      -0.63899105       3.89599187       2.27757426
Si       2.28341248       4.91196404       4.07785216
Si      -4.52606491       2.74715913       9.43584202
Si      -1.11032437       6.02621220       2.90433252
Si       0.78904492       6.63408406       4.17828023
Si       1.61755805       4.16527134       2.00644641
Si       1.60017438       6.23602887       0.87763424
Si       1.83645131      -0.26209844       4.53943330
Si       2.08474548      -2.24085106       5.81338100
Si       1.13389519       0.30605102       7.84007929
Si      -0.75171027      -0.55000448       6.71126712
Si      -2.20838740       2.31747492       1.94833808
Si       3.03051842       3.38535822       5.60932284
Si      -2.05401258       0.40326891       3.10839069
Si      -5.34089185       4.31699213       7.98471265
Si       2.82438576       4.42476861      -0.00000000
Si       3.16193896      -2.01830563       3.75118816
22
Lattice="10.16507150496327 -0.23675958004405762 -1.2299891161606895 -4.494417897159978 9.120577918391302 1.2299891161607095 -3.8721042351501325 -3.7801210216582253 8.69569438741857" Properties=species:S:1:pos:R:3 unique_starting_index=6 config_type=initial n_minim_iter=7 stress="-0.0002489413494174495 0.001066071287128105 -0.00010606713857924484 0.001066071287128105 0.0007407115529299512 6.770399609114617e-05 -0.00010606713857924484 6.770399609114617e-05 -0.0009294281093920789" pbc="T T T"
Si      -4.55139127       6.41258126       7.64982971
Si       2.12621863       1.38717125       6.05670756
Si       6.18590264       2.14666142      -0.72004634
Si      -0.35884703       0.38558943       4.63649347
Si       6.65603152      -1.50426561       1.40899770
Si      -0.63376013       3.91190776       2.27585379
Si       2.29937996       4.94054365       4.05920091
Si      -4.52933682       2.73460016       9.41574072
Si      -1.10088870       6.04525827       2.90570656
Si       0.79839937       6.65129276       4.18057438
Si       1.62704038       4.17451128       2.00190799
Si       1.61894635       6.25700260       0.87461293
Si       1.82483076      -0.25562550       4.51512000
Si       2.07475732      -2.23353088       5.78998783
Si       1.12172477       0.32265130       7.82108145
Si      -0.77061276      -0.54677053       6.69378639
Si      -2.20196161       2.31435627       1.93653104
Si       3.01871094       3.41603644       5.59439807
Si      -2.04450606       0.39621776       3.10129631
Si      -5.34021604       4.31754377       7.98915246
Si       2.83532680       4.44190917      -0.00000000
Si       3.14648363      -2.00844030       3.73285263
22
Lattice="10.157990733409317 -0.30325408750030597 -1.2496312681988615 -4.5517508105882225 9.08615998868195 1.2496312681988804 -3.8564540852858316 -3.719096456762877 8.725502880719933" Properties=species:S:1:pos:R:3 unique_starting_index=6 config_type=initial n_minim_iter=8 stress="-1.0482487919174228e-05 0.0002871979346361853 3.3753126558189466e-05 0.0002871979346361853 0.00025612845357518365 -2.1545047591458584e-05 3.3753126558189466e-05 -2.1545047591458584e-05 -0.00019380457042851256" pbc="T T T"
Si      -4.57524913       6.40482637       7.69099269
Si       2.09486460       1.35915434       6.05300313
Si       6.12130340       2.07230996      -0.71727558
Si      -0.35752479       0.42931713       4.68074935
Si       6.65238864      -1.54997090       1.42286848
Si      -0.67243243       3.91360911       2.28414146
Si       2.28972308       4.92026522       4.04475352
Si      -4.55393002       2.70572660       9.44277846
Si      -1.15905404       6.03396301       2.92238068
Si       0.74189187       6.59375664       4.22352556
Si       1.59841574       4.11865803       2.00680434
Si       1.58402297       6.21139084       0.86868959
Si       1.81208319      -0.27007989       4.50197732
Si       2.10465064      -2.23002085       5.80312220
Si       1.11070596       0.33279520       7.85681329
Si      -0.79357301      -0.53522517       6.71869854
Si      -2.21148539       2.30273514       1.91126009
Si       2.95667365       3.40232165       5.62243150
Si      -2.01517721       0.39519706       3.10307138
Si      -5.38843011       4.33061914       8.06387405
Si       2.80311996       4.39145296      -0.00000000
Si       3.15076832      -2.01117527       3.73793580
22
Lattice="10.146313506396176 -0.3872781533342735 -1.2883620452316353 -4.6230487765635715 9.040192594610001 1.2883620452316509 -3.847613299065826 -3.63326185489538 8.760868626588076" Properties=species:S:1:pos:R:3 unique_starting_index=6 config_type=initial n_minim_iter=9 stress="0.0006428546848940016 -0.0005415608103639148 0.0002485827929779459 -0.0005415608103639148 0.000140114170028817 -0.00015867354083037855 0.0002485827929779459 -0.00015867354083037855 0.0009885397382700869" pbc="T T T"
Si      -4.60839923       6.40042038       7.75506557
Si       2.04077420       1.32776925       6.03984450
Si       6.02368521       1.97157720      -0.71809164
Si      -0.35702670       0.50056510       4.74420040
Si       6.64385723      -1.61043687       1.43266207
Si      -0.72492934       3.92155243       2.29416510
Si       2.28000464       4.90655673       4.01666822
Si      -4.59536029       2.66060617       9.47896026
Si      -1.24007467       6.02563074       2.94556518
Si       0.66660779       6.51890461       4.28733607
Si       1.55698938       4.04678642       2.01140919
Si       1.54175454       6.15373033       0.86493845
Si       1.78472508      -0.28404589       4.47353256
Si       2.14004466      -2.22118427       5.81530344
Si       1.08504132       0.35601406       7.89593017
Si      -0.83248239      -0.51722562       6.74945943
Si      -2.22079357       2.28272395       1.87433032
Si       2.86318077       3.39647427       5.66071814
Si      -1.97227825       0.39376683       3.10015048
Si      -5.46511960       4.35361829       8.17490035
Si       2.76163236       4.32645723      -0.00000000
Si       3.14935010      -2.01027000       3.73625329
22
Lattice="10.120344960201777 -0.3951277695802132 -1.336607874323406 -4.619235603259553 9.013332930129364 1.336607874323418 -3.8772028225185884 -3.5899488200958154 8.743202755262251" Properties=species:S:1:pos:R:3 unique_starting_index=6 config_type=initial n_minim_iter=10 stress="-0.0005788402303415375 -3.870926592787856e-05 -5.4603493873185944e-05 -3.870926592787856e-05 -0.0006147747291273606 3.4854100763143606e-05 -5.4603493873185944e-05 3.4854100763143606e-05 -0.0005541316027873391" pbc="T T T"
Si      -4.61580355       6.40488966       7.78855182
Si       1.98669608       1.33811932       6.00024458
Si       5.95888322       1.93198041      -0.73218123
Si      -0.36017742       0.55911129       4.75985237
Si       6.62045500      -1.61966761       1.40635030
Si      -0.74353447       3.93317133       2.29125880
Si       2.28269074       4.93695154       3.98335038
Si      -4.63358348       2.62846946       9.47538398
Si      -1.26404775       6.03298729       2.95400015
Si       0.64094606       6.49437925       4.31150152
Si       1.53178780       4.01997946       2.00745773
Si       1.54238324       6.14737114       0.87175794
Si       1.74369377      -0.27433499       4.43170123
Si       2.12722099      -2.19651885       5.78920261
Si       1.04941899       0.39722003       7.87144481
Si      -0.87577696      -0.50805793       6.73574502
Si      -2.21054826       2.26331185       1.85589807
Si       2.80173700       3.42414133       5.66213278
Si      -1.95090343       0.39299541       3.08106997
Si      -5.51281720       4.37119188       8.22391256
Si       2.75055468       4.30910258      -0.00000000
Si       3.12157107      -1.99253829       3.70329744
22
Lattice="10.105894170615855 -0.42227675581673946 -1.3877003030284993 -4.637777146977764 8.988795123995283 1.3877003030285078 -3.903773309954349 -3.536615433899693 8.745629308083398" Properties=species:S:1:pos:R:3 unique_starting_index=6 config_type=initial n_minim_iter=11 stress="0.00046236387544595545 0.0001078794510259488 0.00015859959495880763 0.0001078794510259488 0.0005625102850722591 -0.00010123612742896466 0.00015859959495880763 -0.00010123612742896466 0.0003935030181391954" pbc="T T T"
Si      -4.63443741       6.41209871       7.84822461
Si       1.92407096       1.34640579       5.96873773
Si       5.87578408       1.87224063      -0.74004270
Si      -0.36196359       0.63666134       4.80018192
Si       6.61331622      -1.64679876       1.38919127
Si      -0.77426234       3.94810014       2.28510499
Si       2.29422193       4.96962783       3.94544739
Si      -4.67935499       2.58127609       9.48567200
Si      -1.30613816       6.04644265       2.96813149
Si       0.60212465       6.45982470       4.35421981
Si       1.49938430       3.98675874       2.00860288
Si       1.53287265       6.13459993       0.88119717
Si       1.70212495      -0.27076271       4.39140950
Si       2.13057599      -2.17569876       5.77749782
Si       1.01526846       0.43654992       7.86443214
Si      -0.91883799      -0.49810270       6.73702642
Si      -2.20515906       2.24215974       1.82249039
Si       2.72204721       3.45634734       5.68048275
Si      -1.91471063       0.38760521       3.06514655
Si      -5.57938426       4.39597036       8.31083922
Si       2.73405851       4.28325919      -0.00000000
Si       3.10106043      -1.97944609       3.67896450
22
Lattice="10.081667015177507 -0.40717825515724176 -1.4273366407561339 -4.61388197206987 8.973176532544064 1.4273366407561392 -3.9370174476905153 -3.5150292812296153 8.717084179421217" Properties=species:S:1:pos:R:3 unique_starting_index=6 config_type=initial n_minim_iter=12 stress="-0.0008261414227884497 0.0004813535091514884 -0.0005900351673980486 0.0004813535091514884 -0.00037929241452970867 0.0003766269101076303 -0.0005900351673980486 0.0003766269101076303 -0.0011333953097721872" pbc="T T T"
Si      -4.64081765       6.40456745       7.89140911
Si       1.86870554       1.39298410       5.93042725
Si       5.82233667       1.85518517      -0.74170186
Si      -0.37093349       0.69319255       4.80751191
Si       6.62140368      -1.64072324       1.35932028
Si      -0.78775637       3.94510970       2.25301171
Si       2.31569908       5.00635831       3.90957227
Si      -4.70556708       2.54720198       9.45878604
Si      -1.30092398       6.05492539       2.96984854
Si       0.59498873       6.45183665       4.35438878
Si       1.47962456       3.99055110       2.01354767
Si       1.53237297       6.14300742       0.89989344
Si       1.66463956      -0.25901232       4.36269540
Si       2.10283088      -2.14581171       5.74723563
Si       0.98986073       0.46122253       7.81719073
Si      -0.94032307      -0.49284304       6.70353650
Si      -2.19801701       2.22861836       1.79336986
Si       2.66799873       3.49946369       5.66524365
Si      -1.88609065       0.37831922       3.05184053
Si      -5.60402289       4.40271499       8.35105095
Si       2.73389252       4.28299914      -0.00000000
Si       3.07232478      -1.96110376       3.64487377
22
Lattice="10.076282138976827 -0.43533239126099305 -1.4137260226913375 -4.637152140449916 8.956438804651377 1.413726022691339 -3.911217309093845 -3.49990646532524 8.727693349184495" Properties=species:S:1:pos:R:3 unique_starting_index=6 config_type=initial n_minim_iter=13 stress="0.0006316298846203377 -0.000359556410641021 -1.5533866702104913e-05 -0.000359556410641021 0.0002978472852337868 9.915463587247076e-06 -1.5533866702104913e-05 9.915463587247076e-06 0.0008611392930448727" pbc="T T T"
Si      -4.63139845       6.36859120       7.92056688
Si       1.85233249       1.40180770       5.91674146
Si       5.77595845       1.81628306      -0.71272700
Si      -0.36714254       0.72768728       4.83628299
Si       6.65671574      -1.66489090       1.39722586
Si      -0.82182440       3.93689190       2.22085249
Si       2.34253667       4.99455071       3.89141035
Si      -4.69552721       2.50387886       9.44042035
Si      -1.30929923       6.04334909       2.96707719
Si       0.57634443       6.41747712       4.35521986
Si       1.47120741       3.96294346       2.02365916
Si       1.51015228       6.12698884       0.89213426
Si       1.66712335      -0.27526681       4.37247349
Si       2.12165683      -2.14315950       5.76061616
Si       1.01048645       0.44944591       7.83555909
Si      -0.93602076      -0.49697829       6.70403419
Si      -2.20380256       2.21372922       1.75006959
Si       2.63707279       3.50619486       5.67898709
Si      -1.84116465       0.36822452       3.04870625
Si      -5.61256234       4.38958370       8.39134978
Si       2.71956500       4.26055321      -0.00000000
Si       3.08253241      -1.96761942       3.65698366
22
Lattice="10.079528946276138 -0.4180665254404175 -1.3856858216253898 -4.6228580466453995 8.96665304776972 1.3856858216253893 -3.8963522103675934 -3.52873338984112 8.721140333176098" Properties=species:S:1:pos:R:3 unique_starting_index=6 config_type=initial n_minim_iter=14 stress="0.00011820694855776748 -5.196000746790175e-05 -7.010967199410218e-05 -5.196000746790175e-05 6.997155115219035e-05 4.4751890379013376e-05 -7.010967199410218e-05 4.4751890379013376e-05 0.00015137369587113993" pbc="T T T"
Si      -4.61118953       6.35736668       7.89708554
Si       1.87461240       1.40524941       5.92170794
Si       5.80286347       1.83973344      -0.70179222
Si      -0.36237779       0.70336004       4.81966863
Si       6.66856924      -1.65479388       1.41374657
Si      -0.81135474       3.93188407       2.20974061
Si       2.35087054       4.98728360       3.90147170
Si      -4.67071884       2.50932920       9.42293255
Si      -1.28320522       6.03731871       2.95406492
Si       0.60003452       6.43040637       4.32998017
Si       1.48562381       3.97537039       2.02263861
Si       1.51874405       6.13855219       0.88666868
Si       1.68374204      -0.27716213       4.39116016
Si       2.12006604      -2.15085667       5.76707541
Si       1.03222284       0.43328054       7.83447165
Si      -0.91595332      -0.50749684       6.69850172
Si      -2.20424092       2.21248360       1.75486657
Si       2.67421407       3.50335089       5.67273478
Si      -1.84451627       0.37188934       3.04840555
Si      -5.58434844       4.37004898       8.35195958
Si       2.72833545       4.27429327      -0.00000000
Si       3.09158837      -1.97339995       3.66772725
22
Lattice="10.063481826010241 -0.4250461465618698 -1.3833264153911136 -4.622432827321554 8.949158923946165 1.38332641539111 -3.8865524781666596 -3.517765981900907 8.711369294875672" Properties=species:S:1:pos:R:3 unique_starting_index=6 config_type=initial n_minim_iter=15 stress="9.136050132686227e-05 0.000611005967113246 0.0002829037575323331 0.000611005967113246 0.000658568188097375 -0.00018058104659760219 0.0002829037575323331 -0.00018058104659760219 -0.0002986524055074494" pbc="T T T"
Si      -4.59150450       6.33523979       7.91352113
Si       1.84904793       1.41390652       5.89556926
Si       5.76023558       1.81304364      -0.68580535
Si      -0.35723060       0.73675155       4.83146905
Si       6.68093738      -1.67034963       1.43247362
Si      -0.82948777       3.93389693       2.18117458
Si       2.37316918       4.99250442       3.87990024
Si      -4.66718112       2.47039401       9.39717464
Si      -1.28300417       6.02909388       2.94469932
Si       0.59597902       6.40664615       4.32538537
Si       1.47622134       3.95164440       2.02145380
Si       1.51760314       6.13456275       0.88182855
Si       1.67369742      -0.27987673       4.38598392
Si       2.12232076      -2.14316968       5.76666997
Si       1.03888428       0.44153347       7.82954074
Si      -0.92371572      -0.51504701       6.68991549
Si      -2.20098419       2.18328256       1.72642832
Si       2.65672148       3.52441616       5.68142035
Si      -1.80824456       0.37585887       3.02994894
Si      -5.60198151       4.35418216       8.36826738
Si       2.72052450       4.26205639      -0.00000000
Si       3.08846467      -1.97140606       3.66402144
22
Lattice="10.060395505454277 -0.45155633681216084 -1.3721934432898397 -4.645179580053846 8.935198236218946 1.372193443289833 -3.864251773938763 -3.503520575771722 8.723031439817452" Properties=species:S:1:pos:R:3 unique_starting_index=6 config_type=initial n_minim_iter=16 stress="-0.0003404102237205072 0.00012049904650581663 0.00018415741330328814 0.00012049904650581663 -0.00022854881956920476 -0.00011755000613353973 0.00018415741330328814 -0.00011755000613353973 -0.0004173263347609493" pbc="T T T"
Si      -4.59684076       6.32067434       7.93092315
Si       1.83944378       1.40952839       5.90336340
Si       5.74699554       1.79163609      -0.67444626
Si      -0.35679597       0.73785272       4.84277323
Si       6.70022408      -1.69316915       1.44747459
Si      -0.84089880       3.92320908       2.16430173
Si       2.37045265       4.96713679       3.88025820
Si      -4.65872392       2.46361707       9.39747769
Si      -1.29417675       6.01083944       2.93968227
Si       0.58588814       6.38151286       4.32498123
Si       1.46555080       3.93673284       2.02355759
Si       1.49984857       6.11065796       0.88279983
Si       1.67744934      -0.28536582       4.39805020
Si       2.13276757      -2.14674382       5.78334917
Si       1.04697705       0.42961022       7.84023160
Si      -0.91044812      -0.51675836       6.69947385
Si      -2.21004381       2.16920902       1.71719946
Si       2.65441536       3.51726437       5.69301818
Si      -1.79145999       0.38500148       3.03001325
Si      -5.61137876       4.34032413       8.37802542
Si       2.70760796       4.24182095      -0.00000000
Si       3.09807187      -1.97753845       3.67541900
22
Lattice="10.058260264006485 -0.48856928870595406 -1.380623192250696 -4.677853313400539 8.917678389954732 1.3806231922506833 -3.8539528599533197 -3.4717185993127555 8.741146218190357" Properties=species:S:1:pos:R:3 unique_starting_index=6 config_type=initial n_minim_iter=17 stress="0.00022899388542864168 -0.00021201613609978784 -0.00010945757034772993 -0.00021201613609978784 3.217554225601161e-05 6.986815156969702e-05 -0.00010945757034772993 6.986815156969702e-05 0.0003643264937764172" pbc="T T T"
Si      -4.61665717       6.31215490       7.98407513
Si       1.80210633       1.41615396       5.90705340
Si       5.71493084       1.75587626      -0.66488444
Si      -0.36386536       0.76021642       4.86867551
Si       6.73011718      -1.72945770       1.45346962
Si      -0.86265816       3.91592985       2.13769428
Si       2.36920397       4.94740915       3.87247070
Si      -4.66736128       2.45127919       9.40603066
Si      -1.31953865       5.99913177       2.94371676
Si       0.56033022       6.34897149       4.34005995
Si       1.44302112       3.91183276       2.02675054
Si       1.48016320       6.08575263       0.88839314
Si       1.66899181      -0.29044668       4.40108627
Si       2.14312479      -2.14287555       5.79742946
Si       1.04297338       0.43307097       7.85275308
Si      -0.91324952      -0.51587535       6.71439568
Si      -2.22395514       2.14912518       1.69645416
Si       2.62555450       3.52627432       5.71021287
Si      -1.76083767       0.39441847       3.03093335
Si      -5.64611378       4.33353233       8.42531525
Si       2.69020347       4.21455455      -0.00000000
Si       3.10215370      -1.98014394       3.68026151
22
Lattice="10.066586700717684 -0.4988336969733008 -1.3684812936681605 -4.6906692433011985 8.920909421704163 1.36848129366814 -3.841473504857552 -3.4747347911072306 8.753687414705292" Properties=species:S:1:pos:R:3 unique_starting_index=6 config_type=initial n_minim_iter=18 stress="0.00038729859246568285 -0.0002596445283975228 -0.0004093532223183917 -0.0002596445283975228 0.00014626596715275287 0.00026129533929908745 -0.0004093532223183917 0.00026129533929908745 0.0005530330802586942" pbc="T T T"
Si      -4.62433717       6.31566102       7.99084792
Si       1.80535705       1.41052557       5.92755534
Si       5.74126384       1.76499535      -0.66474708
Si      -0.36775021       0.73181886       4.86392667
Si       6.74444912      -1.74215937       1.45765077
Si      -0.85658110       3.91065466       2.13132078
Si       2.35307133       4.92187997       3.88976074
Si      -4.65769706       2.47598770       9.41843449
Si      -1.32311698       5.99358391       2.94539886
Si       0.55797485       6.34840783       4.34009119
Si       1.44262638       3.90201695       2.02247246
Si       1.48384578       6.08357070       0.88344452
Si       1.68195155      -0.29583663       4.41359622
Si       2.15207848      -2.15147322       5.80828855
Si       1.05192318       0.43247644       7.87024289
Si      -0.90950744      -0.52338220       6.73121495
Si      -2.23323012       2.15298390       1.70526714