12
Lattice="7.386604496357762 1.5746026150937094 -1.0723929688650784 4.247555592822971 6.622191219501742 1.127085942681614 2.0938067519508317 1.5555869035178664 5.358297294047588" Properties=species:S:1:pos:R:3 unique_starting_index=78 config_type=initial n_minim_iter=1 energy=-1950.1116675611634 free_energy=-1950.1116675611634 pbc="T T T"
Si       3.24733497       3.74577863       2.85908339
Si       8.36845891       4.46661759       1.96639412
Si      11.87396297       8.72200092       2.86170453
Si       5.63414306       3.35056937       2.23274520
Si       6.34924543       5.74131738       2.36947186
Si       8.29477880       8.50367633       5.71855836
Si       7.11471134       2.39700183      -0.60965057
Si       8.13640543       6.23309936       4.97467358
Si       5.14943495       0.98248468      -0.58088657
Si       9.09534358       3.85736749      -0.32813947
Si       4.94071374       4.83849676       4.20950793
Si       5.93614346       6.74242807       5.63860782
12
Lattice="7.489966995230849 1.7216957765259917 -1.1112038756243048 4.389398779315921 6.835450042719481 1.1402934565661085 2.103659134730518 1.6559296651183057 5.352234882861327" Properties=species:S:1:pos:R:3 unique_starting_index=78 config_type=initial n_minim_iter=2 stress="0.015876228933468895 0.002536467285609262 0.0016396405189901624 0.002536467285609262 0.016932687815654945 0.0015545942721964872 0.0016396405189901624 0.0015545942721964872 0.013141822385451404" pbc="T T T"
Si       3.31853265       3.90155893       2.85322581
Si       8.51867621       4.70701630       1.93716114
Si      12.09575151       9.13511859       2.81895290
Si       5.71746980       3.54498004       2.21497297
Si       6.50738937       5.96710346       2.36982874
Si       8.47945937       8.85794013       5.70344342
Si       7.21869625       2.56846193      -0.65766810
Si       8.28798296       6.50321771       4.96419307
Si       5.20289508       1.06881518      -0.61603468
Si       9.24704372       4.09446761      -0.35549738
Si       5.04520034       5.03714177       4.21081883
Si       6.07410761       7.00291334       5.67405344
12
Lattice="7.409101997494852 1.8947241908101131 -1.182396208734301 4.456372573501491 6.945836652490828 1.090325933098865 2.0188967171381096 1.748509081403596 5.166942699144088" Properties=species:S:1:pos:R:3 unique_starting_index=78 config_type=initial n_minim_iter=3 stress="-0.00464112317630137 0.010833073303758147 0.00537319476379643 0.010833073303758147 0.0008135906952102701 0.0021279786527554807 0.00537319476379643 0.0021279786527554807 -0.014900598216371455" pbc="T T T"
Si       3.30244387       4.01849835       2.73045230
Si       8.46546045       4.92183759       1.77613436
Si      12.01796304       9.48745168       2.57881798
Si       5.64130906       3.74277464       2.08438754
Si       6.53176555       6.11334339       2.25515577
Si       8.45350819       9.11605260       5.44121719
Si       7.14240718       2.75509454      -0.76775136
Si       8.21987630       6.69140005       4.74511006
Si       5.10832300       1.15816017      -0.68698207
Si       9.17726680       4.33518085      -0.44184743
Si       5.01767250       5.17316866       4.05079125
Si       6.05516579       7.16587761       5.52939882
12
Lattice="7.362902542013254 1.794834475218816 -1.4126573367148556 4.313448743791963 6.831249976558434 0.979449927117059 1.8263572164264725 1.709757275631431 5.169456337206924" Properties=species:S:1:pos:R:3 unique_starting_index=78 config_type=initial n_minim_iter=4 stress="0.0007676087876654573 0.004319815829391811 2.3789128998339444e-05 0.004319815829391811 -0.003342334682703312 -0.001701124718106161 2.3789128998339444e-05 -0.001701124718106161 -0.010136172108127235" pbc="T T T"
Si       3.14433882       3.96450214       2.65675907
Si       8.31611004       4.77070868       1.54866032
Si      11.71623708       9.30347085       2.24098820
Si       5.47232113       3.69151488       1.94714221
Si       6.37601157       5.95725808       2.11277153
Si       8.12929639       8.94553540       5.24401881
Si       7.06453557       2.66183634      -1.03279961
Si       7.94522204       6.49870446       4.57673382
Si       5.03892192       1.06203855      -0.85668842
Si       9.06481857       4.21125198      -0.69982814
Si       4.81051586       5.05828502       3.96620137
Si       5.77270825       7.00336917       5.49314930
12
Lattice="7.202922344488399 1.7224992615767298 -1.5464848615926268 4.142875209310206 6.810796246194029 0.9954998153852358 1.6724227544849335 1.7486537287573811 5.252236123953006" Properties=species:S:1:pos:R:3 unique_starting_index=78 config_type=initial n_minim_iter=5 stress="-0.0009330630170360136 -3.518185003780931e-05 -0.00023389512499219313 -3.518185003780931e-05 -0.005928491032669674 -0.0021263204338089698 -0.00023389512499219313 -0.0021263204338089698 -0.00334735943325129" pbc="T T T"
Si       2.98389648       3.99010115       2.67867267
Si       8.08303364       4.70966242       1.48036057
Si      11.30750870       9.27159545       2.16162044
Si       5.26151189       3.70976793       1.92829295
Si       6.16961156       5.91433303       2.12549033
Si       7.77859476       8.94179752       5.27839060
Si       6.89142352       2.60040150      -1.19932644
Si       7.62778036       6.45783636       4.60204378
Si       4.89506168       0.98418325      -0.96096821
Si       8.82917633       4.15317307      -0.81487610
Si       4.59857980       5.05877575       4.02509227
Si       5.48967676       6.98706058       5.63984141
12
Lattice="7.069791548185458 1.6920322505740388 -1.668895449301808 4.007797859898885 6.891269887163241 1.027351136489161 1.527578534016002 1.8357121744120024 5.29814471512956" Properties=species:S:1:pos:R:3 unique_starting_index=78 config_type=initial n_minim_iter=6 stress="-0.0002647092744508412 -0.0025947534023640665 -0.001525020507209585 -0.0025947534023640665 -0.0034386752069785784 2.4552578239319946e-05 -0.001525020507209585 2.4552578239319946e-05 -0.0005238836211958114" pbc="T T T"
Si       2.84438755       4.09141629       2.69126455
Si       7.88948482       4.73511044       1.40966824
Si      10.96471231       9.39544224       2.09469826
Si       5.08056319       3.79241482       1.90297861
Si       5.99623455       5.98650623       2.14499523
Si       7.47966597       9.08756179       5.30215249
Si       6.75186192       2.58084283      -1.35797066
Si       7.35321480       6.55265432       4.60255821
Si       4.77024683       0.93304630      -1.06037561
Si       8.63051884       4.17651038      -0.91972502
Si       4.41893323       5.16225904       4.07206180
Si       5.23883167       7.09569523       5.76459273
12
Lattice="6.8699738133541794 1.6963195751977054 -1.708269672143915 3.8691856999732184 7.040067557268187 1.0974258065133045 1.4464501955523323 1.912634968632018 5.432935874230507" Properties=species:S:1:pos:R:3 unique_starting_index=78 config_type=initial n_minim_iter=7 stress="0.00368210246723688 -0.002952623861797665 0.0018114633768648327 -0.002952623861797665 0.010647491086530235 0.0022887113649123787 0.0018114633768648327 0.0022887113649123787 0.014360001449071425" pbc="T T T"
Si       2.72355987       4.23940321       2.76597720
Si       7.66363481       4.79125866       1.46462337
Si      10.59707998       9.58855996       2.19988567
Si       4.91553247       3.87457406       1.95913846
Si       5.80416791       6.14951412       2.27916376
Si       7.21244629       9.27708711       5.48400411
Si       6.56151679       2.56951371      -1.44999311
Si       7.10043244       6.73655746       4.72837961
Si       4.60563558       0.91357905      -1.10509137
Si       8.36125288       4.25591729      -0.93937961
Si       4.28060331       5.33205156       4.23325681
Si       5.02880745       7.25020601       5.99471754
12
Lattice="6.941928694293838 1.7811055679291692 -1.7523132283075367 3.964694134671223 7.027198609039651 0.9741118807932619 1.439987865120144 1.869836214896994 5.282171330909483" Properties=species:S:1:pos:R:3 unique_starting_index=78 config_type=initial n_minim_iter=8 stress="0.0025782320159803 0.0008447441690039995 -0.0012683127576100961 0.0008447441690039995 0.0034537168622901385 0.002838777944941521 -0.0012683127576100961 0.002838777944941521 0.0009287183308299493" pbc="T T T"
Si       2.75962405       4.26915199       2.64345879
Si       7.75376879       4.79332499       1.32828025
Si      10.75400386       9.59771760       1.97353154
Si       5.00102905       3.85299143       1.82240041
Si       5.88403349       6.20241347       2.16703966
Si       7.32430911       9.20667925       5.22768353
Si       6.64571557       2.58927616      -1.53482948
Si       7.19558049       6.78759900       4.45689309
Si       4.63385694       0.97877434      -1.14589593
Si       8.44742523       4.34390767      -1.06320312
Si       4.36337930       5.36122171       4.08364687
Si       5.08959014       7.19432989       5.74962772
12
Lattice="6.931239114788605 1.790437149749912 -1.732931376534712 3.9702542932360134 6.9883094277166276 0.9196539864282332 1.4623674298659401 1.8083931763863903 5.256595564403726" Properties=species:S:1:pos:R:3 unique_starting_index=78 config_type=initial n_minim_iter=9 stress="0.0009344120634896069 -0.00027295254632277757 -0.00011346856500955609 -0.00027295254632277757 -0.001017388735757366 0.00013086010604103113 -0.00011346856500955609 0.00013086010604103113 -0.0006740856438487219" pbc="T T T"
Si       2.76519749       4.24489062       2.61348181
Si       7.75552575       4.74148814       1.31834783
Si      10.76524313       9.51387609       1.92355320
Si       5.02162441       3.79829610       1.80161412
Si       5.88493355       6.17649813       2.14860909
Si       7.34772793       9.09204765       5.16631638
Si       6.63935520       2.56612861      -1.52686730
Si       7.21781370       6.74599066       4.38750721
Si       4.62101310       0.99733658      -1.13623575
Si       8.42877479       4.33844310      -1.07912685
Si       4.39249555       5.32109423       4.05271423
Si       5.11009565       7.10386308       5.67541116
12
Lattice="6.874684634044865 1.8347523839797435 -1.775690433434307 3.956124129606092 7.015484617774444 0.8575160119376918 1.4249973185651381 1.7885528492211953 5.229846816963073" Properties=species:S:1:pos:R:3 unique_starting_index=78 config_type=initial n_minim_iter=10 stress="-0.0030950774764324776 7.233759723924776e-05 -0.0012217293290410754 7.233759723924776e-05 -0.005283868246553498 -0.00011909010559051821 -0.0012217293290410754 -0.00011909010559051821 -0.006742904169280691" pbc="T T T"
Si       2.72942937       4.28772647       2.57446259
Si       7.69767773       4.75170298       1.25295219
Si      10.67995049       9.55754546       1.79279919
Si       4.98180463       3.81916115       1.75465137
Si       5.84503204       6.21805896       2.11525345
Si       7.28959683       9.08908767       5.06987113
Si       6.58655338       2.58066666      -1.59304562
Si       7.15719415       6.78870788       4.27522953
Si       4.55768797       1.02810104      -1.17761681
Si       8.34571503       4.40590400      -1.15793887
Si       4.36860757       5.35017288       4.01375834
Si       5.05609703       7.09073495       5.62183062
12
Lattice="6.72788092630424 1.989507195848252 -1.8234563768626424 3.9593891480847967 7.109840618410391 0.6945793621835434 1.4010598485666907 1.6954069385606412 5.229011062943923" Properties=species:S:1:pos:R:3 unique_starting_index=78 config_type=initial n_minim_iter=11 stress="-0.00784654869935941 7.882974738490035e-06 -0.0016143441285961647 7.882974738490035e-06 -0.009788665809095326 -0.004577860090429895 -0.0016143441285961647 -0.004577860090429895 -0.013093116039000808" pbc="T T T"
Si       2.67708598       4.39336637       2.52773291
Si       7.59183453       4.80409933       1.16518117
Si      10.54580611       9.68809165       1.50088717
Si       4.92265270       3.89155752       1.71661140
Si       5.80168951       6.32475470       2.07787996
Si       7.25301794       9.07769379       4.90607622
Si       6.44329200       2.65351204      -1.66157718
Si       7.09938061       6.90748648       4.04699970
Si       4.38739034       1.16171364      -1.24522787
Si       8.13413805       4.62955427      -1.30318585
Si       4.38214191       5.39643564       3.96789046
Si       5.02724790       7.04188813       5.53773447
12
Lattice="6.652371334250946 2.0634478220496315 -1.8165540800406077 3.972497321185602 7.169107640854886 0.70712107217988 1.4112835165511048 1.7023707425483678 5.315341619091014" Properties=species:S:1:pos:R:3 unique_starting_index=78 config_type=initial n_minim_iter=12 stress="-0.008834046423225127 0.0004105399459063125 -0.0009590583319089469 0.0004105399459063125 -0.001785478062574947 -0.0014439229144357218 -0.0009590583319089469 -0.0014439229144357218 -0.007960556412985561" pbc="T T T"
Si       2.66111635       4.45893245       2.60397917
Si       7.55512839       4.87382965       1.21140448
Si      10.50039888       9.79878454       1.47922100
Si       4.89218232       3.98611177       1.80422215
Si       5.81146428       6.37210641       2.14920312
Si       7.27408728       9.16054801       4.99964994
Si       6.36093218       2.71228523      -1.62578457
Si       7.10110544       6.98715308       4.08099198
Si       4.29441707       1.23279141      -1.25962970
Si       8.02873769       4.74665185      -1.29685437
Si       4.40017386       5.42296565       4.05244344
Si       5.05721313       7.08240952       5.65811546
12
Lattice="6.723497965784454 2.072975037842459 -1.7719160639260032 4.046796612623187 7.112576318163466 0.7484201725470231 1.4754005528112129 1.6953995740897405 5.371012231971695" Properties=species:S:1:pos:R:3 unique_starting_index=78 config_type=initial n_minim_iter=13 stress="-0.0011764084141252559 -0.0014040158756378548 0.0010737329991837607 -0.0014040158756378548 0.00208867013524784 0.0004323085323825247 0.0010737329991837607 0.0004323085323825247 -0.0016423873586020495" pbc="T T T"
Si       2.71542203       4.41881946       2.67263821
Si       7.67291954       4.86940287       1.28270831
Si      10.67239092       9.74377562       1.54850584
Si       4.97050153       3.98909592       1.89177781
Si       5.92861289       6.30892228       2.19798635
Si       7.43707443       9.12119218       5.10714034
Si       6.42501972       2.72896929      -1.54389780
Si       7.24493384       6.93672077       4.16407568
Si       4.32982931       1.25740115      -1.23030626
Si       8.11944767       4.73587301      -1.23198833
Si       4.49295314       5.35494972       4.11659188
Si       5.19833072       7.03991680       5.73557237
12
Lattice="6.772531378383894 2.207638185071422 -1.8225716564749501 4.1905461021205 7.069105966305016 0.7021946223089649 1.5056837111961636 1.654895015005271 5.482158181813629" Properties=species:S:1:pos:R:3 unique_starting_index=78 config_type=initial n_minim_iter=14 stress="-0.0026781203715464915 0.0016839346388732982 -0.00074358431562717 0.0016839346388732982 0.0026175741913049932 0.0011306569863434853 -0.00074358431562717 0.0011306569863434853 0.0003678866700934668" pbc="T T T"
Si       2.76599551       4.41459501       2.74233011
Si       7.80449299       4.92481466       1.26854819
Si      10.87445805       9.79144411       1.42273568
Si       5.04569654       4.05500184       1.97130092
Si       6.09816593       6.28777862       2.20085533
Si       7.64487442       9.09804545       5.16096854
Si       6.47128504       2.84041338      -1.57275529
Si       7.40585231       6.94082992       4.13762783
Si       4.30166094       1.37077242      -1.28133059
Si       8.18554355       4.87319546      -1.30476793
Si       4.60701607       5.28366932       4.18836863
Si       5.36774723       6.95796553       5.82122944
12
Lattice="6.910814237208236 2.161937509415299 -1.8229915927028184 4.265138794280087 6.936411488891071 0.7560866495028349 1.5444135845012796 1.6549646843219263 5.5474289286572676" Properties=species:S:1:pos:R:3 unique_starting_index=78 config_type=initial n_minim_iter=15 stress="0.011336147351311788 -0.0014837390736129805 0.0010839423559110013 -0.0014837390736129805 0.002518733573399802 0.0033430288918866935 0.0010839423559110013 0.0033430288918866935 0.013759430917379148" pbc="T T T"
Si       2.81715061       4.33191198       2.80130800
Si       7.98359817       4.83998590       1.29786685
Si      11.08667252       9.64086415       1.54655948
Si       5.13742509       3.98266649       2.04065172
Si       6.23425282       6.18134259       2.21473795
Si       7.78875087       8.99993839       5.29501484
Si       6.61185456       2.82007738      -1.59515749
Si       7.53226772       6.81096366       4.24064856
Si       4.38622773       1.33052348      -1.26812831
Si       8.37679584       4.77304627      -1.27606980
Si       4.66819923       5.17359624       4.26936699
Si       5.49171983       6.85279460       5.89565785
12
Lattice="6.92824084081162 2.2270309838981293 -1.8290202893463365 4.3132128348153795 6.945606092403994 0.6360697559280248 1.5656641379682534 1.5737112580562902 5.476172053892899" Properties=species:S:1:pos:R:3 unique_starting_index=78 config_type=initial n_minim_iter=16 stress="0.010309376196956512 -0.002310637798662017 -0.0016896423224782018 -0.002310637798662017 0.003714825680726111 -0.0017479830806224417 -0.0016896423224782018 -0.0017479830806224417 0.010241335929809242" pbc="T T T"
Si       2.82466928       4.34642114       2.73413720
Si       8.06829385       4.80697213       1.20229085
Si      11.15979892       9.65858321       1.39634507
Si       5.17285372       3.95185093       2.01842271
Si       6.31070936       6.21041346       2.09850370
Si       7.86094043       8.97074853       5.16124701
Si       6.63780780       2.86693694      -1.65209665
Si       7.57680664       6.81065187       4.04039556
Si       4.34763021       1.37918253      -1.27922672
Si       8.41100459       4.85320374      -1.36069945
Si       4.70016458       5.11887820       4.20512103
Si       5.57163366       6.75409470       5.70857557
12
Lattice="6.914692020099345 2.294556383880608 -1.7728030170344886 4.370983764248795 6.950677809207395 0.6190410230845674 1.6128823943490525 1.5577211012496253 5.425540025248673" Properties=species:S:1:pos:R:3 unique_starting_index=78 config_type=initial n_minim_iter=17 stress="0.0002830961835761424 -0.00019494689853413787 -0.001045380818074797 -0.00019494689853413787 -0.0035336524407283726 -0.0031753049374438984 -0.001045380818074797 -0.0031753049374438984 0.00012649862992132724" pbc="T T T"
Si       2.85238345       4.37538303       2.72532036
Si       8.14765061       4.81673274       1.19728899
Si      11.22533406       9.71480472       1.40829240
Si       5.20328350       3.96760754       2.06422241
Si       6.39861145       6.24970263       2.06147013
Si       7.95766013       9.01674540       5.16282415
Si       6.63225122       2.93171006      -1.63438659
Si       7.62867103       6.84371679       3.97189324
Si       4.28954934       1.41694925      -1.24557055
Si       8.42809950       4.93574094      -1.33740492
Si       4.73549798       5.09492149       4.21828839
Si       5.68855404       6.72170975       5.63163792
12
Lattice="6.86979972302122 2.2888085423563354 -1.7318919081164348 4.339947117744489 7.009687893890794 0.662213162238659 1.613269697461727 1.603110781595165 5.38642632400798" Properties=species:S:1:pos:R:3 unique_starting_index=78 config_type=initial n_minim_iter=18 stress="-0.00475592172348721 -0.0024459446114556164 0.0001189892021184939 -0.0024459446114556164 -0.0003126359720124889 0.0003356455143090284 0.0001189892021184939 0.0003356455143090284 -0.005637508524055767" pbc="T T T"
Si       2.83813592       4.43337852       2.72716859
Si       8.11578222       4.84027903       1.21754499
Si      11.15461503       9.79113321       1.48244764
Si       5.17356196       4.00608863       2.07222938
Si       6.36390452       6.31114193       2.07208557
Si       7.90816294       9.12525059       5.19490820
Si       6.58552438       2.93347797      -1.60262585
Si       7.57726379       6.91894724       3.99394514
Si       4.25696742       1.39558813      -1.21413584
Si       8.38174158       4.95639894      -1.28718622
Si       4.69479982       5.16187426       4.23524740
Si       5.66946541       6.80286617       5.62570495
12
Lattice="6.905796003711741 2.41171960389762 -1.6903844847156502 4.469426389268486 7.079167189065526 0.7108849283715358 1.6739300699809032 1.6544952354825253 5.423732674712722" Properties=species:S:1:pos:R:3 unique_starting_index=78 config_type=initial n_minim_iter=19 stress="-0.004520846483332066 0.002810853181277508 0.00427658216611365 0.002810853181277508 0.00097880432532686 0.003885896492317277 0.00427658216611365 0.003885896492317277 -0.003765579691422102" pbc="T T T"
Si       2.91616316       4.52056794       2.78972162
Si       8.26919423       4.96040590       1.25551334
Si      11.34720034       9.98569722       1.55310195
Si       5.25832438       4.14091488       2.14784191
Si       6.52222525       6.41634543       2.09099450
Si       8.10847180       9.30726804       5.32933308
Si       6.60816958       3.04436829      -1.55369533
Si       7.72078486       7.07693427       4.05505495
Si       4.23773202       1.44514928      -1.18701539
Si       8.46171842       5.12010869      -1.24385291
Si       4.77588275       5.24422239       4.34900485
Si       5.86645057       6.90292220       5.70483988
12
Lattice="6.945633846131783 2.4965716800519306 -1.7637404121836073 4.539424968496469 7.128663263385243 0.6610401207231371 1.6534199847922855 1.656440839931028 5.45097922801521" Properties=species:S:1:pos:R:3 unique_starting_index=78 config_type=initial n_minim_iter=20 stress="-0.0001614896214669737 0.0033963638517744764 -0.00018777515751045593 0.0033963638517744764 0.006808264306400452 0.004857818839009948 -0.00018777515751045593 0.004857818839009948 0.0006672049599613623" pbc="T T T"
Si       2.93150313       4.57997404       2.79203985
Si       8.36868303       5.01749320       1.15655248
Si      11.45171681      10.08979264       1.40942717
Si       5.29922640       4.24399835       2.10691512
Si       6.59809665       6.47041616       2.00561641
Si       8.17196196       9.38360025       5.31733916
Si       6.61161717       3.09068448      -1.60194147
Si       7.77122675       7.18404347       3.98936688
Si       4.23264192       1.45976466      -1.23382713
Si       8.50166015       5.23498133      -1.34865829
Si       4.77798920       5.31212969       4.39042864
Si       5.93578747       6.94091218       5.70292382
12
Lattice="7.012642424795359 2.541169457052914 -1.77504379632426 4.613849011939492 7.085248338886685 0.5809966411652888 1.6882092271286964 1.5837419785023277 5.444816111262726" Properties=species:S:1:pos:R:3 unique_starting_index=78 config_type=initial n_minim_iter=21 stress="0.0033007364386090487 0.0029199720012225696 0.000555462039230236 0.0029199720012225696 0.004506512975409709 0.0002771578502032066 0.000555462039230236 0.0002771578502032066 0.002572791146133505" pbc="T T T"
Si       2.97536459       4.54338728       2.76429803
Si       8.52025744       4.98103490       1.08455274
Si      11.61584408      10.02443217       1.30731810
Si       5.38693028       4.24485324       2.06971414
Si       6.70376714       6.42368770       1.89617530
Si       8.29091400       9.28953651       5.27659245
Si       6.63769545       3.08948077      -1.58979703
Si       7.87309869       7.15967801       3.90744358
Si       4.25701258       1.45946119      -1.23609708
Si       8.57551475       5.26257937      -1.40658058
Si       4.82023328       5.26948480       4.39729178
Si       6.07136062       6.84857793       5.61626304
