8
Lattice="6.346467815866541 1.4054710345929013 -1.6537521226248728e-14 0.7627385086016732 5.065649100125533 -8.597154493696237e-15 2.436804259320223e-14 1.4454717720294804e-14 10.677686782864495" Properties=species:S:1:pos:R:3 unique_starting_index=176 config_type=initial n_minim_iter=1 energy=-1300.1964327426058 free_energy=-1300.1964327426058 pbc="T T T"
Si       4.38192052       1.68724168       9.33157442
Si       2.72728582       4.78387846       9.33157442
Si       5.89772878       5.49772006       7.24225261
Si       1.21147756       0.97340008       7.24225261
Si       0.24447486       1.37559047       9.35606653
Si       6.86473148       5.09552967       9.35606653
Si       1.91131629       3.44475238       7.45005234
Si       5.19789004       3.02636776       7.45005234
8
Lattice="6.3755318343392995 1.4124043478694095 -1.661323928284962e-14 0.7700491871450148 5.073399521093539 -8.624331359294356e-15 2.4353259129756084e-14 1.4446070422069638e-14 10.671281041036998" Properties=species:S:1:pos:R:3 unique_starting_index=176 config_type=initial n_minim_iter=2 stress="0.0010994626600409469 -0.00013211441195974815 5.4751799409770263e-17 -0.00013211441195974815 0.001635368339275958 6.024362123506637e-17 5.4751799409770263e-17 6.024362123506637e-17 0.0008062130438078419" pbc="T T T"
Si       4.40144494       1.69388799       9.32630031
Si       2.74413610       4.79191589       9.32630031
Si       5.92754704       5.51012374       7.23761747
Si       1.21803400       0.97568013       7.23761747
Si       0.24616651       1.37537944       9.34994476
Si       6.89941452       5.11042443       9.34994476
Si       1.92258103       3.45213750       7.44605812
Si       5.22300001       3.03366637       7.44605812
8
Lattice="6.40089720481811 1.4192177159253843 -1.668036509594157e-14 0.7837569916978635 5.049823892002218 -8.623706135798915e-15 2.4229649906201578e-14 1.4373746274506383e-14 10.61770757253789" Properties=species:S:1:pos:R:3 unique_starting_index=176 config_type=initial n_minim_iter=3 stress="0.0006253155786281783 0.0007350288141376125 2.227882554596061e-17 0.0007350288141376125 -0.0005539113711253405 3.9197332163569794e-17 2.227882554596061e-17 3.9197332163569794e-17 -0.000995542014027286" pbc="T T T"
Si       4.41788799       1.69819931       9.28025808
Si       2.76676622       4.77084231       9.28025808
Si       5.95933868       5.49566439       7.20058433
Si       1.22531554       0.97337722       7.20058433
Si       0.24788128       1.36025368       9.30084629
Si       6.93677293       5.10878793       9.30084629
Si       1.93700862       3.44315338       7.41075379
Si       5.24764559       3.02588823       7.41075379
8
Lattice="6.39189570928048 1.404667080617908 -1.6640140419410963e-14 0.7716189395048005 5.047304848738108 -8.592600725557023e-15 2.427571381237741e-14 1.4400706004213662e-14 10.637686428267866" Properties=species:S:1:pos:R:3 unique_starting_index=176 config_type=initial n_minim_iter=4 stress="0.00042290412728936046 -0.0003165301742463803 4.35169495747168e-18 -0.0003165301742463803 -0.0003495610272669556 1.3992373017101248e-16 4.35169495747168e-18 1.3992373017101248e-16 -0.000613132459697248" pbc="T T T"
Si       4.40795583       1.69168110       9.29917008
Si       2.75555883       4.76029083       9.29917008
Si       5.94105640       5.48054173       7.21258097
Si       1.22245826       0.97143021       7.21258097
Si       0.24167269       1.35241243       9.31723679
Si       6.92184198       5.09955950       9.31723679
Si       1.92758751       3.44093182       7.42591135
Si       5.23592715       3.01104011       7.42591135
8
Lattice="6.377766452200023 1.4161965121256086 -1.6623507411647657e-14 0.7777878323717402 5.053335884327255 -8.614844493334388e-15 2.436785157466695e-14 1.445462076886234e-14 10.67763004611017" Properties=species:S:1:pos:R:3 unique_starting_index=176 config_type=initial n_minim_iter=5 stress="-0.0004105363637155224 0.0002707577334522327 3.473957638419432e-17 0.0002707577334522327 0.00045971201997681993 2.922800897708657e-17 3.473957638419432e-17 2.922800897708657e-17 -6.025295106888305e-05" pbc="T T T"
Si       4.39712103       1.70420999       9.33602891
Si       2.75843327       4.76532241       9.33602891
Si       5.93437895       5.49285522       7.23803556
Si       1.22117535       0.97667718       7.23803556
Si       0.24108703       1.34758953       9.35110880
Si       6.91446727       5.12194288       9.35110880
Si       1.92821608       3.44951141       7.45459528
Si       5.22733822       3.02002099       7.45459528
8
Lattice="6.383223997042501 1.4106770921611589 -1.6628488642210986e-14 0.7761191119750283 5.043939543494989 -8.598315265059233e-15 2.4393907625564083e-14 1.446986657941898e-14 10.688923830680952" Properties=species:S:1:pos:R:3 unique_starting_index=176 config_type=initial n_minim_iter=6 stress="0.00013305936135607436 -9.485538173661104e-05 2.8386408748647792e-18 -9.485538173661104e-05 -0.0001804636972088572 4.0074929998090997e-17 2.8386408748647792e-18 4.0074929998090997e-17 0.00038241864486752167" pbc="T T T"
Si       4.39939649       1.70084037       9.34650822
Si       2.75994663       4.75377627       9.34650822
Si       5.93716388       5.47874553       7.24548105
Si       1.22217924       0.97587111       7.24548105
Si       0.24045138       1.34459491       9.36065683
Si       6.91889174       5.11002173       9.36065683
Si       1.92851191       3.44267076       7.46242839
Si       5.23083121       3.01194588       7.46242839
8
Lattice="6.383735654853287 1.4064745923990074 -1.6623968121158592e-14 0.7735058066615437 5.040870913938363 -8.58819750223496e-15 2.434097294360193e-14 1.4438893637145513e-14 10.66597783381139" Properties=species:S:1:pos:R:3 unique_starting_index=176 config_type=initial n_minim_iter=7 stress="0.0002686822319368278 -0.0004446918669848424 -1.7743584431520545e-17 -0.0004446918669848424 -0.00015589639232810085 -4.352199954901266e-18 -1.7743584431520545e-17 -4.352199954901266e-18 -0.0001714655287805343" pbc="T T T"
Si       4.39658288       1.70300727       9.32769393
Si       2.76065860       4.74433824       9.32769393
Si       5.93495708       5.46702249       7.23061965
Si       1.22228439       0.98032302       7.23061965
Si       0.24007459       1.34515402       9.33883839
Si       6.91716689       5.10219149       9.33883839
Si       1.92724189       3.43970110       7.44619013
Si       5.22999959       3.00764441       7.44619013
8
Lattice="6.380959580378869 1.4122633011798849 -1.6625470386360496e-14 0.7776857105387279 5.041353686671252 -8.598390748894901e-15 2.4363324897114758e-14 1.445197257952489e-14 10.675668020391562" Properties=species:S:1:pos:R:3 unique_starting_index=176 config_type=initial n_minim_iter=8 stress="9.61949118543656e-05 -0.000115685627122625 4.183874589071943e-17 -0.000115685627122625 -7.605379944156825e-05 3.8659001203024754e-17 4.183874589071943e-17 3.8659001203024754e-17 -3.243519970873689e-05" pbc="T T T"
Si       4.39469132       1.70903595       9.33670069
Si       2.76395399       4.74458105       9.33670069
Si       5.93595346       5.47012273       7.23729259
Si       1.22269185       0.98349427       7.23729259
Si       0.24150940       1.34511691       9.34704767
Si       6.91713590       5.10850009       9.34704767
Si       1.92940901       3.44156509       7.45259403
Si       5.22923630       3.01205190       7.45259403
8
Lattice="6.378968577471579 1.415273359742108 -1.6625001245791288e-14 0.7796561669105366 5.042224460869047 -8.604066251560918e-15 2.4373680200620633e-14 1.4458031835468726e-14 10.680156808775195" Properties=species:S:1:pos:R:3 unique_starting_index=176 config_type=initial n_minim_iter=9 stress="-3.169987082411851e-05 5.885808990626958e-05 1.127847436008829e-16 5.885808990626958e-05 6.039303000162844e-06 2.2925088832820408e-17 1.127847436008829e-16 2.2925088832820408e-17 6.868304573940995e-06" pbc="T T T"
Si       4.39359622       1.71282796       9.34079658
Si       2.76502854       4.74466986       9.34079658
Si       5.93559819       5.47199882       7.24062878
Si       1.22302657       0.98549901       7.24062878
Si       0.24249858       1.34508927       9.35095487
Si       6.91612618       5.11240856       9.35095487
Si       1.93045742       3.44327404       7.45528733
Si       5.22816734       3.01422379       7.45528733
8
Lattice="6.3768347299518595 1.417652780707276 -1.662335081093421e-14 0.7810367432739409 5.043408377504577 -8.608818298011519e-15 2.4384959454825848e-14 1.4464632581656426e-14 10.685045166167505" Properties=species:S:1:pos:R:3 unique_starting_index=176 config_type=initial n_minim_iter=10 stress="-0.00014165130017195252 0.00020813286616126823 2.0878750556429488e-16 0.00020813286616126823 7.93042454935327e-05 4.517037379996764e-18 2.0878750556429488e-16 4.517037379996764e-18 4.2865289459678405e-05" pbc="T T T"
Si       4.39315783       1.71782374       9.34494892
Si       2.76471365       4.74323743       9.34494892
Si       5.93382061       5.47285735       7.24499012
Si       1.22405087       0.98820381       7.24499012
Si       0.24428891       1.34491260       9.35559986
Si       6.91358258       5.11614857       9.35559986
Si       1.93145930       3.44608305       7.45741035
Si       5.22641219       3.01497812       7.45741035
8
Lattice="6.378729035099646 1.4131075678380336 -1.662151923313675e-14 0.7776943336215244 5.043147184849513 -8.600835703421028e-15 2.4374540997767657e-14 1.4458537220427503e-14 10.68052787416832" Properties=species:S:1:pos:R:3 unique_starting_index=176 config_type=initial n_minim_iter=11 stress="3.482556584961474e-05 -3.601188570012214e-05 2.102726983503343e-16 -3.601188570012214e-05 -8.422684471213556e-06 1.0204164359085434e-17 2.102726983503343e-16 1.0204164359085434e-17 -1.2882903774529192e-05" pbc="T T T"
Si       4.39527888       1.71508196       9.34042604
Si       2.76114451       4.74117280       9.34042604
Si       5.93164369       5.46946686       7.24279531
Si       1.22477970       0.98678790       7.24279531
Si       0.24425716       1.34488995       9.35219932
Si       6.91216622       5.11136481       9.35219932
Si       1.92963547       3.44611775       7.45340689
Si       5.22678791       3.01013701       7.45340689
8
Lattice="6.375502006916561 1.4133864057806609 -1.6614529507823853e-14 0.7773237298549648 5.044074376769156 -8.601243423026643e-15 2.439001067408683e-14 1.446758962984542e-14 10.687232146117013" Properties=species:S:1:pos:R:3 unique_starting_index=176 config_type=initial n_minim_iter=12 stress="-4.125529200761528e-05 -9.02900029513088e-06 2.923190374389577e-16 -9.02900029513088e-06 -7.601114750646088e-05 4.916578776147229e-17 2.923190374389577e-16 4.916578776147229e-17 1.6421488811270273e-06" pbc="T T T"
Si       4.39343110       1.71729797       9.34716715
Si       2.75939466       4.74016282       9.34716715
Si       5.92574410       5.46989569       7.24902975
Si       1.22708165       0.98756509       7.24902975
Si       0.24478073       1.34585759       9.35755462
Si       6.90804502       5.11160320       9.35755462
Si       1.92489378       3.45029824       7.45603452
Si       5.22793197       3.00716255       7.45603452
8
Lattice="6.375195171376728 1.4143278431287878 -1.6615100995069964e-14 0.7774648551216152 5.046663764185146 -8.605069046844798e-15 2.438567226444057e-14 1.4465052008146133e-14 10.685349811739355" Properties=species:S:1:pos:R:3 unique_starting_index=176 config_type=initial n_minim_iter=13 stress="0.0001317814834147153 2.703869115751948e-05 3.0996009646396136e-16 2.703869115751948e-05 0.00017162096843713283 3.1597873911374704e-17 3.0996009646396136e-16 3.1597873911374704e-17 1.64445238400527e-05" pbc="T T T"
Si       4.39319231       1.71754797       9.34543294
Si       2.75946773       4.74344364       9.34543294
Si       5.92434042       5.47352039       7.24804169
Si       1.22831963       0.98747122       7.24804169
Si       0.24482935       1.34691020       9.35597867
Si       6.90783069       5.11408141       9.35597867
Si       1.92424885       3.45216790       7.45444831
Si       5.22841119       3.00882372       7.45444831
8
Lattice="6.367077270674049 1.4143278022694943 -1.65965727347354e-14 0.7762502435573883 5.047742726831864 -8.603756292834533e-15 2.4384365272464585e-14 1.4464288292279775e-14 10.684782039741664" Properties=species:S:1:pos:R:3 unique_starting_index=176 config_type=initial n_minim_iter=14 stress="5.0952655921064875e-05 8.057354387477886e-06 2.2527706940023326e-16 8.057354387477886e-06 2.660269860853755e-05 3.8829331427083297e-17 2.2527706940023326e-16 3.8829331427083297e-17 1.096589946321358e-06" pbc="T T T"
Si       4.38625825       1.71846470       9.34494630
Si       2.75706928       4.74360583       9.34494630
Si       5.91092344       5.47404289       7.24895150
Si       1.23240408       0.98802764       7.24895150
Si       0.24486782       1.34706232       9.35560471
Si       6.89845971       5.11500821       9.35560471
Si       1.92020818       3.45364646       7.45262417
Si       5.22311935       3.00842407       7.45262417
8
Lattice="6.362161904172129 1.414388676902898 -1.6585436803031305e-14 0.7754852082612574 5.048749152483543 -8.603372033077311e-15 2.438415192672811e-14 1.4464164362134434e-14 10.68468913313554" Properties=species:S:1:pos:R:3 unique_starting_index=176 config_type=initial n_minim_iter=15 stress="-6.397333308900642e-07 -6.322553513341396e-07 2.1435262821210106e-16 -6.322553513341396e-07 -1.9552835929735953e-05 8.45688103493055e-17 2.1435262821210106e-16 8.45688103493055e-17 -4.2810621601896426e-06" pbc="T T T"
Si       4.38193036       1.71907362       9.34473776
Si       2.75571676       4.74406422       9.34473776
Si       5.90333471       5.47490484       7.24960906
Si       1.23431242       0.98823300       7.24960906
Si       0.24495795       1.34727442       9.35572911
Si       6.89268917       5.11586341       9.35572911
Si       1.91780213       3.45471940       7.45176030
Si       5.21984500       3.00841844       7.45176030
8
Lattice="6.3447043701592785 1.4148012618107153 -1.654615437050046e-14 0.77281106603819 5.052837343789147 -8.602802503533257e-15 2.438298734531662e-14 1.4463485070286162e-14 10.684184231115097" Properties=species:S:1:pos:R:3 unique_starting_index=176 config_type=initial n_minim_iter=16 stress="-0.00012942255892035989 -1.873876635264156e-05 8.82567893975074e-17 -1.873876635264156e-05 -0.00012710129621051045 2.399376593886608e-17 8.82567893975074e-17 2.399376593886608e-17 -1.6215658664700174e-05" pbc="T T T"
Si       4.36571903       1.72150923       9.34330868
Si       2.75179642       4.74612938       9.34330868
Si       5.87740339       5.47920034       7.25182353
Si       1.24011206       0.98843827       7.25182353
Si       0.24566128       1.34819457       9.35654425
Si       6.87185417       5.11944404       9.35654425
Si       1.90917164       3.45886714       7.44858138
Si       5.20834381       3.00877147       7.44858138
8
Lattice="6.317321502579015 1.4162275980262018 -1.6485594892686024e-14 0.7686845059552931 5.061751388714234 -8.605451457243916e-15 2.4377426085272177e-14 1.4460234771021615e-14 10.681774603800605" Properties=species:S:1:pos:R:3 unique_starting_index=176 config_type=initial n_minim_iter=17 stress="4.7938888365618556e-05 1.3859450389910997e-05 -2.641469388154384e-17 1.3859450389910997e-05 1.2783348930201554e-05 7.756161706618924e-17 -2.641469388154384e-17 7.756161706618924e-17 1.5525377004322483e-05" pbc="T T T"
Si       4.33471618       1.72694659       9.33598572
Si       2.75128985       4.75103240       9.33598572
Si       5.84303632       5.49238224       7.25384399
Si       1.24296971       0.98559675       7.25384399
Si       0.24906293       1.35014432       9.35996388
Si       6.83694310       5.12783467       9.35996388
Si       1.89501680       3.46657395       7.44293142
Si       5.19098923       3.01140504       7.44293142
8
Lattice="6.3224457120863695 1.4157865625060684 -1.6496692751577977e-14 0.7692683994583834 5.06030606501596 -8.604827217379186e-15 2.4376418580711982e-14 1.4459646652976986e-14 10.681338451679284" Properties=species:S:1:pos:R:3 unique_starting_index=176 config_type=initial n_minim_iter=18 stress="4.295097928404418e-05 4.3991780502970705e-06 -4.2041130252711896e-18 4.3991780502970705e-06 1.2679803586124431e-05 9.349947368203126e-17 -4.2041130252711896e-18 9.349947368203126e-17 1.3703188912651616e-05" pbc="T T T"
Si       4.33965889       1.72564622       9.33569683
Si       2.75205524       4.75044641       9.33569683
Si       5.85096593       5.49060802       7.25237410
Si       1.24074819       0.98548462       7.25237410
Si       0.24865337       1.34973045       9.35934771
Si       6.84306076       5.12636218       9.35934771
Si       1.89768508       3.46452713       7.44394290
Si       5.19402904       3.01156550       7.44394290
8
Lattice="6.317358317097937 1.4150097884105253 -1.6484031666788523e-14 0.7676758664129779 5.061936651913678 -8.603400054861924e-15 2.436936299460083e-14 1.445551942352454e-14 10.678280429961967" Properties=species:S:1:pos:R:3 unique_starting_index=176 config_type=initial n_minim_iter=19 stress="-0.0002371219728005224 -3.21506796204509e-05 -3.0458905271414657e-17 -3.21506796204509e-05 -1.1373309221190951e-05 -2.2717968020115906e-17 -3.0458905271414657e-17 -2.2717968020115906e-17 -2.4558519021654825e-05" pbc="T T T"
Si       4.33525186       1.72486007       9.33109167
Si       2.74978233       4.75208637       9.33109167
Si       5.84509153       5.49171869       7.24936261
Si       1.23994266       0.98522776       7.24936261
Si       0.24868224       1.34990662       9.35841141
Si       6.83635196       5.12703982       9.35841141
Si       1.89451453       3.46369835       7.44293605
Si       5.19051967       3.01324810       7.44293605
8
Lattice="6.31346676768991 1.4156256737500579 -1.6475983750661023e-14 0.7673715329991353 5.063418764735188 -8.604711991813896e-15 2.43606714298664e-14 1.4450432808543892e-14 10.674512269095448" Properties=species:S:1:pos:R:3 unique_starting_index=176 config_type=initial n_minim_iter=20 stress="3.243040829401698e-05 2.914683222169552e-06 -1.119841720468112e-16 2.914683222169552e-06 -1.433873608333693e-05 5.557109289541007e-17 -1.119841720468112e-16 5.557109289541007e-17 1.354493347433879e-05" pbc="T T T"
Si       4.32986996       1.72787831       9.32538369
Si       2.75096835       4.75116614       9.32538369
Si       5.83691365       5.49298072       7.24745691
Si       1.24392466       0.98606373       7.24745691
Si       0.25063319       1.34948833       9.35749757
Si       6.83020513       5.12955612       9.35749757
Si       1.88899190       3.46560704       7.43968377
Si       5.19184641       3.01343741       7.43968377
8
Lattice="6.312769730219656 1.415518249935223 -1.6474246790121944e-14 0.7671100457788803 5.063834064333557 -8.604677553546934e-15 2.4360379598514737e-14 1.4450260760031164e-14 10.674385137716419" Properties=species:S:1:pos:R:3 unique_starting_index=176 config_type=initial n_minim_iter=21 stress="6.201561999247302e-06 6.927736189294513e-06 -1.3472139095433747e-16 6.927736189294513e-06 6.814298567431282e-07 8.420086934646091e-17 -1.3472139095433747e-16 8.420086934646091e-17 2.4016167438370675e-06" pbc="T T T"
Si       4.32957220       1.72795290       9.32543598
Si       2.75030759       4.75139943       9.32543598
Si       5.83531889       5.49308171       7.24762281
Si       1.24456090       0.98627061       7.24762281
Si       0.25073003       1.34957528       9.35724990
Si       6.82914976       5.12977704       9.35724990
Si       1.88820330       3.46608507       7.43931582
Si       5.19167649       3.01326725       7.43931582
