6
Lattice="4.0338072017527615 1.153321113423615 -2.669447853591434e-13 1.094977905295315 3.801916745162712 1.7529264625408624e-13 1.1228297480774746e-12 -9.221190413123379e-13 12.985615563543792" Properties=species:S:1:pos:R:3 unique_starting_index=22 config_type=initial n_minim_iter=14 energy=-976.117615070643 free_energy=-976.117615070643 pbc="T T T"
Si       3.71396216       2.27304927       0.37376066
Si       1.41482295       2.68218859       0.37376066
Si       3.42906414       3.26927051       8.09659708
Si       1.69972097       1.68596735       8.09659708
Si       1.69599568       1.69934284      10.78620248
Si       3.43278943       3.25589502      10.78620248
