8
Lattice="5.973084878067561 0.7513934106717496 -1.184281292854989 0.9518388010584575 5.843840194773197 -0.1275012937066009 -1.7751358876805645 -3.032339456751898 5.0206668940857" Properties=species:S:1:pos:R:3 unique_starting_index=118 config_type=initial n_minim_iter=1 energy=-1300.3532414526019 free_energy=-1300.3532414526019 pbc="T T T"
Si      -0.23532146      -0.50509828       3.11054394
Si       1.46826675       0.51554502       1.61888144
Si       2.01386237      -0.87205161       3.75677282
Si       1.02786045       1.91218959       4.05890359
Si       2.91302893       2.70445504       2.70511349
Si       0.54747848       3.14979574       2.04862008
Si       0.18371842       1.74549080       0.05717467
Si       0.73408592       4.09846272      -0.15190897
8
Lattice="6.077948892137516 0.6990306155601183 -1.2337286923568191 0.9099296427266098 5.903783925967074 -0.13206446069770778 -1.8127235990443527 -3.047783884021122 5.054025181263674" Properties=species:S:1:pos:R:3 unique_starting_index=118 config_type=initial n_minim_iter=2 stress="0.016773471260715052 -0.000593820110330409 0.0003533638580691833 -0.000593820110330409 0.014904376954405893 0.00011020966170601438 0.0003533638580691833 0.00011020966170601438 0.017871990407771408" pbc="T T T"
Si      -0.27039145      -0.49797537       3.11141187
Si       1.51145136       0.48304289       1.61649617
Si       2.02138047      -0.91228764       3.74959715
Si       1.01906462       1.93243751       4.11007181
Si       2.89771891       2.71931313       2.68401881
Si       0.50193829       3.18730060       2.06871934
Si       0.16178868       1.75089411       0.04490368
Si       0.70176951       4.15933543      -0.16483206
8
Lattice="6.0756158950310715 0.5595810784386359 -1.299472907604326 0.7828436894674248 5.828860369359741 -0.13766556033691285 -1.833703745400421 -2.9747811431399898 4.91268854692869" Properties=species:S:1:pos:R:3 unique_starting_index=118 config_type=initial n_minim_iter=3 stress="0.006983720720450252 -0.0037630984690536196 -0.001178026501570929 -0.0037630984690536196 0.0029763204283863305 -0.0007435463207184523 -0.001178026501570929 -0.0007435463207184523 0.0025475478566580677" pbc="T T T"
Si      -0.34497008      -0.45953690       2.97793287
Si       1.55973870       0.38461330       1.53557702
Si       1.94924756      -0.97309301       3.56478695
Si       0.95987821       1.91058669       4.05393548
Si       2.73827596       2.66244485       2.51600232
Si       0.37620095       3.15952604       2.02747801
Si       0.10874530       1.69815297       0.01557935
Si       0.60067339       4.15278442      -0.19014463
8
Lattice="6.008287361644856 0.569661484759443 -1.3122968420224785 0.7872857927700029 5.8177834505642085 -0.11929788448939817 -1.843692248135262 -2.9542428534058143 4.854598278552998" Properties=species:S:1:pos:R:3 unique_starting_index=118 config_type=initial n_minim_iter=4 stress="-0.004780602898737443 -0.002530198620851714 -0.003560359866142417 -0.002530198620851714 -0.0006560426592787676 0.0008908879328382766 -0.003560359866142417 0.0008908879328382766 -0.005611075920530799" pbc="T T T"
Si      -0.37892546      -0.42445790       2.92555411
Si       1.58768787       0.36330330       1.49962384
Si       1.88933703      -0.96712885       3.50390653
Si       0.96923698       1.93573397       4.07338426
Si       2.67067102       2.67645785       2.46031465
Si       0.35018650       3.16385901       2.03141167
Si       0.10847422       1.67612177       0.01387107
Si       0.59427917       4.16959549      -0.19145700
8
Lattice="5.94930216976077 0.6829437437672531 -1.226026221707697 0.8978317172184707 5.747817286051769 -0.1084316602014345 -1.8180694340211647 -2.947015783507264 4.824322618065798" Properties=species:S:1:pos:R:3 unique_starting_index=118 config_type=initial n_minim_iter=5 stress="-0.006418246606906018 0.00168377919279178 -0.0016321743035705642 0.00168377919279178 -0.0047093103842908105 -0.003154838519180203 -0.0016321743035705642 -0.003154838519180203 -0.01096891068865222" pbc="T T T"
Si      -0.37926192      -0.37898883       2.89234202
Si       1.67699415       0.36711141       1.48602259
Si       1.88358216      -0.93223397       3.53211369
Si       1.12046886       1.94580345       4.17857620
Si       2.70946755       2.66886246       2.45472054
Si       0.40007408       3.12205156       2.05086723
Si       0.14860204       1.63454385       0.02279776
Si       0.65772501       4.14194284      -0.20592744
8
Lattice="5.89360154994816 0.7422464797668462 -1.1581999825598008 0.9604119766969428 5.711839824571051 -0.05618545267856308 -1.775331464915063 -2.908984005421464 4.8448171139364025" Properties=species:S:1:pos:R:3 unique_starting_index=118 config_type=initial n_minim_iter=6 stress="-0.00495300694294596 0.004998781079302217 8.688008693876238e-05 0.004998781079302217 -0.00023067186936211957 -0.0012579345274649591 8.688008693876238e-05 -0.0012579345274649591 -0.005504626810400368" pbc="T T T"
Si      -0.35765127      -0.33345735       2.91437935
Si       1.71055532       0.40267911       1.51239163
Si       1.89766752      -0.87380490       3.61023409
Si       1.21444906       1.98067747       4.29641194
Si       2.74984558       2.67246833       2.52353040
Si       0.43809257       3.11192239       2.10724928
Si       0.17735988       1.62094502       0.05175129
Si       0.69720495       4.11448543      -0.17782009
8
Lattice="5.863948485696688 0.7180626013684632 -1.1049507752631387 0.9515037355416659 5.62432380846167 -0.007740575120720295 -1.7119672460657807 -2.8287286502313544 4.883207252602458" Properties=species:S:1:pos:R:3 unique_starting_index=118 config_type=initial n_minim_iter=7 stress="0.001993177802576848 0.004125540682821814 0.002554691063119525 0.004125540682821814 0.0010748393552893476 0.00021641565177965804 0.002554691063119525 0.00021641565177965804 0.002236167960701902" pbc="T T T"
Si      -0.33926298      -0.28140124       2.94307501
Si       1.74236297       0.42105022       1.54515956
Si       1.93112833      -0.83135208       3.69865646
Si       1.27629270       1.97888083       4.41554611
Si       2.77056070       2.61508320       2.59190766
Si       0.42823714       3.07403789       2.16354283
Si       0.18769014       1.59729097       0.08472635
Si       0.68903243       4.04491534      -0.15064762
8
Lattice="5.770662747492763 0.6126878237987354 -1.0841002436934937 0.8597109324316123 5.496051049349533 0.04509763643819999 -1.618919620694807 -2.702931085886514 4.934288270511111" Properties=species:S:1:pos:R:3 unique_starting_index=118 config_type=initial n_minim_iter=8 stress="0.003644926431128736 0.00014147210112578745 0.0013424758328651218 0.00014147210112578745 -0.0013781296012329314 0.0007421096771315978 0.0013424758328651218 0.0007421096771315978 0.011027974124631483" pbc="T T T"
Si      -0.34564208      -0.19401621       2.95821036
Si       1.76589140       0.43411314       1.57098255
Si       1.93384626      -0.79386567       3.79464851
Si       1.29115800       1.94916786       4.55768668
Si       2.71763842       2.48234785       2.62998610
Si       0.33226342       3.01533907       2.22410557
Si       0.18439525       1.55971867       0.13780401
Si       0.62493859       3.94505013      -0.12407945
8
Lattice="5.788638049019974 0.5380443658640428 -1.0957369350001172 0.7757699299840788 5.601579808066717 0.041313095253165885 -1.6256511091460082 -2.7380794371968715 4.763188936493989" Properties=species:S:1:pos:R:3 unique_starting_index=118 config_type=initial n_minim_iter=9 stress="0.002476066737721344 -0.005023097496663373 0.001283357223014041 -0.005023097496663373 0.0019236609708133438 0.00027825405185123313 0.001283357223014041 0.00027825405185123313 -0.000897135769587408" pbc="T T T"
Si      -0.38214828      -0.18041705       2.82666357
Si       1.77252855       0.42584937       1.51427354
Si       1.91511137      -0.83219155       3.63866177
Si       1.23498924       1.94988593       4.38070212
Si       2.66512900       2.48251237       2.50076105
Si       0.24141109       3.07558048       2.14579111
Si       0.16035452       1.57854956       0.13718133
Si       0.57037441       4.03032047      -0.11749906
8
Lattice="5.738307217644779 0.6251338638192292 -1.109468001895494 0.8544710972246954 5.605769343811651 0.05014186106498369 -1.6794565203541016 -2.74939912701256 4.690393849689561" Properties=species:S:1:pos:R:3 unique_starting_index=118 config_type=initial n_minim_iter=10 stress="-0.005797071161409905 2.5891362837396243e-05 -0.0037160593956204685 2.5891362837396243e-05 -0.001954382894071424 -0.0027719356302429634 -0.0037160593956204685 -0.0027719356302429634 -0.004484688217455826" pbc="T T T"
Si      -0.42971203      -0.14572840       2.73871170
Si       1.80523333       0.46871877       1.48375959
Si       1.84409202      -0.78357325       3.58063533
Si       1.26338675       1.94695273       4.34704195
Si       2.65471595       2.50094971       2.41950393
Si       0.21991433       3.08151956       2.13205864
Si       0.18868513       1.55855219       0.15473904
Si       0.63035577       4.04835663      -0.11324217
8
Lattice="5.7486482472214995 0.7786349044071459 -1.0683095217508405 1.012992893104934 5.682588408152952 0.13707618700752108 -1.7694711800958804 -2.75291044815844 4.4682147001952455" Properties=species:S:1:pos:R:3 unique_starting_index=118 config_type=initial n_minim_iter=11 stress="-0.009342158768962045 0.006808225886727345 -0.005626984518323514 0.006808225886727345 0.002205824566870018 0.005160333226595668 -0.005626984518323514 0.005160333226595668 -0.005992581617140389" pbc="T T T"
Si      -0.48877958      -0.08956054       2.53982342
Si       1.89904924       0.57634506       1.46462729
Si       1.78696656      -0.65017523       3.44846670
Si       1.35373201       1.96564320       4.22106194
Si       2.71563108       2.63376655       2.32070427
Si       0.20799247       3.16591499       2.13313342
Si       0.22635163       1.54596047       0.18980199
Si       0.77043842       4.12808644      -0.03307341
8
Lattice="5.755925151148847 0.8273277441350397 -1.0056209093818915 1.0721697460190847 5.663926543566163 0.1843278232514195 -1.7751922319776055 -2.7227270157497347 4.328331865320076" Properties=species:S:1:pos:R:3 unique_starting_index=118 config_type=initial n_minim_iter=12 stress="-0.000703266875182331 0.005203887342052393 -0.0016148875315510555 0.005203887342052393 -0.004619126569725539 0.003867436361563658 -0.0016148875315510555 0.003867436361563658 -0.008772845280723795" pbc="T T T"
Si      -0.52936730      -0.03619786       2.39517552
Si       2.01737674       0.61328313       1.45479423
Si       1.77656840      -0.58187814       3.39077565
Si       1.46158860       1.93420993       4.19411068
Si       2.74248253       2.65782156       2.24920817
Si       0.16264203       3.18088919       2.14081359
Si       0.23699913       1.50931970       0.21008661
Si       0.83146871       4.14200539       0.00443356
8
Lattice="5.739860831067997 0.8663775615540309 -0.971125235003974 1.103727116455293 5.686803282040775 0.18194011039888872 -1.7664047689170546 -2.7485918415413435 4.2859080454606415" Properties=species:S:1:pos:R:3 unique_starting_index=118 config_type=initial n_minim_iter=13 stress="0.01261636971209635 0.006248730172039408 0.0024279574832280146 0.006248730172039408 0.0006158161289382041 0.0005397277986591031 0.0024279574832280146 0.0005397277986591031 0.0018113908924313191" pbc="T T T"
Si      -0.55959771      -0.03031186       2.29940728
Si       2.11625103       0.59886878       1.45068655
Si       1.75781219      -0.57020026       3.38986973
Si       1.54756382       1.87196029       4.21751648
Si       2.73911698       2.72681278       2.20505174
Si       0.12659894       3.21255367       2.16318571
Si       0.22300849       1.48284507       0.19945964
Si       0.87825581       4.19307169       0.00396607
8
Lattice="5.611582112334785 0.8249733946715858 -0.9521872969360046 1.0423032140527144 5.720190830348518 0.20277266889321244 -1.7087396086244657 -2.7405556446780617 4.203269331882852" Properties=species:S:1:pos:R:3 unique_starting_index=118 config_type=initial n_minim_iter=14 stress="0.0034360463462875315 0.00500042971061228 0.0023579569684636418 0.00500042971061228 -0.006569108659063903 0.00025652258556980464 0.0023579569684636418 0.00025652258556980464 -0.0013640140706903067" pbc="T T T"
Si      -0.60616355       0.01386041       2.16490798
Si       2.18834086       0.57909411       1.42350023
Si       1.69173816      -0.55915212       3.36610593
Si       1.58312347       1.79029230       4.22132215
Si       2.64190436       2.76980164       2.12971082
Si       0.00483394       3.26815578       2.18742076
Si       0.19277101       1.45318995       0.20659944
Si       0.86086894       4.25324474       0.02022714
8
Lattice="5.518594581293868 0.7035507651008004 -0.9734419975683474 0.9004316136724254 5.763814417073937 0.1865104397358672 -1.6341982277986389 -2.7459393649107544 4.215639146843661" Properties=species:S:1:pos:R:3 unique_starting_index=118 config_type=initial n_minim_iter=15 stress="-0.001288885120913986 0.0006274853946961441 -0.0006989722558926544 0.0006274853946961441 0.0005995989499789496 -0.0015651941038103588 -0.0006989722558926544 -0.0015651941038103588 0.0018766157155094576" pbc="T T T"
Si      -0.62708038       0.02724115       2.13061216
Si       2.19665955       0.50269036       1.39541120
Si       1.64960791      -0.62247600       3.37699944
Si       1.55311081       1.71892259       4.25258817
Si       2.51888365       2.78298460       2.10290216
Si      -0.10501087       3.31788847       2.20516454
Si       0.15008425       1.45026125       0.19566833
Si       0.76586636       4.30108864       0.00236938
8
Lattice="5.479420637693433 0.5556261526857791 -0.9591646328016992 0.7538186152298992 5.720375308577858 0.18244359680866468 -1.522801438880988 -2.698451540575595 4.309608299017803" Properties=species:S:1:pos:R:3 unique_starting_index=118 config_type=initial n_minim_iter=16 stress="0.00997266685456388 -0.004484652516655104 -0.0010726866128047293 -0.004484652516655104 0.010465132051011369 -0.006207768007914926 -0.0010726866128047293 -0.006207768007914926 0.013749558158718056" pbc="T T T"
Si      -0.58496968       0.01765121       2.21779924
Si       2.14954543       0.44875768       1.40257018
Si       1.68160802      -0.68775369       3.47160039
Si       1.52692583       1.67572693       4.33920478
Si       2.45590993       2.73781465       2.20158331
Si      -0.12891864       3.29971585       2.23237642
Si       0.13524541       1.46557275       0.19726694
Si       0.64756229       4.24146134      -0.01252189
8
Lattice="5.37367016831533 0.44747933074813157 -0.8666357111555523 0.6523835561013795 5.686259076137196 0.2778033502875672 -1.3860784019313601 -2.5918158704455996 4.239158332098525" Properties=species:S:1:pos:R:3 unique_starting_index=118 config_type=initial n_minim_iter=17 stress="0.0036888814053613016 -0.006007399750671429 -0.0007178110950109308 -0.006007399750671429 0.007872811714752074 -0.0021668239095626726 -0.0007178110950109308 -0.0021668239095626726 0.006247168138978371" pbc="T T T"
Si      -0.57531015       0.08310684       2.17070114
Si       2.19397360       0.44480891       1.38206690
Si       1.67488932      -0.66663789       3.50795045
Si       1.61457798       1.63797574       4.42828127
Si       2.38053136       2.77389593       2.27917214
Si      -0.18969204       3.33516419       2.29232065
Si       0.14304090       1.45341406       0.23560142
Si       0.57054864       4.21100311       0.03848235
8
Lattice="5.310193957149178 0.40610756918930846 -0.7651764596775209 0.6296137080024529 5.594215026456033 0.370651006132456 -1.2789452559569727 -2.4751868343911467 4.2222910834166" Properties=species:S:1:pos:R:3 unique_starting_index=118 config_type=initial n_minim_iter=18 stress="-0.0001370396487684404 -0.0045548442793931524 0.002624564317920091 -0.0045548442793931524 -0.0005693182935565172 0.004321810093045353 0.002624564317920091 0.004321810093045353 -0.00249374796750352" pbc="T T T"
Si      -0.52906760       0.12229757       2.20643984
Si       2.19738140       0.47699316       1.38193733
Si       1.70332751      -0.62869474       3.57596442
Si       1.70639104       1.65138767       4.54483989
Si       2.37791867       2.79195411       2.42471911
Si      -0.14820932       3.30893515       2.35139363
Si       0.17890704       1.44831355       0.27594115
Si       0.53641166       4.11714087       0.08018106
8
Lattice="5.310012051466679 0.45301123598311643 -0.7522722357152581 0.6782775612118612 5.565438786407296 0.3679252731346335 -1.2880628070201507 -2.4754805864674974 4.241236322625548" Properties=species:S:1:pos:R:3 unique_starting_index=118 config_type=initial n_minim_iter=19 stress="-0.0013204231956658158 -0.0009261063557914903 0.0029943935855411474 -0.0009261063557914903 -0.003928251063275676 0.0028178318861965144 0.0029943935855411474 0.0028178318861965144 -0.0013659739230345838" pbc="T T T"
Si      -0.51009137       0.10925967       2.24479856
Si       2.18068928       0.51300996       1.37512204
Si       1.70400203      -0.62522214       3.58933551
Si       1.72369506       1.65305031       4.55891582
Si       2.40683619       2.80558472       2.47198742
Si      -0.09105639       3.27423061       2.34839393
Si       0.20571225       1.45348501       0.27910907
Si       0.56109474       4.08245653       0.06444056
8
Lattice="5.33291668538727 0.5679071503243525 -0.7845389776436199 0.7822358416763813 5.60459906933751 0.32826195850760204 -1.3795462298417573 -2.547466062045756 4.199468503916653" Properties=species:S:1:pos:R:3 unique_starting_index=118 config_type=initial n_minim_iter=20 stress="-0.012208680715258264 0.0056212716410975975 -0.00019066587406577827 0.0056212716410975975 -0.007541533747827049 -0.0014721158173083924 -0.00019066587406577827 -0.0014721158173083924 -0.006603322535889183" pbc="T T T"
Si      -0.54588991       0.09354509       2.21932942
Si       2.21219890       0.58613432       1.30570572
Si       1.63420991      -0.64896855       3.50096315
Si       1.74419086       1.60263484       4.49724129
Si       2.41631349       2.89441007       2.44530130
Si      -0.05385584       3.26094436       2.30636883
Si       0.24406535       1.45950430       0.26407006
Si       0.62535771       4.11614127       0.00286513
8
Lattice="5.4500259838909155 0.5521114489842683 -0.8724005382915863 0.7731663823102737 5.675127463517487 0.301627946246719 -1.4805462274072487 -2.5883453444708926 4.171698612720465" Properties=species:S:1:pos:R:3 unique_starting_index=118 config_type=initial n_minim_iter=21 stress="0.0056992430866309755 0.0009211570089377579 -0.002055054089898738 0.0009211570089377579 0.00684132290307524 -0.003299197129963412 -0.002055054089898738 -0.003299197129963412 0.0010772226622373202" pbc="T T T"
Si      -0.60025889       0.09428735       2.19561420
Si       2.24043631       0.58886881       1.27339997
Si       1.61636980      -0.67510183       3.39852431
Si       1.67475688       1.59658797       4.40788805
Si       2.40600856       2.90336917       2.37049797
Si      -0.10550588       3.29166588       2.27678061
Si       0.21447099       1.46752021       0.24360006
Si       0.62425343       4.18415320      -0.01779900
