20
Lattice="5.467442567263526 6.7469045844181086e-15 1.17387696119131e-13 -2.733721283631769 4.734944156982619 2.3477539223825983e-13 -4.886299776728859e-13 -1.4105532457178032e-12 22.758401671488144" Properties=species:S:1:pos:R:3 unique_starting_index=168 config_type=initial n_minim_iter=1 energy=-3249.754873949821 free_energy=-3249.754873949821 pbc="T T T"
Si       0.86454202       1.16234978      21.46430165
Si       4.02854712       0.16754046      21.46430165
Si       3.30807471       3.40505391      21.46430165
Si       4.28731342       2.26583394      15.16649002
Si       1.36151611       2.58000536      15.16649002
Si       2.55233433      -0.11089515      15.16649002
Si       2.73249463       3.05038225      10.71740710
Si       1.45948673       0.84121864      10.71740710
Si       4.00918249       0.84334326      10.71740710
Si       4.07935915       1.05131698      19.15394430
Si       2.51729578       3.00717016      19.15394430
Si       1.60450893       0.67645701      19.15394430
Si      -1.49175403       3.87527031      17.17352111
Si       0.12351576       1.50541211      17.17352111
Si       1.36823827       4.08920588      17.17352111
Si       2.93884871       3.05717974      13.09018892
Si       1.35042290       1.01652776      13.09018892
Si       3.91189225       0.66123665      13.09018892
Si       0.00000000      -0.00000000      15.11590139
Si       0.00000000       3.15662944      12.83304837
20
Lattice="5.518726464963264 1.9859048530611972e-14 1.184887773879183e-13 -2.7593632324816495 4.77935731519567 2.3697755477583235e-13 -4.728366856996881e-13 -1.3649619388572216e-12 22.022814214998146" Properties=species:S:1:pos:R:3 unique_starting_index=168 config_type=initial n_minim_iter=2 stress="0.0014003077989171245 4.9227585758795997e-17 1.2835485915512412e-16 4.9227585758795997e-17 0.001400307798917369 4.387710136271188e-16 1.2835485915512412e-16 4.387710136271188e-16 -0.006289295667616421" pbc="T T T"
Si       0.87530711       1.16915520      20.76549741
Si       4.06855481       0.17346059      20.76549741
Si       3.33422778       3.43674153      20.76549741
Si       4.32054810       2.28737654      14.67726998
Si       1.37752622       2.59801613      14.67726998
Si       2.58001539      -0.10603537      14.67726998
Si       2.75770805       3.09216435      10.36606397
Si       1.46197957       0.84216304      10.36606397
Si       4.05840209       0.84502992      10.36606397
Si       4.12708531       1.05273433      18.53449655
Si       2.54348914       3.04779355      18.53449655
Si       1.60751526       0.67882943      18.53449655
Si      -1.50259949       3.90787834      16.62367784
Si       0.12634106       1.52412881      16.62367784
Si       1.37625844       4.12670748      16.62367784
Si       2.97032343       3.09635779      12.67103017
Si       1.35204024       1.02419665      12.67103017
Si       3.95572602       0.65880287      12.67103017
Si       0.00000000      -0.00000000      14.62569863
Si       0.00000000       3.18623821      12.42047325
20
Lattice="5.53317439803271 5.932277928348785e-14 1.1879897901433694e-13 -2.7665871990164077 4.791869592265968 2.3759795802866354e-13 -4.798140077297184e-13 -1.3851037326185226e-12 22.347789563639154" Properties=species:S:1:pos:R:3 unique_starting_index=168 config_type=initial n_minim_iter=3 stress="0.010496707295381618 4.252822431386338e-17 4.696074240469544e-17 4.252822431386338e-17 0.010496707295382098 1.8189876979301306e-16 4.696074240469544e-17 1.8189876979301306e-16 0.006417007712555827" pbc="T T T"
Si       0.88535413       1.15254281      21.05673813
Si       4.09236599       0.19046776      21.05673813
Si       3.32204149       3.44885902      21.05673813
Si       4.29890306       2.29819745      14.89731076
Si       1.39342549       2.57386053      14.89731076
Si       2.60743305      -0.08018840      14.89731076
Si       2.76145325       3.16134130      10.48251069
Si       1.41464590       0.81081801      10.48251069
Si       4.12366245       0.81971028      10.48251069
Si       4.18087314       1.02010329      18.79912161
Si       2.55930247       3.11069070      18.79912161
Si       1.55958600       0.66107560      18.79912161
Si      -1.48971994       3.89686195      16.89320014
Si       0.13666573       1.55330330      16.89320014
Si       1.35305422       4.13357393      16.89320014
Si       2.99873515       3.15130706      12.89063353
Si       1.30469486       1.02132728      12.89063353
Si       3.99633160       0.61923525      12.89063353
Si       0.00000000      -0.00000000      14.83210685
Si       0.00000000       3.19457973      12.61398382
20
Lattice="5.422967556585021 9.617943343745211e-14 1.1643280377702238e-13 -2.7114837782925947 4.696427667901403 2.328656075540278e-13 -4.77892339083549e-13 -1.379556353067728e-12 22.25828603555576" Properties=species:S:1:pos:R:3 unique_starting_index=168 config_type=initial n_minim_iter=4 stress="-0.0027288460786410534 2.6566147859966084e-17 -1.8799517065951052e-16 2.6566147859966084e-17 -0.0027288460786407524 -3.246654765263368e-16 -1.8799517065951052e-16 -3.246654765263368e-16 -0.0005367266043925583" pbc="T T T"
Si       0.87195551       1.11821546      20.96384997
Si       4.01858680       0.19602788      20.96384997
Si       3.24390903       3.38218431      20.96384997
Si       4.19463030       2.25525338      14.84005395
Si       1.37254569       2.50502970      14.84005395
Si       2.56727535      -0.06385542      14.84005395
Si       2.70461612       3.13219701      10.42015704
Si       1.35809732       0.77616776      10.42015704
Si       4.07173790       0.78806289      10.42015704
Si       4.12135613       0.97997093      18.71816281
Si       2.51360977       3.07921364      18.71816281
Si       1.49948544       0.63724309      18.71816281
Si      -1.45062415       3.80703640      16.83882539
Si       0.13980562       1.53663210      16.83882539
Si       1.31081854       4.04918683      16.83882539
Si       2.95080838       3.11462783      12.85682603
Si       1.25021654       0.99816109      12.85682603
Si       3.93342642       0.58363874      12.85682603
Si       0.00000000      -0.00000000      14.76911004
Si       0.00000000       3.13095178      12.57030977
20
Lattice="5.477537206799751 8.185486997467883e-14 1.1760443117647244e-13 -2.738768603399948 4.743686371262999 2.352088623529308e-13 -4.758721943483011e-13 -1.373724697534239e-12 22.16419589082429" Properties=species:S:1:pos:R:3 unique_starting_index=168 config_type=initial n_minim_iter=5 stress="0.004735968274748104 4.256794280096554e-17 -3.530624721621618e-17 4.256794280096554e-17 0.004735968274748449 6.530853846262592e-17 -3.530624721621618e-17 6.530853846262592e-17 0.001230509853801675" pbc="T T T"
Si       0.89149935       1.13956102      20.88551400
Si       4.04489874       0.20228057      20.88551400
Si       3.27990772       3.40184478      20.88551400
Si       4.22548291       2.28024367      14.78953545
Si       1.39004681       2.51925370      14.78953545
Si       2.60077610      -0.05581101      14.78953545
Si       2.73341852       3.16060843      10.38037756
Si       1.37366075       0.78690566      10.38037756
Si       4.10922654       0.79617228      10.38037756
Si       4.16030619       0.99084244      18.62642249
Si       2.53928938       3.10750963      18.62642249
Si       1.51671024       0.64533430      18.62642249
Si      -1.46603826       3.83807968      16.75685766
Si       0.14791324       1.55502015      16.75685766
Si       1.31812504       4.09427291      16.75685766
Si       2.97978063       3.14382267      12.78623563
Si       1.26501659       1.00865439      12.78623563
Si       3.97150859       0.59120931      12.78623563
Si       0.00000000      -0.00000000      14.73631783
Si       0.00000000       3.16245758      12.52617142
20
Lattice="5.4192375472705505 8.928535154697359e-14 1.1635271931439694e-13 -2.7096187736353556 4.693197385078726 2.32705438628779e-13 -4.763635523531316e-13 -1.375143125916025e-12 22.1870813529314" Properties=species:S:1:pos:R:3 unique_starting_index=168 config_type=initial n_minim_iter=6 stress="0.0005946900249097984 1.0528305204530844e-16 -1.160993534839015e-16 1.0528305204530844e-16 0.0005946900249101006 3.3366145995591924e-17 -1.160993534839015e-16 3.3366145995591924e-17 -0.00080639906106491" pbc="T T T"
Si       0.91116420       1.13136766      20.91854706
Si       3.98386231       0.22340751      20.91854706
Si       3.23382981       3.33842221      20.91854706
Si       4.12994196       2.26326122      14.83173986
Si       1.39422485       2.44500404      14.83173986
Si       2.60468951      -0.01506789      14.83173986
Si       2.70585598       3.16144310      10.37412544
Si       1.32841952       0.76261846      10.37412544
Si       4.09458083       0.76913582      10.37412544
Si       4.13911281       0.95668841      18.61247806
Si       2.52116468       3.10623263      18.61247806
Si       1.46857884       0.63027633      18.61247806
Si      -1.44172035       3.76528294      16.76765076
Si       0.16964827       1.56198947      16.76765076
Si       1.27207208       4.05912236      16.76765076
Si       2.96131270       3.14003252      12.78680439
Si       1.21923327       0.99455576      12.78680439
Si       3.94831036       0.55860910      12.78680439
Si       0.00000000      -0.00000000      14.81202581
Si       0.00000000       3.12879825      12.57127840
20
Lattice="5.367877823549556 5.6216074157573804e-14 1.152500100372963e-13 -2.6839389117748267 4.648718559605006 2.3050002007458343e-13 -4.829480467179256e-13 -1.394150923885981e-12 22.49376038288217" Properties=species:S:1:pos:R:3 unique_starting_index=168 config_type=initial n_minim_iter=7 stress="-0.0012705659530652831 1.9789411049923028e-16 -4.025823440902992e-16 1.9789411049923028e-16 -0.0012705659530652831 -3.2097603147505715e-16 -4.025823440902992e-16 -3.2097603147505715e-16 0.002367811893657802" pbc="T T T"
Si       0.92840926       1.12233223      21.21954235
Si       3.93170497       0.24285988      21.21954235
Si       3.19170251       3.28352644      21.21954235
Si       4.05706841       2.24025183      15.04605091
Si       1.39922863       2.39339839      15.04605091
Si       2.59551970       0.01506833      15.04605091
Si       2.68389424       3.11772572      10.51789804
Si       1.32590103       0.76545773      10.51789804
Si       4.04202147       0.76553510      10.51789804
Si       4.09200115       0.94257849      18.85407350
Si       2.50558033       3.07248770      18.85407350
Si       1.45423526       0.63365236      18.85407350
Si      -1.43548653       3.71343571      16.98759176
Si       0.18575252       1.54883290      16.98759176
Si       1.24973401       4.03516850      16.98759176
Si       2.93423239       3.11328041      12.93988760
Si       1.20458170       0.98447958      12.93988760
Si       3.91300265       0.55095856      12.93988760
Si       0.00000000      -0.00000000      15.06850574
Si       0.00000000       3.09914570      12.78220820
20
Lattice="5.361618359924124 3.0982913093702915e-14 1.1511561740218446e-13 -2.6808091799620883 4.643297705091333 2.3023123480436376e-13 -4.810396667433799e-13 -1.3886419054258827e-12 22.404875787202343" Properties=species:S:1:pos:R:3 unique_starting_index=168 config_type=initial n_minim_iter=8 stress="-0.00227396370483485 3.3573710681945166e-16 -5.051638013789413e-16 3.3573710681945166e-16 -0.0022739637048347482 -1.7220921115695157e-16 -5.051638013789413e-16 -1.7220921115695157e-16 -0.0024218423731949285" pbc="T T T"
Si       0.96021739       1.10404113      21.13341343
Si       3.92538201       0.27955208      21.13341343
Si       3.15682815       3.25970449      21.13341343
Si       4.01670396       2.22783053      14.97102978
Si       1.42390855       2.36465240      14.97102978
Si       2.60181504       0.05081477      14.97102978
Si       2.68544740       3.08055939      10.47239650
Si       1.35105197       0.78538597      10.47239650
Si       4.00592817       0.77735234      10.47239650
Si       4.06576947       0.93520068      18.77964859
Si       2.51882608       3.05345930      18.77964859
Si       1.45783200       0.65463771      18.77964859
Si      -1.45187276       3.69737106      16.92804727
Si       0.20472829       1.53725347      16.92804727
Si       1.24714447       4.05197087      16.92804727
Si       2.92939573       3.11380650      12.87570303
Si       1.20028496       0.98002787      12.87570303
Si       3.91274685       0.54946333      12.87570303
Si       0.00000000      -0.00000000      15.03226568
Si       0.00000000       3.09553180      12.78993000
20
Lattice="5.354349980160431 2.2626044897121717e-14 1.149595630231058e-13 -2.6771749900802377 4.637003103571633 2.2991912604620823e-13 -4.824407038547965e-13 -1.3926863511929872e-12 22.470130410936477" Properties=species:S:1:pos:R:3 unique_starting_index=168 config_type=initial n_minim_iter=9 stress="-0.0027568177446124493 2.969424169615392e-16 -6.082092648943686e-16 2.969424169615392e-16 -0.0027568177446122967 -1.1438096021383036e-16 -6.082092648943686e-16 -1.1438096021383036e-16 -0.0036609523465589338" pbc="T T T"
Si       1.00575576       1.07748799      21.18947749
Si       3.91834013       0.33226603      21.18947749
Si       3.10742909       3.22724907      21.18947749
Si       3.95872694       2.21562685      15.00310776
Si       1.45619737       2.32054467      15.00310776
Si       2.61660066       0.10083158      15.00310776
Si       2.68672712       3.06150209      10.48585952
Si       1.35964784       0.79602289      10.48585952
Si       3.98515002       0.77947812      10.48585952
Si       4.04831244       0.91544767      18.82808900
Si       2.53739283       3.04821758      18.82808900
Si       1.44581971       0.67333785      18.82808900
Si      -1.46318385       3.66895305      16.99132466
Si       0.23136037       1.53537220      16.99132466
Si       1.23182348       4.06968096      16.99132466
Si       2.92948724       3.13464491      12.90356849
Si       1.17492424       0.96968791      12.90356849
Si       3.92711350       0.53267028      12.90356849
Si       0.00000000      -0.00000000      15.10496378
Si       0.00000000       3.09133540      12.90616758
20
Lattice="5.368931485330819 1.5085943485307513e-14 1.1527263248416367e-13 -2.684465742665424 4.649631057474606 2.3054526496832533e-13 -4.857782084616181e-13 -1.402320897108837e-12 22.625577833102888" Properties=species:S:1:pos:R:3 unique_starting_index=168 config_type=initial n_minim_iter=10 stress="-0.0003201173773707809 2.806787751454099e-16 -5.700906749739099e-16 2.806787751454099e-16 -0.0003201173773706803 -9.929428000137776e-17 -5.700906749739099e-16 -9.929428000137776e-17 -0.0006807763109490882" pbc="T T T"
Si       1.05352287       1.05174233      21.32679552
Si       3.93133447       0.38650639      21.32679552
Si       3.06853989       3.21138232      21.32679552
Si       3.93080905       2.21480297      15.09579411
Si       1.48545132       2.29677900      15.09579411
Si       2.63713686       0.13804908      15.09579411
Si       2.69840452       3.06305308      10.54027761
Si       1.36704745       0.80536032      10.54027761
Si       3.98794527       0.78121766      10.54027761
Si       4.04736972       0.90316481      18.95806261
Si       2.56308296       3.05354258      18.95806261
Si       1.44294456       0.69292366      18.95806261
Si      -1.47453711       3.65819831      17.12351857
Si       0.25364163       1.54354531      17.12351857
Si       1.22089548       4.09751849      17.12351857
Si       2.93964669       3.17299110      12.98589872
Si       1.15121725       0.95931316      12.98589872
Si       3.96253330       0.51732680      12.98589872
Si       0.00000000      -0.00000000      15.22311477
Si       0.00000000       3.09975404      13.07498501
20
Lattice="5.394399341880566 -2.0736726762378272e-15 1.1581943530260784e-13 -2.69719967094028 4.671686868226629 2.316388706052165e-13 -4.886349230148212e-13 -1.4105675216902859e-12 22.75863200544862" Properties=species:S:1:pos:R:3 unique_starting_index=168 config_type=initial n_minim_iter=11 stress="0.003487917828897155 3.378269535911982e-16 -5.733616777492982e-16 3.378269535911982e-16 0.003487917828897056 -1.3894550323471467e-16 -5.733616777492982e-16 -1.3894550323471467e-16 0.002501465897318956" pbc="T T T"
Si       1.10034221       1.02707052      21.44248644
Si       3.95475907       0.43938904      21.44248644
Si       3.03649774       3.20522730      21.44248644
Si       3.93972611       2.22687115      15.18063033
Si       1.49600930       2.29846731      15.18063033
Si       2.65586361       0.14634840      15.18063033
Si       2.71490857       3.08248259      10.58802449
Si       1.36743683       0.80993849      10.58802449
Si       4.00925362       0.77926578      10.58802449
Si       4.05195316       0.90453760      19.07586971
Si       2.58507022       3.05682557      19.07586971
Si       1.45457563       0.71032369      19.07586971
Si      -1.47647367       3.65871319      17.23060436
Si       0.26689794       1.56366656      17.23060436
Si       1.20957574       4.12099398      17.23060436
Si       2.95061270       3.21918244      13.05118487
Si       1.13119922       0.94571433      13.05118487
Si       4.00978710       0.50679009      13.05118487
Si       0.00000000      -0.00000000      15.31145349
Si       0.00000000       3.11445791      13.23187585
20
Lattice="5.378126400813695 -2.1793792003515603e-14 1.1547005018563083e-13 -2.689063200406827 4.657594087868442 2.3094010037126574e-13 -4.916235443356599e-13 -1.4191949283107461e-12 22.897829859799593" Properties=species:S:1:pos:R:3 unique_starting_index=168 config_type=initial n_minim_iter=12 stress="0.002554507556834906 2.32804560268085e-16 -3.970999039690961e-16 2.32804560268085e-16 0.0025545075568347573 -2.320352404215699e-16 -3.970999039690961e-16 -2.320352404215699e-16 0.0037776601255416417" pbc="T T T"
Si       1.14055408       1.00213618      21.57326736
Si       3.93997397       0.48668072      21.57326736
Si       2.98666155       3.16877719      21.57326736
Si       3.92108394       2.22553984      15.28025704
Si       1.49021039       2.28298838      15.28025704
Si       2.65589528       0.14906586      15.28025704
Si       2.71092138       3.07706780      10.64534625
Si       1.35784682       0.80919288      10.64534625
Si       3.99842140       0.77133340      10.64534625
Si       4.02265700       0.90525073      19.19066012
Si       2.58282777       3.03109778      19.19066012
Si       1.46170483       0.72124557      19.19066012
Si      -1.46354696       3.62916972      17.33065425
Si       0.27788351       1.57554038      17.33065425
Si       1.18566345       4.11047807      17.33065425
Si       2.93651464       3.23219919      13.10639003
Si       1.11070248       0.92699667      13.10639003
Si       4.01997249       0.49839822      13.10639003
Si       0.00000000      -0.00000000      15.42320920
Si       0.00000000       3.10506272      13.39329564
20
Lattice="5.373147726056534 -3.654312262501573e-14 1.153631564867425e-13 -2.686573863028236 4.653282429051571 2.307263129734916e-13 -4.900992480491869e-13 -1.4147946639541465e-12 22.826834323833655" Properties=species:S:1:pos:R:3 unique_starting_index=168 config_type=initial n_minim_iter=13 stress="0.001887539506700266 2.1694422671543194e-16 -3.063947996641059e-16 2.1694422671543194e-16 0.001887539506700316 -1.2565850562012112e-16 -3.063947996641059e-16 -1.2565850562012112e-16 0.0006146701356223178" pbc="T T T"
Si       1.14181006       0.99569155      21.50666043
Si       3.93994852       0.49099074      21.50666043
Si       2.97796301       3.16660014      21.50666043
Si       3.95465013       2.23325557      15.24118231
Si       1.46176660       2.30819969      15.24118231
Si       2.64330486       0.11182716      15.24118231
Si       2.70827648       3.08495193      10.61875091
Si       1.34736274       0.80296026      10.61875091
Si       4.00408237       0.76537023      10.61875091
Si       4.01049960       0.92217034      19.13732964
Si       2.56927499       3.01210936      19.13732964
Si       1.47994701       0.71900273      19.13732964
Si      -1.44537540       3.62929768      17.26856038
Si       0.26619758       1.58690177      17.26856038
Si       1.17917783       4.09036540      17.26856038
Si       2.92544919       3.22448312      13.05436217
Si       1.11793884       0.92127175      13.05436217
Si       4.01633357       0.50752755      13.05436217
Si       0.00000000      -0.00000000      15.35970313
Si       0.00000000       3.10218828      13.36320960
20
Lattice="5.3517749982841085 -4.480232455710412e-14 1.149042773595961e-13 -2.675887499142013 4.6347731038524795 2.2980855471919997e-13 -4.908012791174481e-13 -1.4168212530853473e-12 22.859532082398225" Properties=species:S:1:pos:R:3 unique_starting_index=168 config_type=initial n_minim_iter=14 stress="-0.00038865409386622474 3.6284703600869865e-16 -4.46480597472042e-16 3.6284703600869865e-16 -0.0003886540938664754 -4.913850834144203e-16 -4.46480597472042e-16 -4.913850834144203e-16 0.00010733538067226474" pbc="T T T"
Si       1.14551719       0.98965868      21.54081174
Si       3.92194685       0.49721764      21.54081174
Si       2.96019847       3.14789678      21.54081174
Si       3.93465761       2.22402384      15.26763614
Si       1.45838505       2.29550152      15.26763614
Si       2.63461985       0.11524773      15.26763614
Si       2.69831754       3.07184660      10.63490976
Si       1.34231903       0.80088823      10.63490976
Si       3.98702593       0.76203826      10.63490976
Si       3.99295211       0.91969278      19.15779477
Si       2.55882164       2.99815157      19.15779477
Si       1.47588875       0.71692875      19.15779477
Si      -1.43721455       3.61086651      17.29288830
Si       0.26739264       1.58467553      17.29288830
Si       1.16982191       4.07400415      17.29288830
Si       2.91290823       3.20647757      13.06332944
Si       1.11842985       0.91941374      13.06332944
Si       3.99632442       0.50888179      13.06332944
Si       0.00000000      -0.00000000      15.39556944
Si       0.00000000       3.08984873      13.39300576
20
Lattice="5.325061623640947 -7.188170819119545e-14 1.1433073287945599e-13 -2.6625308118204116 4.611638642790708 2.2866146575892465e-13 -4.907506904530514e-13 -1.41667521619031e-12 22.857175867681615" Properties=species:S:1:pos:R:3 unique_starting_index=168 config_type=initial n_minim_iter=15 stress="-0.0035481484591008776 3.2830887672786434e-16 -4.644882521206445e-16 3.2830887672786434e-16 -0.003548148459101384 -7.621928992318457e-16 -4.644882521206445e-16 -7.621928992318457e-16 -0.0026167284028376357" pbc="T T T"
Si       1.15315009       0.96779881      21.53739694
Si       3.91034822       0.51475786      21.53739694
Si       2.92409413       3.12908196      21.53739694
Si       3.91447667       2.20580408      15.27114638
Si       1.45754091       2.28713419      15.27114638
Si       2.61557485       0.11870036      15.27114638
Si       2.68520199       3.05788569      10.63325443
Si       1.33425394       0.79651028      10.63325443
Si       3.96813652       0.75724266      10.63325443
Si       3.97739527       0.91864624      19.14018340
Si       2.54079301       2.98520222      19.14018340
Si       1.46940416       0.70779018      19.14018340
Si      -1.41756381       3.58945839      17.31054595
Si       0.26275057       1.58926317      17.31054595
Si       1.15481325       4.04455572      17.31054595
Si       2.89601157       3.16185384      13.04481367
Si       1.13881009       0.92709266      13.04481367
Si       3.95277078       0.52269213      13.04481367
Si       0.00000000      -0.00000000      15.41066866
Si       0.00000000       3.07442576      13.40504611
20
Lattice="5.345324775158107 -1.1443361161184177e-13 1.1476578905854408e-13 -2.6726623875789555 4.629187046765324 2.295315781171085e-13 -4.939655270957939e-13 -1.4259556501957498e-12 23.00690991382465" Properties=species:S:1:pos:R:3 unique_starting_index=168 config_type=initial n_minim_iter=16 stress="-4.682045443955974e-05 2.7056939355277894e-16 -5.103447608640899e-16 2.7056939355277894e-16 -4.682045444005899e-05 -8.211675264252365e-16 -5.103447608640899e-16 -8.211675264252365e-16 0.0006680398726862705" pbc="T T T"
Si       1.18697607       0.92481273      21.65995880
Si       3.95092542       0.56554505      21.65995880
Si       2.88008568       3.13882925      21.65995880
Si       3.94566308       2.20643579      15.37710692
Si       1.46166379       2.31382656      15.37710692
Si       2.61066030       0.10892469      15.37710692
Si       2.69550701       3.08602161      10.68931515
Si       1.32499816       0.79136674      10.68931515
Si       3.99748200       0.75179870      10.68931515
Si       3.99744635       0.93228470      19.26101731
Si       2.53921936       2.99574773      19.26101731
Si       1.48132145       0.70115460      19.26101731
Si      -1.39247756       3.59738876      17.45881222
Si       0.25347112       1.62457172      17.45881222
Si       1.13900645       4.03641361      17.45881222
Si       2.90177401       3.15840800      13.11385437
Si       1.15917621       0.93380601      13.11385437
Si       3.95703694       0.53697303      13.11385437
Si       0.00000000      -0.00000000      15.50486812
Si       0.00000000       3.08612470      13.53650963
20
Lattice="5.361501094867437 -1.6901624627692863e-13 1.1511309968485327e-13 -2.6807505474335707 4.643196150573361 2.302261993697361e-13 -4.934886051097498e-13 -1.424578895010623e-12 22.98469682289628" Properties=species:S:1:pos:R:3 unique_starting_index=168 config_type=initial n_minim_iter=17 stress="0.0015616152250855742 1.1027740160764117e-16 -1.559346228907278e-16 1.1027740160764117e-16 0.001561615225085276 -3.989152053101597e-16 -1.559346228907278e-16 -3.989152053101597e-16 0.00018199503464016097" pbc="T T T"
Si       1.21945989       0.88153550      21.61927690
Si       3.98833901       0.61531548      21.61927690
Si       2.83445275       3.14634516      21.61927690
Si       3.96320790       2.19866600      15.38947667
Si       1.47579653       2.33290572      15.38947667
Si       2.60324721       0.11162442      15.38947667
Si       2.70257372       3.10965275      10.66318602
Si       1.31717596       0.78567112      10.66318602
Si       4.02250197       0.74787228      10.66318602
Si       4.02393027       0.95123111      19.23008677
Si       2.52574565       3.00921028      19.23008677
Si       1.49257572       0.68275476      19.23008677
Si      -1.35971632       3.59990894      17.47429531
Si       0.24299611       1.66569280      17.47429531
Si       1.11672021       4.02079055      17.47429531
Si       2.90757367       3.14797617      13.07968024
Si       1.18148692       0.94404457      13.07968024
Si       3.95319105       0.55117540      13.07968024
Si       0.00000000      -0.00000000      15.50620168
Si       0.00000000       3.09546410      13.53674359
20
Lattice="5.362856183579386 -2.6755299957146675e-13 1.1514219386187313e-13 -2.681428091789458 4.644369691822337 2.3028438772379286e-13 -4.955915531636244e-13 -1.4306495831356036e-12 23.082643610222462" Properties=species:S:1:pos:R:3 unique_starting_index=168 config_type=initial n_minim_iter=18 stress="0.0017311846265077367 2.0966895360396935e-16 -7.346738376306179e-17 2.0966895360396935e-16 0.0017311846265073412 -2.2680152167215944e-16 -7.346738376306179e-17 -2.2680152167215944e-16 0.0013639886573694597" pbc="T T T"
Si       1.26630928       0.82604975      21.68620089
Si       4.01432147       0.68363112      21.68620089
Si       2.76365353       3.13468881      21.68620089
Si       3.96030094       2.17580832      15.48367382
Si       1.49840043       2.34181705      15.48367382
Si       2.58558291       0.12674431      15.48367382
Si       2.70443474       3.09391867      10.69157272
Si       1.33122665       0.79514985      10.69157272
Si       4.00862289       0.75530117      10.69157272
Si       4.01683928       0.98137303      19.31120157
Si       2.50454257       2.98799834      19.31120157
Si       1.52290243       0.67499832      19.31120157
Si      -1.33334883       3.58939307      17.57395447
Si       0.23959692       1.69495919      17.57395447
Si       1.09375192       4.00438712      17.57395447
Si       2.90140101       3.14025438      13.10558315
Si       1.19261561       0.94255978      13.10558315
Si       3.95026766       0.56155552      13.10558315
Si       0.00000000      -0.00000000      15.59612316
Si       0.00000000       3.09624646      13.62792586
20
Lattice="5.355651739075624 -2.6987220080903595e-13 1.1498751219275405e-13 -2.677825869537575 4.638130459861928 2.299750243855552e-13 -4.943507651985908e-13 -1.4270677368075069e-12 23.0248527414921" Properties=species:S:1:pos:R:3 unique_starting_index=168 config_type=initial n_minim_iter=19 stress="0.0006224565816863205 1.1631019185798595e-16 1.1670655827286506e-16 1.1631019185798595e-16 0.0006224565816858733 -2.956944491795681e-16 1.1670655827286506e-16 -2.956944491795681e-16 0.00040471515354182383" pbc="T T T"
Si       1.25159325       0.83184077      21.63088867
Si       4.00945988       0.66799116      21.63088867
Si       2.77242449       3.13829852      21.63088867
Si       3.95750354       2.16843111      15.45166454
Si       1.49898354       2.34308304      15.45166454
Si       2.57699053       0.12661630      15.45166454
Si       2.69938663       3.08101006      10.66593636
Si       1.33772544       0.79723236      10.66593636
Si       3.99636554       0.75988803      10.66593636
Si       4.01284726       0.98855263      19.26657818
Si       2.49311642       2.98095135      19.26657818
Si       1.52751393       0.66862647      19.26657818
Si      -1.33875887       3.58996332      17.52362296
Si       0.23820587       1.68374960      17.52362296
Si       1.10055301       4.00254799      17.52362296