18
Lattice="4.797306383852966 0.0 0.0 0.0 11.020171326153383 -6.912347240146464e-16 0.0 5.734506979327013e-16 9.133941977023836" Properties=species:S:1:pos:R:3 unique_starting_index=36 config_type=initial n_minim_iter=13 energy=-2925.064829552625 free_energy=-2925.064829552625 pbc="T T T"
Si       4.08411149      10.55288245       8.00755695
Si       0.71319490      10.55288245       1.12638503
Si       3.11184809      10.55288245       3.44058596
Si       1.68545829      10.55288245       5.69335602
Si       0.39644623       1.94909397       1.47874134
Si       4.40086016       1.94909397       7.65520064
Si       2.00220697       1.94909397       6.04571232
Si       2.79509942       1.94909397       3.08822965
Si       1.59341576       8.37851098       1.95237391
Si       3.20389063       8.37851098       7.18156807
Si       0.80523744       8.37851098       6.51934490
Si       3.99206895       8.37851098       2.61459708
Si       3.08855718       0.68414207       0.98896376
Si       1.70874921       0.68414207       8.14497821
Si      -0.68990399       0.68414207       5.55593475
Si       5.48721037       0.68414207       3.57800722
Si       0.00000000       8.33452673      -0.00000000
Si       2.39865319       8.33452673       4.56697099
