14
Lattice="7.008031855791121 2.2798077849890226 -0.33312135409386157 -0.79716050740098 7.326293037310476 0.3331205813653849 -3.9945017797381173 -4.228220019864626 4.519912338995373" Properties=species:S:1:pos:R:3 unique_starting_index=10 config_type=initial n_minim_iter=10 energy=-2278.772122895334 free_energy=-2278.772122895334 pbc="T T T"
Si       2.42960564       4.96921036       2.61347764
Si      -0.46018093       0.02673092       1.90643395
Si       0.97456906       3.09557064       2.36028652
Si       4.63926453       7.53702888       2.15962462
Si      -0.25918887      -2.96706087       3.99982961
Si      -0.38293237       3.92383081       0.52008231
Si       1.19584771      -1.09342115       4.25302073
Si       0.72849351       6.01963366       0.26689087
Si       4.21493439       6.51906673      -0.00000052
Si      -2.46274010      -1.85910684       4.51991215
Si       1.15282365       7.03759582       2.42651602
Si      -2.37487498       1.58144855       2.42651646
Si       3.23290175       1.69553898       2.09339528
Si       2.93201680       4.53483054      -0.00000036
