20
Lattice="10.807457818164462 -1.9293154983734875 7.971177493248649 -4.468135646982951 7.310199349610629 -2.320132687958286 3.2095658132713973 -2.60147347791864 7.891678902436525" Properties=species:S:1:pos:R:3 unique_starting_index=76 config_type=initial n_minim_iter=1 energy=-3256.5642416346677 free_energy=-3256.5642416346677 pbc="T T T"
Si      10.04245523      -1.06750179      11.92118335
Si       2.59493931      -1.01835077       7.18147849
Si       5.60976277      -0.47697593       4.59905174
Si       1.29810970       1.09049540       2.83414965
Si       7.13318642       2.99732243       6.01282190
Si       9.01014146       0.79784895      10.80285784
Si      -0.44828327       4.19010918       4.36897819
Si       1.80636794       0.47184005       5.42362547
Si       8.11616662      -1.39725683       7.52452575
Si       5.20420743      -2.03817377       8.51402132
Si       5.99155326      -0.41910377       6.94952665
Si       3.75779653       3.85973442       4.05118002
Si       3.70004656       2.19643288       5.67264966
Si       1.61088902       2.35444220       7.08824937
Si      -0.80179281       3.41768151       0.81367635
Si       1.64613560       3.38348655       3.18823324
Si       3.58668198       0.51001244       3.80705300
Si       5.46332183       1.83997434       7.18821789
Si       4.39182704       2.06804502       9.22033816
Si       2.87269601       4.49537221       7.05159832
20
Lattice="10.763452123994107 -1.9441218330108048 7.966780588286636 -4.466880842639606 7.304560095466551 -2.310830873951788 3.184241656821846 -2.598714946449188 7.909441897099091" Properties=species:S:1:pos:R:3 unique_starting_index=76 config_type=initial n_minim_iter=2 stress="-0.0011842835116472336 -0.0006754274300450389 -0.0016280615384282053 -0.0006754274300450389 -0.0008591293733485058 2.9409887200628985e-05 -0.0016280615384282053 2.9409887200628985e-05 0.0015562521457580315" pbc="T T T"
Si       9.98572009      -1.08031170      11.93539654
Si       2.56924143      -1.02006848       7.19894832
Si       5.58504612      -0.48575645       4.59846580
Si       1.28609092       1.08876661       2.84035783
Si       7.09129859       2.97726979       6.01310025
Si       8.95526026       0.78352458      10.81957292
Si      -0.46836765       4.18481825       4.39057196
Si       1.78549249       0.46964590       5.43905355
Si       8.07850328      -1.40806914       7.52810465
Si       5.17073289      -2.03948655       8.52880418
Si       5.96142636      -0.42543551       6.95485858
Si       3.73027582       3.84875888       4.05551550
Si       3.67057827       2.18620777       5.68599152
Si       1.58163617       2.35101844       7.10866882
Si      -0.80787078       3.41290024       0.82018290
Si       1.62213262       3.37669504       3.19693515
Si       3.56551558       0.50428538       3.81000147
Si       5.42490366       1.82885418       7.19651426
Si       4.34948006       2.06282645       9.24394710
Si       2.83211585       4.48416751       7.07241834
20
Lattice="10.804445201132667 -1.945073342393377 7.985269501267281 -4.485827700203435 7.310857010430901 -2.312850523414657 3.212123078121501 -2.5949770028491126 7.907665278498781" Properties=species:S:1:pos:R:3 unique_starting_index=76 config_type=initial n_minim_iter=3 stress="0.00011373823754660171 -0.0009341796994703689 -2.3588895169389954e-05 -0.0009341796994703689 -0.0006856370623250027 2.1160431163537803e-05 -2.3588895169389954e-05 2.1160431163537803e-05 0.001172914121723158" pbc="T T T"
Si      10.03377350      -1.07712566      11.95262834
Si       2.59234400      -1.02139562       7.19679640
Si       5.60876814      -0.48639905       4.60787256
Si       1.29951886       1.09463625       2.83915363
Si       7.11329374       2.97327859       6.02250500
Si       8.99697008       0.78939639      10.84273327
Si      -0.45758728       4.19020509       4.39386439
Si       1.80368658       0.47229660       5.44083768
Si       8.11341039      -1.40925509       7.54420029
Si       5.20110244      -2.03289265       8.53359961
Si       5.99907923      -0.41869555       6.95769634
Si       3.74888904       3.85832998       4.06170506
Si       3.69137689       2.18726876       5.69803790
Si       1.60363806       2.35893296       7.10259392
Si      -0.80514974       3.41473913       0.81838817
Si       1.62096036       3.38528229       3.20131709
Si       3.57928218       0.50795725       3.81450071
Si       5.44980743       1.83338055       7.19993966
Si       4.38005850       2.07778969       9.25211940
Si       2.84390681       4.49099609       7.08052243
20
Lattice="10.779961525212459 -1.917316024167615 7.950103334652651 -4.460565739745242 7.313567361931633 -2.2970298195513776 3.195482446498938 -2.587240984422649 7.878366740462862" Properties=species:S:1:pos:R:3 unique_starting_index=76 config_type=initial n_minim_iter=4 stress="-0.0016820763748284695 0.0005729862806575845 -0.0008448213679670029 0.0005729862806575845 -0.0006717508837332573 0.00019319663124871088 -0.0008448213679670029 0.00019319663124871088 -0.001849308723203287" pbc="T T T"
Si      10.00876483      -1.04750792      11.90838910
Si       2.58061957      -1.01703782       7.17066158
Si       5.59777748      -0.47080704       4.58833379
Si       1.30143018       1.10470038       2.82805149
Si       7.10483327       2.99505272       5.99467059
Si       8.97869604       0.82088309      10.80859222
Si      -0.44787645       4.19891134       4.38703525
Si       1.79929531       0.47937644       5.42396342
Si       8.09378063      -1.38913216       7.51595124
Si       5.18123253      -2.01578427       8.50173461
Si       5.99242611      -0.39704878       6.92630184
Si       3.75219503       3.88197241       4.04609524
Si       3.68843417       2.20218306       5.68187586
Si       1.60305157       2.37189060       7.07566858
Si      -0.79312679       3.41867063       0.81698715
Si       1.61782753       3.40192655       3.19266682
Si       3.57174509       0.52188437       3.79884197
Si       5.43956536       1.85488792       7.17066004
Si       4.37289144       2.10463175       9.22223109
Si       2.83858175       4.51092695       7.06131103
20
Lattice="10.79872760181211 -1.9153962914121374 7.965411662498061 -4.46465709936806 7.3279180649332005 -2.3012235372640677 3.2015872745639187 -2.5908336911821994 7.891305367836337" Properties=species:S:1:pos:R:3 unique_starting_index=76 config_type=initial n_minim_iter=5 stress="0.0008478408039424957 0.0009288654734721371 -0.0008143495689202703 0.0009288654734721371 0.0019794992230976207 -0.0001344929513879529 -0.0008143495689202703 -0.0001344929513879529 0.0008533489911975954" pbc="T T T"
Si      10.02795391      -1.04437160      11.93089745
Si       2.58627093      -1.02065144       7.18224499
Si       5.60842035      -0.46838149       4.59673966
Si       1.30663881       1.11042497       2.83198211
Si       7.11849775       3.00212392       6.00290681
Si       8.99698201       0.82892888      10.83210013
Si      -0.44362317       4.20759322       4.39693866
Si       1.80470723       0.48039123       5.43390262
Si       8.10839888      -1.38891601       7.53207409
Si       5.18988338      -2.01454325       8.51614563
Si       6.00895678      -0.39206449       6.93618726
Si       3.76170006       3.89556191       4.05262118
Si       3.69743104       2.20830228       5.69328632
Si       1.60961104       2.37812224       7.08412572
Si      -0.79017876       3.42491595       0.81729851
Si       1.61906813       3.41320430       3.19918608
Si       3.57813867       0.52649479       3.80529826
Si       5.44999225       1.86218800       7.18202338
Si       4.38409980       2.11644207       9.23817735
Si       2.84262129       4.52257035       7.07523499
20
Lattice="10.832407231206513 -1.927084812983253 8.001953844653695 -4.488048522297909 7.321954568053887 -2.3111865492745 3.2337851090462193 -2.5865892831145785 7.9022316830858035" Properties=species:S:1:pos:R:3 unique_starting_index=76 config_type=initial n_minim_iter=6 stress="0.0003148509387446542 -0.0002456455925867161 0.0013311713468583887 -0.0002456455925867161 -0.00035337508940274065 -0.0006067206392163236 0.0013311713468583887 -0.0006067206392163236 9.272757989458123e-05" pbc="T T T"
Si      10.07386410      -1.05545531      11.96910655
Si       2.61269181      -1.02699721       7.19194916
Si       5.62754586      -0.47386919       4.61520035
Si       1.31784547       1.11474370       2.83615766
Si       7.13251007       2.97660095       6.02168608
Si       9.03575986       0.81958620      10.87486348
Si      -0.43364677       4.20127149       4.40773234
Si       1.82430701       0.47592888       5.44419100
Si       8.13918004      -1.40097190       7.56604777
Si       5.22074587      -2.00746021       8.53271279
Si       6.04753619      -0.39253573       6.95184311
Si       3.76751023       3.88975348       4.06705287
Si       3.71301784       2.19846777       5.71014703
Si       1.63042885       2.37353082       7.08482844
Si      -0.78875539       3.41747879       0.81514601
Si       1.61411921       3.41232822       3.21064690
Si       3.58906595       0.52485564       3.81777951
Si       5.46856606       1.85215002       7.20087150
Si       4.41282217       2.12073134       9.25580195
Si       2.84503932       4.51183798       7.09442415
20
Lattice="10.851222781839539 -1.9084901551643432 7.978110370447323 -4.502820510176636 7.3226822360330175 -2.2775363408679694 3.2376529954553472 -2.5613847635561875 7.880989733251577" Properties=species:S:1:pos:R:3 unique_starting_index=76 config_type=initial n_minim_iter=7 stress="0.001511416488556619 -0.0005802843394821923 0.0007903040080164838 -0.0005802843394821923 -0.0003039886186443038 0.0017551207142562492 0.0007903040080164838 0.0017551207142562492 -0.00031606586488987226" pbc="T T T"
Si      10.09011860      -1.02243311      11.94394971
Si       2.61495846      -1.00817541       7.17876694
Si       5.63655792      -0.45946182       4.60348613
Si       1.31828844       1.13096091       2.83628484
Si       7.14091279       2.98717378       6.01619692
Si       9.04970902       0.85430481      10.86282135
Si      -0.43979100       4.21992009       4.42523531
Si       1.82530465       0.49099205       5.43991117
Si       8.15266580      -1.38475554       7.55144026
Si       5.22581596      -1.97430270       8.50854961
Si       6.06417934      -0.36927158       6.93562419
Si       3.76381289       3.90636207       4.07527773
Si       3.71390826       2.21767912       5.70610254
Si       1.62637615       2.39670683       7.07959023
Si      -0.79106893       3.42128141       0.82684784
Si       1.60870730       3.43013347       3.22158026
Si       3.59279589       0.53895348       3.81346735
Si       5.47086192       1.87422914       7.19699715
Si       4.41424291       2.15848681       9.24661063
Si       2.83235081       4.53772218       7.10465221
20
Lattice="10.836644572530004 -1.9312080696583904 7.943602410480913 -4.502440664002496 7.358392984221314 -2.2720264764457947 3.2236077674286037 -2.582493459604127 7.862303970083272" Properties=species:S:1:pos:R:3 unique_starting_index=76 config_type=initial n_minim_iter=8 stress="0.0011339014068195061 -0.0008066612101308996 -0.000499368121584599 -0.0008066612101308996 0.000446590181176748 -0.00030832672439198643 -0.000499368121584599 -0.00030832672439198643 -0.0010080372461354077" pbc="T T T"
Si      10.07834990      -1.05267548      11.89782467
Si       2.60470765      -1.03925170       7.16637433
Si       5.62666927      -0.45888599       4.58071689
Si       1.31211275       1.15362550       2.82872398
Si       7.13250065       2.96281318       5.97189473
Si       9.04086425       0.84712810      10.83188525
Si      -0.44602051       4.22861410       4.43494440
Si       1.81919046       0.47041223       5.42965173
Si       8.14062081      -1.41722841       7.53962799
Si       5.20365295      -1.96791721       8.47178378
Si       6.07881497      -0.37221296       6.90417956
Si       3.73301097       3.92213799       4.05927356
Si       3.69742557       2.21751628       5.66967897
Si       1.60860230       2.38152313       7.04399645
Si      -0.78433349       3.42621277       0.82067092
Si       1.59343162       3.45649018       3.21945971
Si       3.58393423       0.54467788       3.80193223
Si       5.44803371       1.86575026       7.17691152
Si       4.39616608       2.17179810       9.20239665
Si       2.78290962       4.54180146       7.09208186
20
Lattice="10.804270857856329 -1.8795161546020298 7.986274503687286 -4.46587208071078 7.340833061318989 -2.272725070691567 3.2163167370298744 -2.556335763260556 7.890861569811547" Properties=species:S:1:pos:R:3 unique_starting_index=76 config_type=initial n_minim_iter=9 stress="-0.0008463162088086644 0.0004642311515255359 0.00018279168138678225 0.0004642311515255359 0.00029730219423602927 0.0007954618777996247 0.00018279168138678225 0.0007954618777996247 0.0006957692278033213" pbc="T T T"
Si      10.06299076      -0.99799918      11.95124828
Si       2.60516493      -1.02266971       7.19807859
Si       5.61142762      -0.42650697       4.60343726
Si       1.31521082       1.17395921       2.84392248
Si       7.12827852       2.98865430       6.00682679
Si       9.03294412       0.90265190      10.88999461
Si      -0.42217877       4.23562905       4.46748234
Si       1.82529981       0.47984506       5.45421561
Si       8.12028037      -1.38077618       7.58519491
Si       5.18967749      -1.92069226       8.50207476
Si       6.07714649      -0.33395041       6.93750225
Si       3.73218980       3.94564512       4.08925830
Si       3.69901220       2.24143466       5.69322425
Si       1.62139961       2.39349125       7.07182381
Si      -0.76548569       3.42300505       0.82806466
Si       1.60193816       3.47673727       3.24371947
Si       3.57877945       0.56836036       3.82502403
Si       5.44476571       1.89672160       7.21645899
Si       4.40191333       2.21143583       9.24290753
Si       2.78537745       4.56425714       7.13590518
20
Lattice="10.828481157151712 -1.870847795553231 7.95849871225041 -4.466082103865934 7.322193273759196 -2.2744884439981736 3.2089850749676394 -2.5598242223228005 7.879378035009769" Properties=species:S:1:pos:R:3 unique_starting_index=76 config_type=initial n_minim_iter=10 stress="0.0018678266727403657 0.0014823175932747886 -0.0011310999688932562 0.0014823175932747886 -0.0032894250524129606 -0.000983097913282266 -0.0011310999688932562 -0.000983097913282266 0.0003744688901098999" pbc="T T T"
Si      10.08874472      -1.00514110      11.90601740
Si       2.60404023      -1.04144183       7.19801532
Si       5.62325193      -0.41529446       4.58246371
Si       1.31792912       1.19374185       2.83272775
Si       7.15441514       2.95924973       5.97402254
Si       9.05541189       0.90622766      10.85983022
Si      -0.42498932       4.21358962       4.47355020
Si       1.82815745       0.45069297       5.44347793
Si       8.14033859      -1.39114501       7.58179912
Si       5.18247249      -1.88781613       8.47538358
Si       6.10524203      -0.32570300       6.91677833
Si       3.73769097       3.94082125       4.07161411
Si       3.70459344       2.22957454       5.65793898
Si       1.61842137       2.35623961       7.04834692
Si      -0.75730754       3.40678055       0.81910940
Si       1.60319743       3.48530216       3.23050197
Si       3.58528628       0.57580821       3.81875376
Si       5.45611002       1.88534620       7.18678249
Si       4.40033543       2.20705079       9.21660103
Si       2.75879893       4.53931804       7.12296971
20
Lattice="10.803050103797295 -1.9248210419532121 7.9353312341712305 -4.47687782248693 7.396544372478034 -2.270355199039928 3.2077555108183904 -2.594377005195179 7.857120630081235" Properties=species:S:1:pos:R:3 unique_starting_index=76 config_type=initial n_minim_iter=11 stress="-6.717575431085596e-05 -0.00028453309451131084 -0.0006249335066028214 -0.00028453309451131084 -4.8691781681074156e-05 -0.0013507116127364906 -0.0006249335066028214 -0.0013507116127364906 -0.0001987008189897665" pbc="T T T"
Si      10.07328395      -1.05691761      11.85661866
Si       2.60409113      -1.07417838       7.19122336
Si       5.60799542      -0.43043251       4.56380976
Si       1.31162529       1.22399571       2.81951928
Si       7.12782610       2.93084204       5.95113656
Si       9.03024996       0.88928318      10.82927035
Si      -0.43832039       4.24159008       4.47730865
Si       1.82747532       0.42181844       5.42662814
Si       8.12723633      -1.44599526       7.58086457
Si       5.16472229      -1.88518321       8.44247862
Si       6.10519418      -0.34244597       6.89604112
Si       3.70880139       3.96201143       4.05874048
Si       3.68503873       2.22802491       5.62443733
Si       1.60706248       2.34278578       7.02099235
Si      -0.75954094       3.43018100       0.81275650
Si       1.58203652       3.52674342       3.21810328
Si       3.57095617       0.57599036       3.81408097
Si       5.43517737       1.87667229       7.15531433
Si       4.37357765       2.21396671       9.18832660
Si       2.70281754       4.55493368       7.10987730
20
Lattice="10.800005533726877 -1.9211314632742489 7.937991696442254 -4.475169147193507 7.404360013994755 -2.266464320381648 3.210630587910237 -2.591393773185703 7.854148515386758" Properties=species:S:1:pos:R:3 unique_starting_index=76 config_type=initial n_minim_iter=12 stress="-0.00016864725700517104 -0.0003001455292457717 -5.1666046638326515e-06 -0.0003001455292457717 0.00024247463775372847 -0.00026876378417931137 -5.1666046638326515e-06 -0.00026876378417931137 -0.0001388421296246095" pbc="T T T"
Si      10.07380570      -1.04765157      11.84903732
Si       2.60923601      -1.07056233       7.19828986
Si       5.60836544      -0.42779515       4.56331771
Si       1.31558533       1.23881361       2.81481623
Si       7.12755271       2.93500178       5.95904921
Si       9.02604914       0.90330325      10.83017047
Si      -0.43785899       4.24678601       4.48250141
Si       1.83224319       0.41421481       5.42336363
Si       8.12912194      -1.44511843       7.59069341
Si       5.16188245      -1.86537519       8.44186800
Si       6.10408034      -0.33512162       6.89921835
Si       3.71822256       3.97129316       4.06141950
Si       3.68704032       2.23164608       5.62501620
Si       1.61474445       2.34273330       7.02475205
Si      -0.75908755       3.43559766       0.81463733
Si       1.58169451       3.54030709       3.21476984
Si       3.56904630       0.58031511       3.81776303
Si       5.43767236       1.88602684       7.14906760
Si       4.37114851       2.22268067       9.19480153
Si       2.69473690       4.56194771       7.11389531
20
Lattice="10.787433458955611 -1.911306420353256 7.939806053924122 -4.467048486056038 7.41694119631037 -2.2588999956513134 3.2096551740357144 -2.5859522679267704 7.850315701653069" Properties=species:S:1:pos:R:3 unique_starting_index=76 config_type=initial n_minim_iter=13 stress="0.00010100940517265287 0.0002112734369340657 0.0006531825190319594 0.0002112734369340657 0.0003779979237153556 0.0011042905857413779 0.0006531825190319594 0.0011042905857413779 -4.7911489483519204e-05" pbc="T T T"
Si      10.06356772      -1.02521404      11.82809088
Si       2.61662122      -1.06746441       7.22019197
Si       5.60887378      -0.42224897       4.55934449
Si       1.32566285       1.27840807       2.80292951
Si       7.12927188       2.94336019       5.96537385
Si       9.01055765       0.93223688      10.83100038
Si      -0.43755472       4.24837741       4.50003508
Si       1.83975511       0.38677998       5.41780390
Si       8.12642330      -1.44487492       7.61548566
Si       5.14372362      -1.81897489       8.43963243
Si       6.10167340      -0.31776300       6.90152605
Si       3.73786345       3.99177697       4.06552833
Si       3.68685718       2.23618030       5.62524911
Si       1.63030567       2.33752130       7.02971977
Si      -0.75768799       3.44438306       0.82090516
Si       1.58107984       3.56944203       3.21154088
Si       3.56109406       0.58701224       3.82248405
Si       5.43125796       1.90523278       7.14132269
Si       4.36136252       2.24304295       9.19769250
Si       2.66323824       4.56963177       7.12264434
20
Lattice="10.756845526507172 -1.9366939771104554 7.935015939416416 -4.468769953103055 7.439935022568953 -2.255743164734057 3.197903458772793 -2.5972620899715277 7.854738508667209" Properties=species:S:1:pos:R:3 unique_starting_index=76 config_type=initial n_minim_iter=14 stress="0.0003736986933889597 -3.6107879116324445e-06 -4.530654987014028e-05 -3.6107879116324445e-06 6.591569635370347e-05 -0.00011749683070148442 -4.530654987014028e-05 -0.00011749683070148442 0.0006376361956522159" pbc="T T T"
Si      10.02419477      -1.03555463      11.80536451
Si       2.61595612      -1.08595056       7.25424027
Si       5.60274072      -0.43393247       4.55068642
Si       1.32764936       1.32160426       2.79591699
Si       7.11844581       2.92549234       5.94758149
Si       8.97665137       0.92185347      10.82991265
Si      -0.44896475       4.23581354       4.52811405
Si       1.83614512       0.33560126       5.42055764
Si       8.10174644      -1.47768518       7.64435957
Si       5.10130840      -1.79846219       8.43252421
Si       6.09638410      -0.32096610       6.89371395
Si       3.72231261       4.00116603       4.07219844
Si       3.66225793       2.22522469       5.61839213
Si       1.62833497       2.32018786       7.02218865
Si      -0.76571931       3.45023421       0.83262865
Si       1.57260586       3.59398012       3.22414511
Si       3.54147516       0.57341476       3.81924763
Si       5.39102727       1.90160636       7.15301202
Si       4.33338293       2.25309992       9.17381539
Si       2.58974696       4.55791124       7.13164655
20
Lattice="10.699404265219249 -1.9833702556474702 7.88523026965549 -4.4670349325135525 7.508010720363497 -2.2377357695815494 3.18196969618252 -2.624403402849445 7.812588196957199" Properties=species:S:1:pos:R:3 unique_starting_index=76 config_type=initial n_minim_iter=15 stress="-0.0022204883183278607 0.00013843775442627857 -0.0006972829157985532 0.00013843775442627857 -0.0009402459152762313 -0.0014097927761900796 -0.0006972829157985532 -0.0014097927761900796 -0.0035147357383646617" pbc="T T T"
Si       9.95556826      -1.04105494      11.69999682
Si       2.62503661      -1.11478848       7.28342769
Si       5.59588570      -0.44933724       4.50597902
Si       1.33050304       1.39651511       2.77581489
Si       7.08750425       2.89159143       5.89565920
Si       8.91534415       0.91058749      10.76748827
Si      -0.45282955       4.23449161       4.53242320
Si       1.83641901       0.24107030       5.39882115
Si       8.05145474      -1.53657177       7.65279385
Si       5.01553231      -1.78275096       8.36053597
Si       6.08624250      -0.32064220       6.83809023
Si       3.69196276       4.04261919       4.07826737
Si       3.61888286       2.21047290       5.56687441
Si       1.63190161       2.29849898       6.95110265
Si      -0.78150557       3.48216618       0.84626165
Si       1.56587308       3.68046205       3.22159432
Si       3.50768122       0.53741718       3.78978682
Si       5.35595203       1.90558382       7.09917391
Si       4.28767284       2.28492892       9.11197073
Si       2.46563397       4.56998178       7.10160543
20
Lattice="10.696232491800423 -2.001030788168611 7.913295295980075 -4.484542781980833 7.548792302491978 -2.2267146627638637 3.1945680743609692 -2.62199910412355 7.828360744705689" Properties=species:S:1:pos:R:3 unique_starting_index=76 config_type=initial n_minim_iter=16 stress="-0.0007064385116944452 0.0001548964402564432 0.0002962898208009866 0.0001548964402564432 -9.550871969328047e-05 -0.00022229010536556956 0.0002962898208009866 -0.00022229010536556956 -0.00021736443017083813" pbc="T T T"
Si       9.94755797      -1.01113559      11.70759520
Si       2.65566615      -1.10856274       7.36828143
Si       5.61684940      -0.44628876       4.50655268
Si       1.34090693       1.46042599       2.78980802
Si       7.08994407       2.87434331       5.92014628
Si       8.90009408       0.92779577      10.80784894
Si      -0.44713972       4.23914524       4.56179008
Si       1.85475456       0.17257187       5.42345457
Si       8.04617635      -1.55849086       7.72112612
Si       4.96829347      -1.75384377       8.35924001
Si       6.09937954      -0.30741417       6.85275717
Si       3.68871523       4.08044112       4.13633698
Si       3.60602686       2.20419189       5.56924097
Si       1.65261302       2.29512267       6.94700434
Si      -0.80033368       3.51695071       0.86800465
Si       1.57463783       3.75838538       3.24803324
Si       3.49593102       0.50570544       3.80083395
Si       5.36385753       1.92224550       7.10846442
Si       4.27932273       2.32682536       9.14697413
Si       2.38697384       4.60061014       7.13622202
20
Lattice="10.746708187768817 -2.0233823890059597 7.936183449265949 -4.53438192793175 7.550414730618257 -2.2142028128647637 3.2189746064499336 -2.6096283157974463 7.848542544583072" Properties=species:S:1:pos:R:3 unique_starting_index=76 config_type=initial n_minim_iter=17 stress="0.0026978742704134094 -0.00019874535568085395 0.0007182515318348674 -0.00019874535568085395 4.0382209231386564e-05 0.002062039230271459 0.0007182515318348674 0.002062039230271459 0.0037353943518438227" pbc="T T T"
Si       9.97900106      -0.99963586      11.74998211
Si       2.67389988      -1.06412333       7.43241253
Si       5.65818901      -0.44453168       4.51231299
Si       1.34467192       1.44536055       2.82510896
Si       7.10914250       2.86963292       5.95565955
Si       8.90063278       0.91590385      10.85067117
Si      -0.45275986       4.23577479       4.53661211
Si       1.86859969       0.15922651       5.45909334
Si       8.07481796      -1.54540444       7.73836821
Si       4.96032281      -1.79654358       8.37387673
Si       6.10054389      -0.33224999       6.88060279
Si       3.70120233       4.07079346       4.19429416
Si       3.61982630       2.18070814       5.58210092
Si       1.65257213       2.31414258       6.96396134
Si      -0.83782389       3.55812902       0.87933366
Si       1.59156617       3.75955419       3.26360519
Si       3.50278469       0.45389731       3.81394122
Si       5.39377123       1.91023962       7.12648823
Si       4.29739058       2.31986952       9.20030874
Si       2.38460248       4.63107683       7.15547071
20
Lattice="10.735851046246621 -2.063644831394509 7.907592191871442 -4.557986456318255 7.610419402627376 -2.190192169460226 3.217769733039112 -2.622860590595697 7.8274357919824045" Properties=species:S:1:pos:R:3 unique_starting_index=76 config_type=initial n_minim_iter=18 stress="0.0034218589713318794 -1.6780482357931038e-05 0.0006939904484144082 -1.6780482357931038e-05 0.00194401064105826 0.0018298842154207719 0.0006939904484144082 0.0018298842154207719 0.004336980907584958" pbc="T T T"
Si       9.96064853      -1.00653776      11.69238791
Si       2.68201524      -1.06648462       7.48426607
Si       5.67076460      -0.44104197       4.48018573
Si       1.34952583       1.50570512       2.82703866
Si       7.10308358       2.84000037       5.92591426
Si       8.85805001       0.92362475      10.83515309
Si      -0.45985846       4.23933074       4.53673775
Si       1.88125747       0.08458912       5.46188718
Si       8.06572736      -1.57828233       7.75656461
Si       4.89550177      -1.77462076       8.32843545
Si       6.10671024      -0.33983453       6.85690586
Si       3.68668879       4.10551401       4.22061142
Si       3.60517724       2.15949444       5.54265400
Si       1.65061435       2.30314440       6.92347695
Si      -0.85836852       3.60792240       0.88809330
Si       1.58337499       3.82335628       3.26735950
Si       3.48166934       0.42117921       3.81065532
Si       5.37106660       1.90650808       7.10107181
Si       4.27597560       2.35376039       9.17509290
Si       2.28335384       4.66607081       7.15357789
20
Lattice="10.704490348085905 -2.132981817722672 7.8363840854271345 -4.588884371635579 7.666627408008725 -2.1599783385682434 3.202656135526072 -2.647650974815063 7.781430504780321" Properties=species:S:1:pos:R:3 unique_starting_index=76 config_type=initial n_minim_iter=19 stress="0.0009287040985092314 -0.000129148100547535 -0.00038573083794908684 -0.000129148100547535 0.001850753389678262 0.00039243496840996245 -0.00038573083794908684 0.00039243496840996245 0.0013884990280862214" pbc="T T T"
Si       9.91472995      -1.05226065      11.59532368
Si       2.66021511      -1.05638337       7.51898409
Si       5.67098452      -0.44555114       4.42333284
Si       1.34638567       1.53179137       2.82819563
Si       7.07277267       2.79591452       5.85486806
Si       8.76769313       0.90125166      10.77582818
Si      -0.47542238       4.22368288       4.48623793
Si       1.88582674       0.00639158       5.45745032
Si       8.03852848      -1.61167995       7.72347290
Si       4.80295871      -1.79316814       8.25307575
Si       6.08163655      -0.38722792       6.80814225
Si       3.65510187       4.11478945       4.22859467
Si       3.58637784       2.10574561       5.47422456
Si       1.62476282       2.29155970       6.85256600
Si      -0.89327069       3.67536902       0.88879465
Si       1.56635846       3.84065869       3.25046671
Si       3.44532511       0.36386310       3.79707047
Si       5.31252862       1.86482089       7.05489837
Si       4.24419863       2.35885231       9.10251662
Si       2.17239299       4.69558943       7.11407658
20