14
Lattice="5.766183781822751 -0.5196371665141731 0.6502234405170794 2.1435089876183566 7.482182531518614 -1.2490645171518497 1.2754613141231967 0.6901026007395763 6.788329771940077" Properties=species:S:1:pos:R:3 unique_starting_index=86 config_type=initial n_minim_iter=1 energy=-2280.294462641564 free_energy=-2280.294462641564 pbc="T T T"
Si       6.63134790       4.19644284       5.02051260
Si       6.73310293       0.94070131       3.97424451
Si       4.10735724       3.41787707       2.17645056
Si       7.56905867       2.68989595       2.43768188
Si       3.03756262       5.00614979       5.37177580
Si       2.39089272       2.02507963      -0.75320672
Si       1.38048905       5.37475706       0.70469365
Si       7.19784753       1.20110331       6.30235881
Si       4.57508158       2.29082800       0.17566490
Si       5.06095042       5.87938824       4.45837752
Si       2.99646068       0.46333595       6.78652267
Si       4.96741523       5.56845121       2.10746633
Si       5.00357008       2.45994839       4.10171642
Si       3.27232651       6.85962458       0.97235450
14
Lattice="5.750315587198289 -0.5155106572363396 0.6378080184766476 2.144972546150514 7.465501070481255 -1.2563514178497985 1.2598416749642511 0.6827113314144149 6.764573936726434" Properties=species:S:1:pos:R:3 unique_starting_index=86 config_type=initial n_minim_iter=2 stress="-0.002409958735824263 0.0005677864984769571 0.0002735150302014839 0.0005677864984769571 -0.0026060170363963204 0.0003033831024110402 0.0002735150302014839 0.0003033831024110402 -0.0021665671823459464" pbc="T T T"
Si       6.60732812       4.18407063       4.98868841
Si       6.71010894       0.93950676       3.94750247
Si       4.09552517       3.40838036       2.15869722
Si       7.54653909       2.68629856       2.41546823
Si       3.02236684       4.99027134       5.34565348
Si       2.38675760       2.02221551      -0.75650403
Si       1.37885172       5.36079449       0.69574591
Si       7.16799274       1.19634103       6.26794418
Si       4.56548843       2.28777381       0.16412502
Si       5.04321255       5.86359982       4.42871761
Si       2.97675332       0.45702863       6.75938197
Si       4.95482249       5.55678956       2.08500647
Si       4.98560362       2.45222638       4.07658757
Si       3.26634524       6.84183167       0.95753211
14
Lattice="5.7594836243438285 -0.5227677212521739 0.5979442926779122 2.1553014275792197 7.491880388231726 -1.303573795431457 1.2132973965884117 0.6548199820598171 6.749143429731801" Properties=species:S:1:pos:R:3 unique_starting_index=86 config_type=initial n_minim_iter=3 stress="0.0007935033800742577 0.0006558959255097119 -0.003087136018549945 0.0006558959255097119 0.0011128555121276214 -0.0014709273098973813 -0.003087136018549945 -0.0014709273098973813 -0.0005932739985383739" pbc="T T T"
Si       6.58148324       4.16614346       4.92007948
Si       6.70165668       0.92734581       3.88602174
Si       4.09084609       3.40039354       2.11232309
Si       7.54043922       2.68666058       2.36110791
Si       2.98554096       4.98164229       5.30348611
Si       2.39129346       2.03121172      -0.77712614
Si       1.37358343       5.37086222       0.66785406
Si       7.13372631       1.16870236       6.20515660
Si       4.57913923       2.29299638       0.11986508
Si       5.01840143       5.86203668       4.35852715
Si       2.93710336       0.42429852       6.73091313
Si       4.95178435       5.57173548       2.01486652
Si       4.97088890       2.43551330       4.02289919
Si       3.26289103       6.84835624       0.90857624
14
Lattice="5.753851136972437 -0.5419517718238117 0.6212595013638099 2.119339873945074 7.46482322326166 -1.290398380631005 1.235886789959365 0.6534421415606039 6.759720980565035" Properties=species:S:1:pos:R:3 unique_starting_index=86 config_type=initial n_minim_iter=4 stress="-0.0002166879022147256 -0.0014527674576426562 -0.0010663098397709844 -0.0014527674576426562 -0.00036327041869540583 -0.0008591294561021147 -0.0010663098397709844 -0.0008591294561021147 0.0002626690497523549" pbc="T T T"
Si       6.56778875       4.12558708       4.95331811
Si       6.71213054       0.91368261       3.90267771
Si       4.08632851       3.36921474       2.13058575
Si       7.51776584       2.66809302       2.42157531
Si       2.98106194       4.96429644       5.32966486
Si       2.36667607       2.01911383      -0.75899124
Si       1.35242293       5.34937579       0.68952104
Si       7.13303364       1.14362705       6.23577914
Si       4.57436832       2.27357644       0.13663723
Si       5.00193671       5.83566785       4.37595652
Si       2.96214323       0.41193914       6.74762584
Si       4.93808321       5.55740338       2.02328060
Si       4.97699352       2.40680984       4.04126778
Si       3.23482308       6.80702332       0.93424102
14
Lattice="5.759019897170925 -0.5017943161116164 0.6421965073623982 2.1671690668488988 7.489515972402939 -1.2558988860391238 1.2700895824773706 0.6841322023987779 6.752278505412635" Properties=species:S:1:pos:R:3 unique_starting_index=86 config_type=initial n_minim_iter=5 stress="0.0007312966839995076 0.0035163857343329776 0.0003158188107634672 0.0035163857343329776 0.0008140606954594733 0.0014525068755964334 0.0003158188107634672 0.0014525068755964334 -0.0006409811787718463" pbc="T T T"
Si       6.61737252       4.18764105       4.98033917
Si       6.75228458       0.97909977       3.91221740
Si       4.12932427       3.40455599       2.15071673
Si       7.54720108       2.74810574       2.48268782
Si       3.03785396       5.01206399       5.35119716
Si       2.37275328       2.03891120      -0.73550512
Si       1.39051442       5.36621071       0.72108951
Si       7.16750466       1.21035433       6.25253632
Si       4.60334376       2.31125641       0.15881863
Si       5.06241881       5.89492667       4.39395681
Si       2.99862221       0.45142028       6.74707212
Si       4.99684754       5.61931479       2.04240882
Si       5.01952286       2.45049930       4.05683717
Si       3.28790625       6.83595727       0.97033934
14
Lattice="5.754705965243667 -0.5304837294928562 0.6490833941498576 2.1273856083073004 7.476182135447817 -1.2713375316181 1.2718710023229216 0.661446534218332 6.75133922212088" Properties=species:S:1:pos:R:3 unique_starting_index=86 config_type=initial n_minim_iter=6 stress="0.0004174476719443085 -0.00029623922610116346 0.0012828043712674196 -0.00029623922610116346 0.00035896492495424544 -3.226605339737082e-05 0.0012828043712674196 -3.226605339737082e-05 -0.0009304196604142474" pbc="T T T"
Si       6.59135946       4.13933883       4.97339527
Si       6.75034811       0.93554237       3.90957118
Si       4.11402946       3.37831542       2.14438693
Si       7.52516584       2.71594601       2.50145452
Si       3.01328090       4.98161787       5.34411092
Si       2.35745039       2.02860341      -0.73525872
Si       1.36304053       5.35093810       0.71555406
Si       7.15640833       1.15590437       6.25454916
Si       4.58800974       2.28748316       0.15540177
Si       5.02982215       5.85443483       4.37793879
Si       2.99915922       0.42014303       6.74853860
Si       4.96914299       5.58770028       2.02802011
Si       5.00439590       2.41114025       4.05609150
Si       3.25018264       6.81023142       0.95736665
14
Lattice="5.733565647324706 -0.5442726039882119 0.6402270922605927 2.102600460054572 7.448885545900487 -1.2847050094989496 1.2503077451205116 0.6550174294750457 6.788861721407863" Properties=species:S:1:pos:R:3 unique_starting_index=86 config_type=initial n_minim_iter=7 stress="-0.002348105591166221 -0.002564327551120462 -0.0004197993673643531 -0.002564327551120462 -0.00171274819221971 0.0007896709272446475 -0.0004197993673643531 0.0007896709272446475 0.0040688925095491955" pbc="T T T"
Si       6.54236464       4.10944879       4.98006724
Si       6.72629431       0.90913400       3.90830154
Si       4.09218580       3.36343783       2.14450683
Si       7.48442642       2.71084480       2.53168642
Si       2.97344731       4.95860372       5.37108334
Si       2.34378962       2.01800363      -0.74208016
Si       1.34168781       5.32709056       0.72497534
Si       7.11092033       1.12344644       6.27367186
Si       4.56436428       2.26803512       0.14075041
Si       4.98255320       5.81975537       4.38180130
Si       2.96981052       0.41027543       6.78173289
Si       4.93616614       5.55639395       2.02039037
Si       4.96647641       2.38340878       4.07094493
Si       3.21516060       6.78028784       0.95283138
14
Lattice="5.748787904127204 -0.5622279555359622 0.6509619033395345 2.08674298695817 7.450516190903619 -1.3198316993189367 1.264112808643576 0.6108192464625115 6.753991016880286" Properties=species:S:1:pos:R:3 unique_starting_index=86 config_type=initial n_minim_iter=8 stress="0.000895523044461479 -0.006687011664963069 0.00044237778342063645 -0.006687011664963069 -0.0026644788095016143 -0.003169893700897827 0.00044237778342063645 -0.003169893700897827 0.00031266523694291614" pbc="T T T"
Si       6.54967445       4.06458121       4.91871703
Si       6.77976274       0.85345324       3.87180871
Si       4.11825540       3.35745906       2.11203783
Si       7.49940849       2.74561227       2.61287588
Si       2.96744766       4.91929096       5.32732296
Si       2.34040326       2.02027299      -0.73981001
Si       1.33224711       5.30531137       0.71444134
Si       7.12884888       1.04124007       6.24140232
Si       4.56645267       2.25403935       0.12056478
Si       4.97697207       5.77108681       4.30437193
Si       2.98122243       0.36192027       6.75088203
Si       4.94997151       5.52658322       1.96565212
Si       4.96588768       2.32596736       4.05208808
Si       3.20029997       6.76354961       0.90354849
14
Lattice="5.7090740203018155 -0.5470414709376984 0.6666758979836569 2.0937011833401895 7.521042447866407 -1.3115283768016466 1.2783694766309432 0.6190205154840355 6.736387228584022" Properties=species:S:1:pos:R:3 unique_starting_index=86 config_type=initial n_minim_iter=9 stress="-0.003041647730683514 -0.006604582064692935 -0.00022616462482580053 -0.006604582064692935 0.0016467191450589367 -0.0034645540858755024 -0.00022616462482580053 -0.0034645540858755024 -0.0011454288812257287" pbc="T T T"
Si       6.52816322       4.12161116       4.89043077
Si       6.78546943       0.86985124       3.85286711
Si       4.13330293       3.41818465       2.10787286
Si       7.46859334       2.88516465       2.75599472
Si       2.96711742       4.97087209       5.32647015
Si       2.32497391       2.04928872      -0.72383387
Si       1.34473672       5.33944091       0.74079638
Si       7.09254750       1.04143873       6.23224337
Si       4.53902309       2.28620706       0.11421289
Si       4.96053132       5.82656339       4.27049357
Si       2.97475322       0.37156878       6.73455696
Si       4.95414044       5.58828094       1.94584054
Si       4.93684953       2.33337325       4.05802613
Si       3.19659093       6.82429810       0.89664083
14
Lattice="5.725457279580062 -0.5129053121232453 0.6840735822555354 2.137670612026923 7.517710312359088 -1.2907163056069557 1.307877504009893 0.6370993592119041 6.7391564515952105" Properties=species:S:1:pos:R:3 unique_starting_index=86 config_type=initial n_minim_iter=10 stress="-0.0005439203596358748 -0.00417751489485133 -0.0005648591261734376 -0.00417751489485133 -8.809689015064934e-05 -0.0036790669655287385 -0.0005648591261734376 -0.0036790669655287385 -0.0018126650385045541" pbc="T T T"
Si       6.58605141       4.16066947       4.89364620
Si       6.84723870       0.90490391       3.85869887
Si       4.19010919       3.45214886       2.12160673
Si       7.52187252       2.99421532       2.88210978
Si       3.01189052       4.98801534       5.34876841
Si       2.33784425       2.05934633      -0.70933315
Si       1.38516773       5.32898208       0.76922205
Si       7.13279120       1.06881788       6.24623420
Si       4.56151952       2.30494439       0.11890584
Si       5.01088092       5.84640518       4.27523602
Si       3.00218386       0.39538908       6.73637998
Si       5.01289396       5.60832139       1.95311953
Si       4.96729979       2.34259886       4.07743052
Si       3.24269841       6.82700321       0.90994205
14
Lattice="5.740476083586711 -0.4278764213918677 0.7118872119547638 2.238293615920446 7.557734847705684 -1.1765384665611571 1.362438382344704 0.7484426080962817 6.7543707466325715" Properties=species:S:1:pos:R:3 unique_starting_index=86 config_type=initial n_minim_iter=11 stress="-0.0005255936202651221 0.0034702059624550164 -0.0011958808598520122 0.0034702059624550164 0.002981818148995289 0.0025615184392431714 -0.0011958808598520122 0.0025615184392431714 -0.002857383151887255" pbc="T T T"
Si       6.70923912       4.34059888       4.97430759
Si       6.89819668       1.05043034       3.92525128
Si       4.26752173       3.55914063       2.19728023
Si       7.62815873       3.18791041       3.03259759
Si       3.11760416       5.11602328       5.43047361
Si       2.37386132       2.08287559      -0.67932080
Si       1.48278769       5.37919479       0.83302416
Si       7.20746078       1.24630552       6.29478627
Si       4.58979798       2.37026044       0.16843367
Si       5.12468185       5.99404375       4.39362227
Si       3.05147383       0.52032302       6.74283747
Si       5.10359968       5.71477897       2.06270221
Si       5.02906216       2.45903918       4.13275501
Si       3.35303314       6.91170260       1.00731665
14
Lattice="5.757008623577373 -0.3843087960305693 0.7490687823391317 2.2916774202431736 7.531288952646065 -1.1866683742896076 1.4075285609228865 0.7435213789794913 6.81742291518602" Properties=species:S:1:pos:R:3 unique_starting_index=86 config_type=initial n_minim_iter=12 stress="-0.0006820572219240164 0.008039476096246476 0.0006145817125469059 0.008039476096246476 0.00056335695638381 -0.0004202693633573835 0.0006145817125469059 -0.0004202693633573835 0.0033082968798952206" pbc="T T T"
Si       6.80149028       4.36053258       5.05249201
Si       6.92095627       1.09809058       4.01352922
Si       4.30892914       3.55575791       2.23846737
Si       7.70418923       3.21418222       3.09718242
Si       3.19227529       5.09793992       5.48167454
Si       2.39472275       2.07949001      -0.68859718
Si       1.54129386       5.36567897       0.81282047
Si       7.26846147       1.29431476       6.38066596
Si       4.60970663       2.38678847       0.19225699
Si       5.20427702       5.99614161       4.47096010
Si       3.10044706       0.51998208       6.80026217
Si       5.15513917       5.71593705       2.11027965
Si       5.08449065       2.47123996       4.17908798
Si       3.42232395       6.89607078       1.02108318
14
Lattice="5.792118089464504 -0.39948966349812176 0.7445848496437214 2.2755274368219847 7.490329479211939 -1.1265169542495916 1.413639489850681 0.7876457935445491 6.804439596799686" Properties=species:S:1:pos:R:3 unique_starting_index=86 config_type=initial n_minim_iter=13 stress="0.002352350466915408 0.0047650516344110464 -0.0008276416260814499 0.0047650516344110464 -0.0003646296354864638 0.0027070490075436077 -0.0008276416260814499 0.0027070490075436077 0.000252469176920087" pbc="T T T"
Si       6.84036897       4.36153173       5.07691359
Si       6.94199893       1.10710862       4.02327747
Si       4.32045953       3.53400430       2.26315453
Si       7.75260851       3.21342384       3.14809812
Si       3.18924342       5.11051812       5.50557733
Si       2.40173286       2.04809642      -0.68217230
Si       1.54116492       5.35425051       0.83134524
Si       7.30131127       1.31697201       6.36629025
Si       4.61651747       2.36259270       0.20732117
Si       5.20723199       5.99575910       4.51702378
Si       3.11770815       0.54813902       6.76965187
Si       5.15387640       5.69882171       2.15406944
Si       5.10320312       2.46593167       4.17236036
Si       3.42002406       6.86867286       1.06768737
14
Lattice="5.776575382170248 -0.4230962656984403 0.7681574320617695 2.233606038295228 7.4867778494734365 -1.125759654855425 1.4327761855868142 0.7775046264848406 6.8171858793273605" Properties=species:S:1:pos:R:3 unique_starting_index=86 config_type=initial n_minim_iter=14 stress="-0.0003139167277728796 0.0016638849507456684 0.0012155283502813929 0.0016638849507456684 0.0005581692006700474 -0.0008859846634694657 0.0012155283502813929 -0.0008859846634694657 -0.0009037477318107292" pbc="T T T"
Si       6.83341530       4.33676738       5.10580446
Si       6.92465572       1.07935103       4.05423629
Si       4.30757355       3.50909284       2.27737549
Si       7.74151523       3.22269700       3.24681991
Si       3.17454595       5.09680821       5.52342211
Si       2.38423285       2.02860483      -0.68658292
Si       1.52591959       5.35184515       0.82306003
Si       7.28748005       1.28228759       6.39198783
Si       4.58001663       2.34534441       0.21640538
Si       5.17584635       5.97372734       4.53743876
Si       3.13031501       0.52287806       6.77244819
Si       5.12201153       5.68447439       2.17097164
Si       5.08432429       2.42670223       4.18282387
Si       3.38764605       6.85852972       1.07115697
14
Lattice="5.774201616978877 -0.4709392159852249 0.75168389569115 2.1716909366307178 7.450704036119983 -1.132238663435821 1.4054831334482918 0.7665413991882852 6.823042122747587" Properties=species:S:1:pos:R:3 unique_starting_index=86 config_type=initial n_minim_iter=15 stress="-0.0014700521565686527 -0.003910912721019317 -0.00014272862097551909 -0.003910912721019317 0.00018697393039728745 -7.635645153898072e-05 -0.00014272862097551909 -7.635645153898072e-05 5.311434255245297e-05" pbc="T T T"
Si       6.78961551       4.27876105       5.12023363
Si       6.87654610       1.02216936       4.05032568
Si       4.26065780       3.44894315       2.26721164
Si       7.70521077       3.12918082       3.19759190
Si       3.11715443       5.06063402       5.52244594
Si       2.37384960       1.99003067      -0.71015806
Si       1.47586344       5.33584485       0.80379235
Si       7.25382681       1.23601098       6.38272105
Si       4.54758618       2.30484266       0.21059371
Si       5.11401445       5.91662779       4.54373262
Si       3.10646182       0.49899686       6.76569436
Si       5.06461551       5.63008400       2.17907449
Si       5.04449605       2.38420983       4.16626191
Si       3.33080023       6.82552617       1.06583473
14
Lattice="5.802346861382266 -0.44409577930123834 0.7534682899742999 2.2129439519858116 7.416200960804757 -1.1273992417604475 1.415551183636727 0.7752351142943984 6.843034177296446" Properties=species:S:1:pos:R:3 unique_starting_index=86 config_type=initial n_minim_iter=16 stress="0.0032258051978569947 -0.001046826770077227 -0.0005358298683837293 -0.001046826770077227 -0.0013008092016663577 -0.0005926975945344384 -0.0005358298683837293 -0.0005926975945344384 0.00083998964621595" pbc="T T T"
Si       6.84207585       4.29405938       5.15075152
Si       6.92601028       1.03874137       4.04389883
Si       4.30990847       3.44415147       2.26359827
Si       7.75532939       3.18755966       3.26098597
Si       3.15143531       5.05030440       5.55370011
Si       2.39368348       1.97765925      -0.72188324
Si       1.49844589       5.30912241       0.82739342
Si       7.28822090       1.25919922       6.40073608
Si       4.57462417       2.31343776       0.20906374
Si       5.16416244       5.89449127       4.54349826
Si       3.12071777       0.52035314       6.78116154
Si       5.13190279       5.62332321       2.18627459
Si       5.06442488       2.38205191       4.17625854
Si       3.37842003       6.80673661       1.07205418
14
Lattice="5.779141554160436 -0.42880393983277293 0.7711422661412342 2.2183266214842763 7.426598841755322 -1.1013077848534933 1.433196645235595 0.7986420845145886 6.860487258232457" Properties=species:S:1:pos:R:3 unique_starting_index=86 config_type=initial n_minim_iter=17 stress="-0.001978404572223543 0.00160922752988023 0.000561393224754616 0.00160922752988023 0.0008476638150514813 0.00010565716520034636 0.000561393224754616 0.00010565716520034636 -0.0009552056589640447" pbc="T T T"
Si       6.85657588       4.34545742       5.23447024
Si       6.89349587       1.06693730       4.07297018
Si       4.30890512       3.44479374       2.27524622
Si       7.74669209       3.23965661       3.32068693
Si       3.17384963       5.07805420       5.59832298
Si       2.39349153       1.95777374      -0.74402361
Si       1.50569975       5.32809876       0.84653924
Si       7.27134769       1.30595056       6.43537961
Si       4.54349749       2.33139112       0.23087946
Si       5.17777791       5.91153903       4.58316004
Si       3.12684247       0.54994728       6.78995485
Si       5.14571735       5.65122121       2.23520385
Si       5.04242385       2.39353525       4.18820494
Si       3.39815117       6.83741599       1.09693628
14
Lattice="5.814180102829455 -0.44975234194344416 0.7635725348169831 2.201430434239972 7.3668668619378535 -1.1102149959259473 1.426202717032701 0.7876290651260992 6.881177738435306" Properties=species:S:1:pos:R:3 unique_starting_index=86 config_type=initial n_minim_iter=18 stress="0.0021713502399440094 -0.001497894665168068 -0.0006790144457156463 -0.001497894665168068 -0.001471140811005079 0.00045419812510189825 -0.0006790144457156463 0.00045419812510189825 0.0015306985538285393" pbc="T T T"
Si       6.88429625       4.30203408       5.27865966
Si       6.90827083       1.04305108       4.07964870
Si       4.31169392       3.39642062       2.26487032
Si       7.77287259       3.19299500       3.32504791
Si       3.17178756       5.03041113       5.62571399
Si       2.40551961       1.91820002      -0.77628486
Si       1.49775139       5.29288371       0.84949022
Si       7.28722213       1.27505583       6.43875228
Si       4.54489447       2.29513695       0.22105486
Si       5.18303170       5.84478362       4.59549604
Si       3.12584182       0.53124544       6.79760141
Si       5.15095338       5.59345204       2.23832858
Si       5.04086584       2.33859932       4.16996335
Si       3.40230235       6.77822210       1.08644969
14
Lattice="5.805246792960655 -0.44289895754673947 0.7716812987158607 2.2102094028680233 7.4002295912695395 -1.127568044011005 1.4341287981504713 0.7729121408593229 6.873533765193065" Properties=species:S:1:pos:R:3 unique_starting_index=86 config_type=initial n_minim_iter=19 stress="0.0007796811376728184 -0.00019897958925596708 -0.0005519577171707869 -0.00019897958925596708 0.0009108617716341051 -0.0001429361608946305 -0.0005519577171707869 -0.0001429361608946305 0.00046688227422235956" pbc="T T T"
Si       6.90046844       4.33843437       5.31394336
Si       6.91225343       1.06530808       4.08001851
Si       4.30539384       3.43351888       2.24279081
Si       7.75942478       3.23664565       3.35129118
Si       3.20812518       5.03769025       5.64203806
Si       2.40846976       1.92381424      -0.80601496
Si       1.52719081       5.31628114       0.87573437
Si       7.26946676       1.26276868       6.42469269
Si       4.52200876       2.29781801       0.20408827
Si       5.20333693       5.85318532       4.57906737
Si       3.11042885       0.51707575       6.78935605
Si       5.15808873       5.60924928       2.21263176
Si       5.01335447       2.30355755       4.12993962
Si       3.43391380       6.79735274       1.05211458
14
Lattice="5.803670837797092 -0.43992609751452055 0.7861847492523533 2.2088781465164975 7.393204280610275 -1.1202239252599429 1.4507994363393002 0.7747824024392682 6.87867293325665" Properties=species:S:1:pos:R:3 unique_starting_index=86 config_type=initial n_minim_iter=20 stress="0.00020075539802865238 9.836721916342564e-05 1.1930264555357089e-05 9.836721916342564e-05 0.00022326495053583042 4.79394295187699e-06 1.1930264555357089e-05 4.79394295187699e-06 -1.2802788570286786e-05" pbc="T T T"
Si       6.92231129       4.35195108       5.35737940
Si       6.92434083       1.07383882       4.09247494
Si       4.30526470       3.43829875       2.24656350
Si       7.76162985       3.26031051       3.40439424
Si       3.23362123       5.03568741       5.67142341
Si       2.40497668       1.91558156      -0.81639133
Si       1.54220414       5.31431717       0.90035012
Si       7.27204575       1.25891716       6.43799303
Si       4.50897017       2.29135033       0.20719436
Si       5.21789498       5.84561922       4.59215520
Si       3.11472028       0.51891638       6.78938161
Si       5.16789915       5.60538662       2.22111670
Si       5.00185607       2.27977039       4.11898452
Si       3.44945666       6.79307610       1.05770814
14
Lattice="5.793435759450062 -0.4414103610493072 0.81035310691976 2.197501184656099 7.392142908517461 -1.1174283117101367 1.4765187712053358 0.7673540789113623 6.8753226952466715" Properties=species:S:1:pos:R:3 unique_starting_index=86 config_type=initial n_minim_iter=21 stress="-0.0010546249774304648 0.0005332509592609898 0.0006652536103177134 0.0005332509592609898 -0.001103231277797664 -0.00017480092292326 0.0006652536103177134 -0.00017480092292326 -0.0005721646501224275" pbc="T T T"
Si       6.95178680       4.37089527       5.41665594
Si       6.93962414       1.07647181       4.10130494
Si       4.28295457       3.44350098       2.24721418
Si       7.74783038       3.27695374       3.46835747
Si       3.27268589       5.02884448       5.70836507
Si       2.38715032       1.90967389      -0.83215853
Si       1.56678994       5.31826689       0.93637847
Si       7.26884237       1.23465562       6.45204600
Si       4.48133617       2.27707338       0.20995965
Si       5.23267099       5.83447249       4.60185263
Si       3.11383501       0.51239582       6.77346672
Si       5.17448645       5.59989600       2.22486041
Si       4.97013143       2.23056380       4.07892671
Si       3.46741049       6.80029805       1.06622799
