6
Lattice="3.655850445250286 0.3436750811809265 -0.23820890475176193 -0.3812235127807038 4.651747111583028 0.8762436375404583 -1.4508910827726964 0.9012343767662925 7.431071593217237" Properties=species:S:1:pos:R:3 unique_starting_index=148 config_type=initial n_minim_iter=9 energy=-977.2581095592673 free_energy=-977.2581095592673 pbc="T T T"
Si       1.40498415       3.85677354       2.60059730
Si       1.45496196       2.17102479       0.93341050
Si      -0.19317946       3.49412041       6.05508658
Si       1.64456246       2.68744518       4.67570524
Si      -0.07755906       1.00273566       4.23662391
Si      -0.19156109       0.64183173       1.87379816
