12
Lattice="5.406409242007191 0.47085214143341136 0.19969150270000088 -0.6888486609521944 5.361999956749491 -0.8905387905556253 -0.9277882070683359 -2.2386663974075542 7.685051001107378" Properties=species:S:1:pos:R:3 unique_starting_index=106 config_type=initial n_minim_iter=1 energy=-1953.7520074657737 free_energy=-1953.7520074657737 pbc="T T T"
Si       4.02105982       0.27470047       4.15729674
Si       2.49055308       2.29028147       1.61652603
Si       0.15238596       1.87600952       4.44066205
Si       2.96256812       3.85444890      -0.15716767
Si       0.49832116       3.65327158       1.58057377
Si       1.67461637       0.10742073       3.92639472
Si      -0.05726322      -1.29696707       7.79567909
Si      -1.17925872       0.13786859       1.48520599
Si       4.07950989       3.39007853       3.08246189
Si      -0.23827794       1.72863610       6.84196266
Si       3.62730701       0.11907956       6.58399047
Si       1.65147889      -1.22214810       5.94572224
12
Lattice="5.397281675584887 0.4700889338331531 0.19778813008682783 -0.6867420655787507 5.3421108791593985 -0.8811947875002455 -0.9305804605765489 -2.217233107547817 7.687823551893888" Properties=species:S:1:pos:R:3 unique_starting_index=106 config_type=initial n_minim_iter=2 stress="-0.0019745237211104176 0.00024044023105061605 -0.0004930700224852775 0.00024044023105061605 -0.002931946002655007 0.0007542882153740001 -0.0004930700224852775 0.0007542882153740001 -0.001602264610657061" pbc="T T T"
Si       4.01210175       0.28329241       4.15998017
Si       2.48800446       2.28403131       1.61702736
Si       0.15044936       1.87543423       4.44859015
Si       2.95889714       3.84362408      -0.15334280
Si       0.49485745       3.64639518       1.58794586
Si       1.67013625       0.11219371       3.93240438
Si      -0.06455810      -1.27330508       7.80436777
Si      -1.17608603       0.13785136       1.48550395
Si       4.06855235       3.38433705       3.08906052
Si      -0.24168081       1.73045985       6.85178281
Si       3.62529026       0.13258290       6.58466107
Si       1.63981290      -1.20754414       5.94660472
12
Lattice="5.403023432131071 0.4692898797454629 0.19952930652725945 -0.6889003114443538 5.345696926637651 -0.8802455843346426 -0.929852732175606 -2.213464719485351 7.708525284685248" Properties=species:S:1:pos:R:3 unique_starting_index=106 config_type=initial n_minim_iter=3 stress="0.0006717623012727332 -1.6231580546294805e-05 -0.00045320711975265545 -1.6231580546294805e-05 -0.0001592961148200012 0.0011447852811232785 -0.00045320711975265545 0.0011447852811232785 0.001348081333590459" pbc="T T T"
Si       4.01702492       0.28719366       4.17377372
Si       2.49270968       2.28462288       1.61996120
Si       0.15134675       1.87756382       4.46382594
Si       2.96224826       3.84786412      -0.15239895
Si       0.49258721       3.65283126       1.59493519
Si       1.67291334       0.11245676       3.94756393
Si      -0.06612511      -1.26386182       7.83102210
Si      -1.17498031       0.13709629       1.48794744
Si       4.06980797       3.38764803       3.10112415
Si      -0.24162245       1.73181801       6.87374392
Si       3.63767055       0.13812983       6.60130793
Si       1.63718647      -1.20531719       5.96265727
12
Lattice="5.396956666524432 0.4684371353068474 0.2060605075473757 -0.6902516153476845 5.354628720188159 -0.8958169646997628 -0.916636501155252 -2.2389946155672535 7.700005891391444" Properties=species:S:1:pos:R:3 unique_starting_index=106 config_type=initial n_minim_iter=4 stress="-0.00033880644759032096 -0.0005678813257000261 0.0001450555361983308 -0.0005678813257000261 4.734894037302313e-05 -0.0005253593578892537 0.0001450555361983308 -0.0005253593578892537 -0.00035927531474422904" pbc="T T T"
Si       4.01866367       0.27622600       4.17207364
Si       2.49411578       2.28105278       1.61016084
Si       0.15773703       1.86434888       4.45143647
Si       2.95954320       3.85339409      -0.16136600
Si       0.49196909       3.65490859       1.58201501
Si       1.67727958       0.09851562       3.94568613
Si      -0.05635038      -1.28515658       7.82568400
Si      -1.16894058       0.13107079       1.48178377
Si       4.06682768       3.38090437       3.09177262
Si      -0.23140190       1.70974588       6.85677276
Si       3.64945158       0.12040368       6.59142353
Si       1.63939485      -1.22529178       5.95836883
12
Lattice="5.399630508209306 0.4764298807985797 0.20642331541980827 -0.6827089465993589 5.353449903016776 -0.8934712024331808 -0.9200315910673148 -2.237016321346416 7.699195185252398" Properties=species:S:1:pos:R:3 unique_starting_index=106 config_type=initial n_minim_iter=5 stress="7.639267010776697e-05 0.00040939167637546377 0.00028387699215078613 0.00040939167637546377 0.00015154045268313135 -2.1986549286742802e-05 0.00028387699215078613 -2.1986549286742802e-05 -0.0002938278966791413" pbc="T T T"
Si       4.02077589       0.28419344       4.17179793
Si       2.49890448       2.28602850       1.60981242
Si       0.15997958       1.86663975       4.45217024
Si       2.96685402       3.85678977      -0.16055796
Si       0.49730043       3.65687975       1.58372036
Si       1.67815326       0.10228374       3.94674606
Si      -0.05841613      -1.28248258       7.82693279
Si      -1.16822951       0.12995296       1.48197827
Si       4.07299365       3.38790992       3.09385955
Si      -0.22887319       1.71301756       6.85814104
Si       3.65162535       0.12957099       6.59100676
Si       1.63747444      -1.22026361       5.95869106
12
Lattice="5.399869505785898 0.4796443220629364 0.19478745236201878 -0.6771713465335584 5.346656323000087 -0.8899977061171666 -0.9393495311365185 -2.229330035950332 7.7191338602355755" Properties=species:S:1:pos:R:3 unique_starting_index=106 config_type=initial n_minim_iter=6 stress="0.0005730806343050035 0.0009351863752644842 -0.000597381024374724 0.0009351863752644842 -0.00022231329445912665 0.0005822358473685652 -0.000597381024374724 0.0005822358473685652 0.001235736272473841" pbc="T T T"
Si       4.01193390       0.29120794       4.16917636
Si       2.50054113       2.29058536       1.60088594
Si       0.14633802       1.86932183       4.46342456
Si       2.97324826       3.84888198      -0.17074269
Si       0.49429503       3.65685148       1.59021414
Si       1.66963646       0.10303753       3.95781894
Si      -0.07974655      -1.27947836       7.85592328
Si      -1.16622852       0.12893121       1.48922330
Si       4.06645888       3.38640378       3.09664138
Si      -0.24358901       1.71979967       6.87979820
Si       3.63925481       0.14202038       6.59436455
Si       1.61821493      -1.21327641       5.97370791
12
Lattice="5.398124114507337 0.47602839800879926 0.19929710887188923 -0.6816690695576488 5.350928696026288 -0.8894840282454877 -0.9307800391477649 -2.229903254007958 7.710675121039739" Properties=species:S:1:pos:R:3 unique_starting_index=106 config_type=initial n_minim_iter=7 stress="0.0005498148653045286 0.0003520473751815932 2.8476330387384548e-05 0.0003520473751815932 0.00029004411263993854 0.0009871376759504164 2.8476330387384548e-05 0.0009871376759504164 -0.000135971072915672" pbc="T T T"
Si       4.01431441       0.28977673       4.16633924
Si       2.50257331       2.29252530       1.59482757
Si       0.14633260       1.87042808       4.45939035
Si       2.97160799       3.84716623      -0.17167218
Si       0.49069555       3.66096647       1.59006932
Si       1.67248540       0.09975975       3.95956788
Si      -0.07457997      -1.28092625       7.85525135
Si      -1.16108038       0.12821263       1.48669074
Si       4.06377571       3.38455681       3.09781948
Si      -0.23875478       1.72205107       6.87422247
Si       3.64791321       0.14310516       6.58710315
Si       1.61941607      -1.21508806       5.97202950
12
Lattice="5.39145825784814 0.47427897903931177 0.20145012191211759 -0.6824576193786577 5.351864735278103 -0.9039236645892403 -0.924742355295067 -2.2479834329639883 7.7232834936743675" Properties=species:S:1:pos:R:3 unique_starting_index=106 config_type=initial n_minim_iter=8 stress="-0.00025874878202435575 -1.5413063261668537e-05 0.0004159171329115354 -1.5413063261668537e-05 -0.0004127881350893665 -0.0004934311482323828 0.0004159171329115354 -0.0004934311482323828 0.000267044428934066" pbc="T T T"
Si       4.01203211       0.27937920       4.16897802
Si       2.50388762       2.28974046       1.58388984
Si       0.14574998       1.85820066       4.45970705
Si       2.96962227       3.84454462      -0.18443794
Si       0.48769033       3.65786753       1.58439537
Si       1.67194162       0.08736700       3.96958370
Si      -0.07337116      -1.30037063       7.87479309
Si      -1.15511778       0.12218343       1.48682842
Si       4.05740724       3.37422823       3.09521927
Si      -0.23446636       1.70519749       6.87800801
Si       3.65315000       0.12991131       6.59079412
Si       1.61591640      -1.22979319       5.98568536
12
Lattice="5.390836989143492 0.47315489858687515 0.1960127864272875 -0.6830490356516358 5.356389824211634 -0.902373325542073 -0.9316257207473068 -2.2491901937730963 7.7187221724563155" Properties=species:S:1:pos:R:3 unique_starting_index=106 config_type=initial n_minim_iter=9 stress="-0.0003419248066922832 -0.0002687661735874867 -8.014531016229285e-05 -0.0002687661735874867 0.00018142260837307553 -0.0002917667148254377 -8.014531016229285e-05 -0.0002917667148254377 -0.00032252122541235624" pbc="T T T"
Si       4.00776932       0.27804705       4.16068157
Si       2.50268891       2.29197620       1.57830944
Si       0.14000720       1.85994028       4.45672098
Si       2.96875484       3.84715267      -0.18805142
Si       0.48467974       3.66026524       1.58370702
Si       1.66708577       0.08710856       3.96677564
Si      -0.08191264      -1.30156292       7.87073970
Si      -1.15658645       0.12186500       1.48711265
Si       4.05299405       3.37626159       3.08893482
Si      -0.24106145       1.70764283       6.87349324
Si       3.64809914       0.12932940       6.58203121
Si       1.61013146      -1.23072349       5.98126864
12
Lattice="5.394273042392797 0.47130684644465076 0.1920627687229176 -0.6848248565035253 5.3572241342325375 -0.9001226268268421 -0.9371438094448747 -2.2471563514159874 7.716060876133175" Properties=species:S:1:pos:R:3 unique_starting_index=106 config_type=initial n_minim_iter=10 stress="0.00033617095005362995 -0.0004946595034730543 -0.0002853093210961234 -0.0004946595034730543 0.00014431538464293437 0.0001310013351667101 -0.0002853093210961234 0.0001310013351667101 -0.0006835733689673977" pbc="T T T"
Si       4.00770546       0.27536688       4.15227406
Si       2.50525719       2.29454262       1.57118169
Si       0.13405146       1.86165814       4.45606736
Si       2.97009389       3.84774113      -0.19147543
Si       0.48174540       3.65893377       1.58590739
Si       1.66256066       0.08786149       3.96823914
Si      -0.09019734      -1.30155450       7.87065332
Si      -1.15957297       0.12061953       1.48804368
Si       4.05217213       3.37743445       3.08464509
Si      -0.24540201       1.71208851       6.87110372
Si       3.64957942       0.12938646       6.57605063
Si       1.60786467      -1.22914252       5.98145613
12
Lattice="5.385966562797981 0.4744830900529074 0.18994821796988004 -0.6808009346043573 5.363942704388234 -0.9015368421525567 -0.9398898232963485 -2.2518654497463624 7.723116946483491" Properties=species:S:1:pos:R:3 unique_starting_index=106 config_type=initial n_minim_iter=11 stress="-0.0006436430683425528 -0.00019593342488917766 -0.0003112119482443931 -0.00019593342488917766 0.0009010564447027726 0.000475140836546734 -0.0003112119482443931 0.000475140836546734 -0.0001914700136613455" pbc="T T T"
Si       3.99983178       0.27363883       4.14740655
Si       2.50686129       2.30268874       1.56129240
Si       0.12916848       1.86370676       4.46016996
Si       2.96896731       3.85581314      -0.19836750
Si       0.48103123       3.66050645       1.58977883
Si       1.65421327       0.08791396       3.97831289
Si      -0.09906734      -1.30720670       7.88368025
Si      -1.15986334       0.11658730       1.49043150
Si       4.04558592       3.38474979       3.08331481
Si      -0.24463877       1.71603629       6.87592342
Si       3.64853428       0.13038609       6.57764041
Si       1.60246820      -1.22975372       5.99252162
12
Lattice="5.3923779599506565 0.47607067429728506 0.19010223301117654 -0.6795440753507924 5.359935611197488 -0.9062909710169021 -0.9410433017562357 -2.2570671176181247 7.724952359281705" Properties=species:S:1:pos:R:3 unique_starting_index=106 config_type=initial n_minim_iter=12 stress="0.000415200884907238 -1.6608456586828365e-05 -0.00016500196912359695 -1.6608456586828365e-05 -8.49947873138621e-05 3.8935101922442924e-05 -0.00016500196912359695 3.8935101922442924e-05 -0.00017847337860157298" pbc="T T T"
Si       4.00469061       0.27028171       4.14483155
Si       2.51340211       2.30215384       1.55464249
Si       0.12848164       1.85870979       4.45900739
Si       2.97538180       3.85481358      -0.20408657
Si       0.48343921       3.65523189       1.58803935
Si       1.65449590       0.08414014       3.98225011
Si      -0.10132512      -1.31372080       7.88839301
Si      -1.16221377       0.11322165       1.49042924
Si       4.05124798       3.38100895       3.08016327
Si      -0.24294172       1.70942963       6.87413039
Si       3.65742221       0.12649681       6.57644597
Si       1.60449747      -1.23271179       5.99674677
12
Lattice="5.389034779354804 0.47937730736164347 0.2001070988822055 -0.676858955774829 5.355513731589421 -0.912858166509151 -0.9276405051444168 -2.2615252879389636 7.736096324952935" Properties=species:S:1:pos:R:3 unique_starting_index=106 config_type=initial n_minim_iter=13 stress="2.0954487617151057e-05 0.00044246727164200033 0.0005498109401395978 0.00044246727164200033 -0.0008131185563888911 -0.0004625814920820684 0.0005498109401395978 -0.0004625814920820684 0.0008235052971501158" pbc="T T T"
Si       4.00615100       0.27023421       4.15670211
Si       2.51893432       2.30184640       1.55456843
Si       0.13427840       1.85630702       4.46469732
Si       2.97920501       3.85510191      -0.20625261
Si       0.49339937       3.64993254       1.58902165
Si       1.65842032       0.07856239       3.99623802
Si      -0.08989129      -1.31741363       7.90533373
Si      -1.16428035       0.11148584       1.49052972
Si       4.05569471       3.37648465       3.08891178
Si      -0.22962916       1.70166442       6.88221271
Si       3.67203288       0.12499270       6.59114062
Si       1.61620256      -1.23403226       6.01241550
12
Lattice="5.386912977455411 0.4776001858656051 0.19657306154820522 -0.6784595897645529 5.3627661291072615 -0.9112619651959392 -0.9311425377439844 -2.263543423332133 7.729442925120651" Properties=species:S:1:pos:R:3 unique_starting_index=106 config_type=initial n_minim_iter=14 stress="-0.00020823853386069222 9.016305872368782e-05 -8.518780838131676e-05 9.016305872368782e-05 0.0002858345835555645 -5.169042229287904e-05 -8.518780838131676e-05 -5.169042229287904e-05 -6.24885713805312e-05" pbc="T T T"
Si       3.99793084       0.26853070       4.14670508
Si       2.52072379       2.30714954       1.54340824
Si       0.12502973       1.86268019       4.46091222
Si       2.98052248       3.85990246      -0.21469117
Si       0.49701776       3.65151437       1.58883961
Si       1.65050489       0.07386463       3.99927299
Si      -0.09788656      -1.31895835       7.90447907
Si      -1.17295368       0.11260822       1.49103338
Si       4.05046876       3.37720262       3.08183419
Si      -0.23439407       1.70494233       6.87639000
Si       3.67363101       0.12429018       6.58071282
Si       1.61721062      -1.23480497       6.01163776
12
Lattice="5.389932189897333 0.4732302954644587 0.19902119677348104 -0.6832849963443739 5.358181341162931 -0.9084797337471548 -0.9269835565549711 -2.256340019422497 7.729035740408452" Properties=species:S:1:pos:R:3 unique_starting_index=106 config_type=initial n_minim_iter=15 stress="0.0002426455027585833 -0.00021754436766758376 5.53954551837067e-05 -0.00021754436766758376 -0.000260450867578017 0.00018763122038827445 5.53954551837067e-05 0.00018763122038827445 -2.9777497445515155e-05" pbc="T T T"
Si       4.00074803       0.26777088       4.14975024
Si       2.52137873       2.30450380       1.54613195
Si       0.12573202       1.86409142       4.46277403
Si       2.97906069       3.85424356      -0.21264699
Si       0.49735381       3.64814784       1.59124671
Si       1.65085806       0.07450444       4.00129168
Si      -0.09372869      -1.31277648       7.90508349
Si      -1.17570607       0.11553272       1.49102365
Si       4.05178923       3.37389032       3.08444846
Si      -0.23305913       1.70721047       6.87961621
Si       3.67939147       0.12462491       6.58331770
Si       1.62337528      -1.23215767       6.01315516
12
Lattice="5.3897480507984294 0.47459499044160874 0.1980579389694378 -0.681833778762876 5.360333885704444 -0.9112702857944364 -0.9284166049460604 -2.2616902177383564 7.728934876552468" Properties=species:S:1:pos:R:3 unique_starting_index=106 config_type=initial n_minim_iter=16 stress="9.717128735582236e-05 1.58715983706757e-05 -2.657204346267875e-05 1.58715983706757e-05 -6.822497363858978e-05 -7.753084265840841e-05 -2.657204346267875e-05 -7.753084265840841e-05 -5.758185297889705e-06" pbc="T T T"
Si       3.99871020       0.26712867       4.14799513
Si       2.52324519       2.30673240       1.54140341
Si       0.12546709       1.86230534       4.46044359
Si       2.98010424       3.85485450      -0.21994836
Si       0.50021855       3.64824619       1.58892499
Si       1.64626288       0.07162489       4.00312024
Si      -0.09584296      -1.31827780       7.90799004
Si      -1.17739335       0.11571487       1.49085483
Si       4.05157910       3.37575608       3.07890215
Si      -0.23294857       1.70362352       6.88078437
Si       3.68198709       0.12245340       6.57948374
Si       1.62269232      -1.23760086       6.01523003
12
Lattice="5.388116466586417 0.4742311095556531 0.19901585902650437 -0.682283855109713 5.361140653496856 -0.9094016588911382 -0.926805155012795 -2.2592185681686514 7.728003929035047" Properties=species:S:1:pos:R:3 unique_starting_index=106 config_type=initial n_minim_iter=17 stress="-0.00026443342482332 -1.3490872564240864e-05 6.958870565059636e-05 -1.3490872564240864e-05 0.0001619783529819533 0.00012158306927081012 6.958870565059636e-05 0.00012158306927081012 4.247594104378994e-05" pbc="T T T"
Si       3.99718107       0.26891932       4.14933310
Si       2.52161363       2.30746554       1.54405916
Si       0.12628821       1.86446718       4.46083036
Si       2.97873434       3.85509790      -0.21821400
Si       0.50009624       3.64946491       1.59036636
Si       1.64644151       0.07333815       4.00288510
Si      -0.09364133      -1.31598612       7.90671826
Si      -1.17699744       0.11666152       1.49009641
Si       4.05153947       3.37833718       3.07995869
Si      -0.23245055       1.70633884       6.88235196
Si       3.68141874       0.12412067       6.58058023
Si       1.62337595      -1.23723845       6.01472142
12
Lattice="5.390847779489968 0.47509051587441087 0.19756918048135458 -0.6814444252609548 5.360455466905672 -0.9104066137650169 -0.9295039888914082 -2.2609901143771762 7.727249437236508" Properties=species:S:1:pos:R:3 unique_starting_index=106 config_type=initial n_minim_iter=18 stress="2.3553102901313396e-05 -4.259118542230829e-06 -7.098228780931388e-06 -4.259118542230829e-06 6.630434234481785e-06 -8.274373687253693e-06 -7.098228780931388e-06 -8.274373687253693e-06 7.141594252476704e-06" pbc="T T T"
Si       3.99614266       0.26953916       4.14671111
Si       2.52330885       2.30821398       1.54148769
Si       0.12430080       1.86374810       4.45920110
Si       2.98245963       3.85548443      -0.22202024
Si       0.50113813       3.64855737       1.58999121
Si       1.64576532       0.07206480       4.00377207
Si      -0.09592389      -1.31853683       7.90709380
Si      -1.17875783       0.11515052       1.48874491
Si       4.05463159       3.37942654       3.07610869
Si      -0.23456875       1.70414921       6.88194816
Si       3.68405251       0.12312528       6.57801247
Si       1.62228471      -1.24044018       6.01473153
12
Lattice="5.390864314809877 0.4759739232787139 0.19790317934815058 -0.6805348849214028 5.3592469216314935 -0.9100074980522186 -0.9294482580736838 -2.2601615591846222 7.726660388561223" Properties=species:S:1:pos:R:3 unique_starting_index=106 config_type=initial n_minim_iter=19 stress="-0.00010935106060788929 6.109911245191539e-05 1.639339237514916e-05 6.109911245191539e-05 -0.00021560863106867513 5.763954500427019e-05 1.639339237514916e-05 5.763954500427019e-05 -0.00020640796359417703" pbc="T T T"
Si       3.99558301       0.27264981       4.14587250
Si       2.52439046       2.30950935       1.54276365
Si       0.12264148       1.86205036       4.45983757
Si       2.98246145       3.85391229      -0.22203303
Si       0.50290940       3.65064574       1.59078096
Si       1.64612514       0.07269156       4.00530597
Si      -0.09425702      -1.31816922       7.90645361
Si      -1.17818937       0.11434893       1.48678734
Si       4.05545031       3.38180397       3.07544209
Si      -0.23390549       1.70289565       6.88149116
Si       3.68440065       0.12342676       6.57901734
Si       1.62228443      -1.24114411       6.01400503
12
Lattice="5.391019006799539 0.47570359790260436 0.19790967508620574 -0.6808754714423302 5.36007702544157 -0.9105650319096097 -0.9293127880918027 -2.261061950513222 7.727677517636627" Properties=species:S:1:pos:R:3 unique_starting_index=106 config_type=initial n_minim_iter=20 stress="-1.949022526360275e-05 1.4680267252636474e-05 6.971511471155871e-06 1.4680267252636474e-05 -3.747993267960775e-05 1.5123935452642001e-05 6.971511471155871e-06 1.5123935452642001e-05 -3.651242003200546e-05" pbc="T T T"
Si       3.99535630       0.27234180       4.14588810
Si       2.52470573       2.30997698       1.54261346
Si       0.12169573       1.86177825       4.46024300
Si       2.98230977       3.85414916      -0.22276734
Si       0.50335472       3.65113658       1.59085206
Si       1.64580461       0.07229116       4.00649443
Si      -0.09396286      -1.31921773       7.90752160
Si      -1.17880286       0.11422822       1.48666791
Si       4.05557695       3.38224591       3.07514956
Si      -0.23393486       1.70239274       6.88200631
Si       3.68480372       0.12226121       6.57990839
Si       1.62299609      -1.24216957       6.01507363
12
Lattice="5.39121810330432 0.47535241619604984 0.19784300657382167 -0.6812792705930146 5.360836625338092 -0.9112429202302376 -0.9292419832221751 -2.2621067953820395 7.7286704277931095" Properties=species:S:1:pos:R:3 unique_starting_index=106 config_type=initial n_minim_iter=21 stress="6.270406799087773e-05 -3.299666067717859e-05 -1.4139534426810773e-05 -3.299666067717859e-05 0.00012731310857722172 -2.9451410522693367e-05 -1.4139534426810773e-05 -2.9451410522693367e-05 0.00012042553870786025" pbc="T T T"
Si       3.99509756       0.27204596       4.14583490
Si       2.52504642       2.31034379       1.54255457
Si       0.12012746       1.86114099       4.46037617
Si       2.98203063       3.85413596      -0.22356876
Si       0.50390863       3.65173936       1.59071950
Si       1.64542120       0.07208375       4.00784996
Si      -0.09339914      -1.32047369       7.90842282
Si      -1.17949026       0.11413171       1.48640411
Si       4.05592627       3.38280962       3.07472290
Si      -0.23416337       1.70149271       6.88243824
Si       3.68500852       0.12048891       6.58061645
Si       1.62389151      -1.24347912       6.01604177
