16
Lattice="4.987573444178105 -0.31778996445491237 0.7061828913971792 0.6037083735394397 5.388842263902885 2.021931259570683 5.329375378845015 4.329526298387409 13.92084280256326" Properties=species:S:1:pos:R:3 unique_starting_index=138 config_type=initial n_minim_iter=1 energy=-2604.061169207299 free_energy=-2604.061169207299 pbc="T T T"
Si       2.87543174       2.04813411       4.02287288
Si       5.34462887       5.59821697       7.83627826
Si       8.89791355       8.15380556      12.98681484
Si       7.90390136       4.70151955      12.77846517
Si       6.12550831       2.02284380       3.02623956
Si       7.15493301       6.76808208      13.99671967
Si       5.36081410       5.21405016      12.93649466
Si       4.78170652       3.61227381       4.26504709
Si       5.02813595       5.73713356       5.45737845
Si       6.05151154       8.81659926      13.35887067
Si       3.54496274       6.00823135       9.35015911
Si       3.37711495       3.70219642       2.10432748
Si       0.97719336       2.55310067       5.32228530
Si       7.10406134       7.57937613      10.29171188
Si       6.66544205       4.20554708       9.42986447
Si       5.07648908       6.68732052      11.07600297
16
Lattice="4.9844387932435215 -0.3407374878133273 0.6814097864599535 0.5675259424320579 5.391847957180728 2.030109307715159 5.242460401038506 4.339849606889739 13.886652427547443" Properties=species:S:1:pos:R:3 unique_starting_index=138 config_type=initial n_minim_iter=2 stress="-0.0010352390108851056 -0.001513915053017581 -0.001575403016544243 -0.001513915053017581 -0.0005380818221232886 0.0009350916308420618 -0.001575403016544243 0.0009350916308420618 -0.0015281815872383133" pbc="T T T"
Si       2.84452202       2.04639577       4.00801440
Si       5.27927738       5.59316888       7.81739433
Si       8.79994691       8.14479358      12.94905100
Si       7.81712043       4.69603559      12.73533025
Si       6.10378573       2.00054342       2.99884597
Si       7.05366788       6.77211806      13.96204146
Si       5.27180873       5.22128961      12.90486231
Si       4.74055053       3.60221142       4.24460069
Si       4.97429732       5.72359052       5.44159158
Si       5.94575181       8.82263348      13.33324974
Si       3.46932528       6.01409777       9.33619537
Si       3.34881988       3.69179385       2.09408244
Si       0.93839234       2.56102383       5.31203298
Si       7.01847005       7.57054498      10.26176665
Si       6.60021457       4.19798536       9.39520705
Si       4.99041489       6.69294017      11.05770674
16
Lattice="5.003652439195288 -0.34426150786565013 0.6856077469307423 0.5675254083491179 5.403590416388599 2.0369507899768244 5.2636502671670575 4.342876168895795 13.944504777027074" Properties=species:S:1:pos:R:3 unique_starting_index=138 config_type=initial n_minim_iter=3 stress="0.003850626929674629 -0.0011935323225243345 -0.0013397812792697197 -0.0011935323225243345 0.003705265109549226 0.0007031929768268359 -0.0013397812792697197 0.0007031929768268359 0.0041165963939582585" pbc="T T T"
Si       2.85217912       2.05105425       4.02374544
Si       5.29702046       5.60128129       7.85649241
Si       8.84276268       8.15488851      13.00510764
Si       7.84165375       4.69927852      12.78935357
Si       6.13448049       2.00203732       3.01241690
Si       7.07749131       6.78465703      14.02326709
Si       5.28809989       5.22479334      12.95633505
Si       4.75397357       3.61115170       4.25848429
Si       4.99267828       5.72556046       5.46517687
Si       5.97049617       8.83686972      13.38667253
Si       3.47787746       6.02027747       9.37511911
Si       3.36201684       3.69903982       2.09949948
Si       0.94013724       2.56228231       5.32321933
Si       7.04764054       7.57849879      10.30106901
Si       6.62682018       4.20174171       9.43284370
Si       5.00708734       6.70599044      11.11246133
16
Lattice="4.995226865673797 -0.33666070270722054 0.7012671655687583 0.5812669036199686 5.376947203629095 2.0235428700090012 5.305250610603356 4.303245407883826 13.924563938027795" Properties=species:S:1:pos:R:3 unique_starting_index=138 config_type=initial n_minim_iter=4 stress="-0.0003082548371751032 0.0003048998243830718 -0.00022626901451423115 0.0003048998243830718 -0.001539853032424204 -0.0011738897697991827 -0.00022626901451423115 -0.0011738897697991827 0.0005549580963230267" pbc="T T T"
Si       2.85671373       2.04291367       4.01838077
Si       5.31701114       5.56908927       7.86079957
Si       8.90106722       8.10506198      12.99635756
Si       7.86214131       4.66521702      12.78049486
Si       6.15044466       1.99846837       3.02319064
Si       7.11326842       6.74692948      14.01069983
Si       5.31892947       5.17920564      12.93231134
Si       4.75634794       3.60191747       4.24941965
Si       5.01087519       5.68314209       5.46270982
Si       6.02289774       8.78218539      13.35915299
Si       3.50295864       5.97367790       9.35752724
Si       3.37151377       3.68580481       2.09233175
Si       0.95604888       2.53650746       5.28885881
Si       7.08596643       7.52900483      10.28159935
Si       6.65310659       4.17410357       9.42292035
Si       5.04001131       6.66899986      11.11191646
16
Lattice="4.997863589920143 -0.3362212160219561 0.7119672934912226 0.5861973773027161 5.4107014107534805 2.040154301517597 5.345846599864346 4.380516641526326 13.906141239988282" Properties=species:S:1:pos:R:3 unique_starting_index=138 config_type=initial n_minim_iter=5 stress="-0.00048784635684350245 0.0004588131492990255 0.0010850925746686522 0.0004588131492990255 0.001831056066348483 0.0012480537512168436 0.0010850925746686522 0.0012480537512168436 -0.0010248391448404173" pbc="T T T"
Si       2.86858878       2.06890769       4.01819679
Si       5.33663546       5.62558081       7.87642925
Si       8.94849693       8.19597294      13.01214246
Si       7.89176739       4.74065457      12.77642253
Si       6.16446185       2.01999191       3.04066543
Si       7.15196016       6.84122664      14.00887970
Si       5.35168929       5.25396425      12.92062922
Si       4.76533459       3.63767241       4.25613264
Si       5.02738833       5.72790774       5.48590774
Si       6.06616343       8.87969183      13.36258794
Si       3.52743259       6.03615177       9.36118628
Si       3.37981823       3.71285760       2.10571620
Si       0.96897725       2.56947369       5.27482294
Si       7.11687192       7.60357244      10.29028493
Si       6.68146732       4.23077034       9.42193958
Si       5.07065075       6.74952813      11.11983347
16
Lattice="5.04506208179954 -0.3682789443605143 0.703408248221235 0.5522369063801431 5.384093665625545 2.039246534940225 5.342870316669452 4.327936302130052 13.894429692774297" Properties=species:S:1:pos:R:3 unique_starting_index=138 config_type=initial n_minim_iter=6 stress="0.0024341321425609447 -0.0010977993723588677 -0.002569816670317692 -0.0010977993723588677 0.0006453545305526963 -0.0005660570573204639 -0.002569816670317692 -0.0005660570573204639 0.0005618516510248122" pbc="T T T"
Si       2.88856076       2.03324173       3.99877219
Si       5.32197858       5.55647507       7.89399619
Si       9.00324345       8.10423083      13.02081990
Si       7.86719134       4.68375672      12.76606300
Si       6.21580475       1.97145055       3.04905582
Si       7.14461745       6.79370339      13.99107277
Si       5.32121552       5.18061806      12.91271504
Si       4.76479919       3.59573369       4.20936112
Si       5.03214215       5.66045310       5.50846729
Si       6.06704163       8.81170028      13.34940190
Si       3.49415400       5.96686960       9.38090650
Si       3.39853483       3.68368365       2.07506966
Si       0.93564331       2.55148303       5.24325732
Si       7.11790363       7.51755142      10.24730425
Si       6.70549290       4.15850474       9.38610737
Si       5.04779141       6.70772724      11.13151668
16
Lattice="5.04130044145987 -0.37399875101181357 0.736345648353165 0.5546677737636203 5.37347415276326 2.064741609001988 5.414909516879749 4.347405333560377 13.980230955405174" Properties=species:S:1:pos:R:3 unique_starting_index=138 config_type=initial n_minim_iter=7 stress="-0.0004534951677847725 -0.0013789729498910471 -0.0006570293907397852 -0.0013789729498910471 -0.00030328095246933383 0.00013866070592586326 -0.0006570293907397852 0.00013866070592586326 0.0026582436608651584" pbc="T T T"
Si       2.91614260       2.02543755       4.02830683
Si       5.34660089       5.54656586       7.97759478
Si       9.07476997       8.10601117      13.15388476
Si       7.90381288       4.70614824      12.86818337
Si       6.21916646       1.96302889       3.11413420
Si       7.21130582       6.81402579      14.08992211
Si       5.37550025       5.18656868      13.00465508
Si       4.77470684       3.59011499       4.24283727
Si       5.05063609       5.65152775       5.58927127
Si       6.13926748       8.82048914      13.45219616
Si       3.53496707       5.96093060       9.46565516
Si       3.40772078       3.67749145       2.09944649
Si       0.95621173       2.56008780       5.26464300
Si       7.15448503       7.51101711      10.32907507
Si       6.74891633       4.15610883       9.45365290
Si       5.09744367       6.71987166      11.21572125
16
Lattice="5.077022766552769 -0.3599097210063242 0.7636145570841721 0.5855253516807827 5.373343459785237 2.0628714376981034 5.55336169063975 4.383093663784596 13.911953608369492" Properties=species:S:1:pos:R:3 unique_starting_index=138 config_type=initial n_minim_iter=8 stress="-0.00025911125965651663 0.001059668664229056 0.0003201599326606011 0.001059668664229056 -3.133905444385477e-05 -0.000717647140257863 0.0003201599326606011 -0.000717647140257863 -0.0010316211141163118" pbc="T T T"
Si       2.98014072       2.02475768       4.01170487
Si       5.43863619       5.55620895       7.97492353
Si       9.26516541       8.15069223      13.14699493
Si       8.01634721       4.76599235      12.82859223
Si       6.28071382       1.98075468       3.14891346
Si       7.37161495       6.86465367      14.02990897
Si       5.49538746       5.20827733      12.95693799
Si       4.84214159       3.61021055       4.22183548
Si       5.13663443       5.66650706       5.61153641
Si       6.30741317       8.86095749      13.40362275
Si       3.63185352       5.96610823       9.45479054
Si       3.46613876       3.69220886       2.09129176
Si       0.99609591       2.57406289       5.22678622
Si       7.28277464       7.53673866      10.28714681
Si       6.86851240       4.17820575       9.40887348
Si       5.21975631       6.75486015      11.16995302
16
Lattice="5.15079029564468 -0.37882848077430026 0.8474964479517163 0.5966719472824634 5.34198036904295 2.128896742058103 5.846976316509548 4.482153130234067 13.97707525910836" Properties=species:S:1:pos:R:3 unique_starting_index=138 config_type=initial n_minim_iter=9 stress="-0.0035384635600590633 0.0006079590754507386 0.002130095447170687 0.0006079590754507386 0.0013601165410839075 0.0008120431793807056 0.002130095447170687 0.0008120431793807056 -0.0013272018259800108" pbc="T T T"
Si       3.09109037       2.01158917       4.04932963
Si       5.59704657       5.53696346       8.14208374
Si       9.63911668       8.19656753      13.39720199
Si       8.21180525       4.89660496      12.95127505
Si       6.40260278       1.95383012       3.29569074
Si       7.68203985       6.95855732      14.14871097
Si       5.72448403       5.26246921      13.06943808
Si       4.95494171       3.62708945       4.26753422
Si       5.27224207       5.62000912       5.78203489
Si       6.61110457       8.92672390      13.54534535
Si       3.78942289       5.95863967       9.62027377
Si       3.56006671       3.67349383       2.12529246
Si       1.07032663       2.61082781       5.21141436
Si       7.50408092       7.52499456      10.39981540
Si       7.10699196       4.20030086       9.46282456
Si       5.43990440       6.81220592      11.27657027
16
Lattice="5.223075914556055 -0.3870192244002336 0.8978829983091537 0.6080825577479281 5.300654006060244 2.1732685166330232 6.055527378090162 4.536462787789558 14.01714098800352" Properties=species:S:1:pos:R:3 unique_starting_index=138 config_type=initial n_minim_iter=10 stress="-0.0032565268299417165 0.000565904353763911 0.002451562706969703 0.000565904353763911 0.0015274018498375867 0.001628430154587945 0.002451562706969703 0.001628430154587945 -0.0024056377375897826" pbc="T T T"
Si       3.17001639       2.00076054       4.07295268
Si       5.72597614       5.50925996       8.24807874
Si       9.92221370       8.20286862      13.55568113
Si       8.36564131       4.97259611      13.02427583
Si       6.51266454       1.93122663       3.38290881
Si       7.91401375       6.99655010      14.22588603
Si       5.89220432       5.28630013      13.14194954
Si       5.05411116       3.63076716       4.29981209
Si       5.38439127       5.56723205       5.88497161
Si       6.82900276       8.94034369      13.63698476
Si       3.90357671       5.93480295       9.72839954
Si       3.63942558       3.64788579       2.14556742
Si       1.12230016       2.62526789       5.20182297
Si       7.68148342       7.49101561      10.47499933
Si       7.29013946       4.20782087       9.49270207
Si       5.60200834       6.82541614      11.34338536
16
Lattice="5.302196209640376 -0.39437381862621157 0.9407929423642342 0.6151643570479576 5.222272263817769 2.222354764554115 6.241243236735566 4.551584482536434 14.110171374642643" Properties=species:S:1:pos:R:3 unique_starting_index=138 config_type=initial n_minim_iter=11 stress="-0.0014504435514323911 -0.00047170823423255446 0.0016958195987180793 -0.00047170823423255446 -0.00022421739270526208 0.001353343068526873 0.0016958195987180793 0.001353343068526873 -0.0017691862337161238" pbc="T T T"
Si       3.22645061       1.98309695       4.11135635
Si       5.85257917       5.44256438       8.37057421
Si      10.17252334       8.14612734      13.74311858
Si       8.50334428       5.00883337      13.13489535
Si       6.62057560       1.88661272       3.45511602
Si       8.13735832       6.96267974      14.35670715
Si       6.04576686       5.27309650      13.27329287
Si       5.17188561       3.61937079       4.35933779
Si       5.48800735       5.46304210       5.97809918
Si       7.00614300       8.88330086      13.77290352
Si       3.99926913       5.86464298       9.87368083
Si       3.71939532       3.59624564       2.16483310
Si       1.17779314       2.61846698       5.22490694
Si       7.85200413       7.39420341      10.59785545
Si       7.46462627       4.19432776       9.54824130
Si       5.74634292       6.77199796      11.43391347
16
Lattice="5.273473161245463 -0.3827813726022377 0.904076808066843 0.610905261980593 5.219962708966527 2.210177486649791 6.1151826667894 4.524866654547831 14.11900768690904" Properties=species:S:1:pos:R:3 unique_starting_index=138 config_type=initial n_minim_iter=12 stress="-0.0005229096934484054 0.0007150532090982105 -0.0007754214790283027 0.0007150532090982105 -0.0007975340811125984 0.0007365324362075767 -0.0007754214790283027 0.0007365324362075767 0.002021959672584454" pbc="T T T"
Si       3.16924354       1.99555870       4.10495795
Si       5.78505250       5.44627168       8.32986438
Si      10.01377358       8.12826192      13.67769938
Si       8.40679960       4.97295020      13.11610703
Si       6.57008667       1.89240278       3.39480125
Si       8.01459839       6.92767485      14.35231434
Si       5.94484296       5.25827209      13.27577970
Si       5.14179417       3.62385246       4.35669629
Si       5.42990626       5.46169848       5.92185742
Si       6.86888339       8.85477932      13.75517547
Si       3.92512121       5.85474185       9.85060417
Si       3.68825850       3.60133597       2.14963897
Si       1.15399407       2.60526962       5.24853881
Si       7.76435843       7.38710292      10.59203780
Si       7.37017398       4.20100121       9.54138601
Si       5.65102730       6.74266093      11.41833899
16
Lattice="5.304758810606675 -0.4102870393636607 0.9134351255571006 0.5907068629781913 5.20656213783222 2.19044890770209 6.151381763908671 4.452686509636936 14.082810756913387" Properties=species:S:1:pos:R:3 unique_starting_index=138 config_type=initial n_minim_iter=13 stress="0.001997749047005484 -0.00217712260194948 -0.0002575759387703482 -0.00217712260194948 0.0014010756349948272 -0.002684630450982974 -0.0002575759387703482 -0.002684630450982974 0.0006060312047324505" pbc="T T T"
Si       3.17559898       1.97735710       4.08492953
Si       5.79515061       5.39387329       8.30778386
Si      10.06224012       8.03180224      13.63676616
Si       8.42351196       4.89277334      13.08430354
Si       6.60448950       1.84419365       3.38990048
Si       8.05672747       6.85155428      14.32125879
Si       5.96778277       5.18135022      13.25078212
Si       5.17129104       3.59522543       4.34041561
Si       5.44100096       5.40425575       5.90583251
Si       6.87920279       8.77679154      13.70509587
Si       3.93105911       5.78484765       9.82952945
Si       3.70137767       3.58510991       2.12811201
Si       1.16256792       2.58316953       5.22420797
Si       7.79372561       7.30482549      10.56634173
Si       7.41153907       4.14571777       9.51153919
Si       5.66080301       6.68041721      11.38748910
16
Lattice="5.370068288666752 -0.4044189221060698 0.92386283446452 0.6012812034931251 5.163857857322135 2.227016001377563 6.254011841027311 4.500191022634816 14.113750049567425" Properties=species:S:1:pos:R:3 unique_starting_index=138 config_type=initial n_minim_iter=14 stress="0.004703210748952945 -0.0008251105207300627 -0.0024788700897358054 -0.0008251105207300627 0.0011041281963817824 -0.0022433992402553747 -0.0024788700897358054 -0.0022433992402553747 -0.0008954167708656419" pbc="T T T"
Si       3.21480206       1.99913593       4.07154957
Si       5.85847837       5.39020867       8.36491812
Si      10.25014740       8.02496611      13.70659212
Si       8.46577167       4.93435756      13.12405251
Si       6.69335199       1.82761118       3.41643540
Si       8.20392477       6.89885672      14.38973140
Si       6.04308077       5.19238985      13.32116202
Si       5.27559454       3.60518128       4.34877463
Si       5.51781294       5.36148395       5.97545500
Si       6.98420934       8.77480666      13.76329150
Si       3.98990862       5.73578732       9.91440664
Si       3.77783874       3.58632880       2.12107547
Si       1.19742519       2.59541770       5.22575069
Si       7.92101751       7.26837318      10.63430932
Si       7.53362472       4.18203751       9.51837085
Si       5.73495796       6.69103535      11.45039132
16
Lattice="5.414133617501321 -0.4070699713622147 0.9505696752213756 0.6070932814164892 5.120715390975904 2.2604599007280073 6.3648409904425955 4.519483239315569 14.182439016671749" Properties=species:S:1:pos:R:3 unique_starting_index=138 config_type=initial n_minim_iter=15 stress="0.004704465653762488 -0.0012079173009530186 -0.0015940597920750612 -0.0012079173009530186 -0.00032961708770439365 -0.002137349346667831 -0.0015940597920750612 -0.002137349346667831 -0.002280905187494426" pbc="T T T"
Si       3.25481742       2.02425815       4.05747962
Si       5.90650577       5.38224396       8.41886883
Si      10.38732826       7.97815795      13.78468619
Si       8.50297331       4.92511879      13.20603023
Si       6.73789083       1.79165242       3.45655320
Si       8.36344151       6.91316247      14.49926844
Si       6.13454051       5.17404144      13.43451035
Si       5.38965925       3.59228000       4.38443440
Si       5.57121681       5.32682448       6.06299566
Si       7.06652426       8.73933498      13.84896949
Si       4.06811750       5.66339103      10.00986510
Si       3.83675128       3.59302190       2.13173954
Si       1.25687988       2.60862565       5.26678076
Si       8.02722317       7.21442278      10.75789235
Si       7.64117523       4.20760797       9.56957733
Si       5.80626252       6.67002482      11.52957787
16
Lattice="5.37930812225652 -0.39712491325183585 0.9437852218727706 0.6118448658981624 5.140542572105953 2.2625163236339993 6.3161610126779895 4.543702228874526 14.201563611029316" Properties=species:S:1:pos:R:3 unique_starting_index=138 config_type=initial n_minim_iter=16 stress="0.0010044463968604893 0.00043747507148597545 -0.0017209200107671616 0.00043747507148597545 0.0005823292185722438 -0.001207573567769718 -0.0017209200107671616 -0.001207573567769718 -0.000635010705998527" pbc="T T T"
Si       3.24209219       2.05436038       4.04224169
Si       5.86594303       5.42739074       8.40458493
Si      10.29822807       8.01258038      13.76243767
Si       8.44459792       4.93032253      13.22391696
Si       6.68286857       1.80549413       3.44784950
Si       8.31760068       6.95226153      14.51662116
Si       6.09510366       5.19410991      13.45609383
Si       5.38002887       3.60324622       4.39109573
Si       5.53194761       5.37590052       6.06904308
Si       7.00832158       8.77107835      13.86057436
Si       4.05652030       5.68125636      10.00960491
Si       3.82005124       3.62759091       2.13957666
Si       1.26415294       2.62696055       5.29910236
Si       7.97582449       7.25717007      10.79067376
Si       7.58590078       4.24768996       9.58983297
Si       5.76934512       6.69392690      11.54173642
16
Lattice="5.392979237793704 -0.39849962367953706 0.9776779915961761 0.6209078746034894 5.127685440959798 2.290959141069688 6.414755315413615 4.574590825343826 14.28198518687498" Properties=species:S:1:pos:R:3 unique_starting_index=138 config_type=initial n_minim_iter=17 stress="-0.0008356031781853627 -0.000370244912993991 0.0010419245321737732 -0.000370244912993991 -0.0009394018936277564 0.0008334504987781472 0.0010419245321737732 0.0008334504987781472 0.00037993590238629164" pbc="T T T"
Si       3.28694701       2.07433392       4.04915530
Si       5.92019621       5.44464368       8.47058148
Si      10.38323974       8.01660779      13.86178903
Si       8.50901322       4.94350796      13.32759883
Si       6.69879544       1.79314538       3.50561355
Si       8.42974690       6.97574533      14.61421924
Si       6.17748281       5.20429277      13.54676537
Si       5.43750539       3.59362540       4.44197170
Si       5.55887523       5.38720684       6.14453748
Si       7.09321698       8.77552811      13.95885964
Si       4.13359071       5.67767579      10.08037418
Si       3.85165891       3.63453104       2.18119589
Si       1.31681274       2.64622926       5.34979205
Si       8.03984549       7.25842173      10.90426153
Si       7.64519093       4.26800555       9.66678991
Si       5.85066425       6.69103285      11.61722765
16
Lattice="5.36500662680523 -0.38845577122076214 0.99564386069968 0.6373055749739185 5.162645644995208 2.2950493797378115 6.44169809056624 4.614348320270415 14.314220578001166" Properties=species:S:1:pos:R:3 unique_starting_index=138 config_type=initial n_minim_iter=18 stress="-0.0067136294671029835 0.0007105880992139395 0.0021282175797378497 0.0007105880992139395 4.088120551085857e-05 0.0027797362220627546 0.0021282175797378497 0.0027797362220627546 0.0017979141736756447" pbc="T T T"
Si       3.32138216       2.13303278       4.01203995
Si       5.94358648       5.52706176       8.49964904
Si      10.37929835       8.08174176      13.87090067
Si       8.49395401       4.96655416      13.39633282
Si       6.67585667       1.80547098       3.54029438
Si       8.44699922       7.03469451      14.63228088
Si       6.17440290       5.21996902      13.56635574
Si       5.45229246       3.61138767       4.46345550
Si       5.52542051       5.46611441       6.17096230
Si       7.12033471       8.82739506      13.98735256
Si       4.17857313       5.72141721      10.08559225
Si       3.87896347       3.69196935       2.21718144
Si       1.36946002       2.67762699       5.39430506
Si       8.02988437       7.32215526      10.96525878
Si       7.61131408       4.31560962       9.70748010
Si       5.89776144       6.70879158      11.64682693
16
Lattice="5.4397677423675415 -0.3860045332419041 1.0153123468270902 0.6555025398235291 5.1344161056558475 2.2927579199154593 6.578908603182356 4.592808543794494 14.302399302693411" Properties=species:S:1:pos:R:3 unique_starting_index=138 config_type=initial n_minim_iter=19 stress="0.000401696996814086 5.968506479266931e-05 0.0014540530488105273 5.968506479266931e-05 -0.002232151948824804 0.002556937554509214 0.0014540530488105273 0.002556937554509214 0.000634082522278633" pbc="T T T"
Si       3.38919168       2.17226727       3.96442651
Si       6.07232618       5.53479098       8.52268031
Si      10.57812700       8.03962628      13.85715399
Si       8.59473782       4.93705139      13.42405418
Si       6.79107224       1.77279864       3.55857096
Si       8.61229290       6.99507302      14.61597353
Si       6.25799451       5.16406282      13.55629671
Si       5.57455878       3.60466650       4.48021053
Si       5.58775391       5.43906033       6.17191012
Si       7.25570889       8.76779318      13.97047822
Si       4.27020812       5.68199609      10.08554968
Si       3.98785562       3.70374450       2.22886148
Si       1.45015671       2.67085505       5.40129618
Si       8.17339286       7.26743509      10.99873243
Si       7.71883083       4.30597627       9.70323992
Si       6.03380777       6.63203534      11.64419179
16
Lattice="5.417378919113376 -0.3889046597517285 0.9978207837808286 0.6493350193699284 5.15676384926705 2.2550218986566164 6.510620213324444 4.541905064075469 14.230243530055182" Properties=species:S:1:pos:R:3 unique_starting_index=138 config_type=initial n_minim_iter=20 stress="0.001186189971758816 -0.00011335448180399222 -0.0003654261969622098 -0.00011335448180399222 0.0008183940316686937 -0.0004802712387854557 -0.0003654261969622098 -0.0004802712387854557 0.00043468502637352487" pbc="T T T"
Si       3.35699843       2.17002663       3.94319436
Si       6.03985709       5.53335014       8.46105383
Si      10.50326515       8.02543387      13.75939098
Si       8.53674717       4.90061521      13.34624699
Si       6.76853800       1.76949901       3.51461218
Si       8.52586946       6.95001430      14.51604005
Si       6.18940030       5.12701956      13.47255343
Si       5.53320381       3.61303222       4.44693580
Si       5.55274746       5.43914694       6.09769348
Si       7.18710753       8.74615650      13.86931092
Si       4.21502961       5.68203225      10.01549481
Si       3.96841049       3.71518242       2.19280262
Si       1.43100511       2.65174976       5.36207318
Si       8.11903791       7.25679924      10.90816998
Si       7.65754324       4.27651925       9.63939860
Si       5.97995224       6.60219392      11.56548196
16
Lattice="5.401445951273009 -0.38358604543134056 1.0028167075298506 0.6563460819434257 5.161199395888227 2.248770125320444 6.51302131589159 4.53879973266183 14.222737350833937" Properties=species:S:1:pos:R:3 unique_starting_index=138 config_type=initial n_minim_iter=21 stress="-0.0022307632070829556 -0.0006385068810364373 -0.0014331617791795825 -0.0006385068810364373 0.0002722918632278389 -0.0012483958661311204 -0.0014331617791795825 -0.0012483958661311204 -0.0011313865969574844" pbc="T T T"
Si       3.34968212       2.19406003       3.93088657
Si       6.04243860       5.56334580       8.45373731
Si      10.50803014       8.02890072      13.75508208
Si       8.50315742       4.89838183      13.34193117
Si       6.75829094       1.76060190       3.50408398
Si       8.52525966       6.95076918      14.50178371
Si       6.17545260       5.11756815      13.47335693
Si       5.54382310       3.62899030       4.46292322
Si       5.55414047       5.44704867       6.09786979
Si       7.17790632       8.73587722      13.85022696
Si       4.20563446       5.68296047      10.02498329
Si       3.97802861       3.74167869       2.17671064
Si       1.45647690       2.65259718       5.34906407
Si       8.13018234       7.24936788      10.91362274
Si       7.65105113       4.27683095       9.63066834
Si       5.97223716       6.58508659      11.56066324
