6
Lattice="3.7922069391083415 -9.674232079621327e-64 4.956312263541587e-49 1.433987515939736e-63 3.7922069391083415 -3.569808180303535e-15 -1.7430297478555073e-48 1.2554257120112919e-14 13.336386315915293" Properties=species:S:1:pos:R:3 unique_starting_index=46 config_type=initial n_minim_iter=1 energy=-973.7006340587177 free_energy=-973.7006340587177 pbc="T T T"
Si       3.01010426       0.78210268      10.24421257
Si       0.78210268       3.01010426      10.24421257
Si       3.01010426       3.01010426       3.09217375
Si       0.78210268       0.78210268       3.09217375
Si       1.89610347       1.89610347      12.00620516
Si       1.89610347       1.89610347       1.33018116
6
Lattice="3.705341243743008 -1.851190755260549e-64 7.53493445006225e-49 1.9478287105313004e-63 3.7053412437430078 -3.8833512152593736e-15 -8.818961773525168e-49 1.1756241530832491e-14 13.956674892015076" Properties=species:S:1:pos:R:3 unique_starting_index=46 config_type=initial n_minim_iter=2 stress="0.0009242095493572289 3.47634681492327e-18 -8.213627685776904e-18 3.47634681492327e-18 0.000924209549357266 4.459230799435361e-17 -8.213627685776904e-18 4.459230799435361e-17 -0.002662221263940617" pbc="T T T"
Si       2.90369490       0.80164635      10.71960401
Si       0.80164635       2.90369490      10.71960401
Si       2.90369490       2.90369490       3.23707088
Si       0.80164635       0.80164635       3.23707088
Si       1.85267062       1.85267062      12.55174983
Si       1.85267062       1.85267062       1.40492507
6
Lattice="3.642743520054287 1.4588244017981341e-64 9.841257345013999e-49 1.7551892159309925e-63 3.6427435200542866 -2.814227667115629e-15 -1.873650485148551e-49 1.586541170524242e-14 14.486255263355433" Properties=species:S:1:pos:R:3 unique_starting_index=46 config_type=initial n_minim_iter=3 stress="-0.0015842182360915565 1.6749232278522993e-17 5.830812218709003e-18 1.6749232278522993e-17 -0.0015842182360914457 2.895773038622625e-17 5.830812218709003e-18 2.895773038622625e-17 -0.0018149223194893658" pbc="T T T"
Si       2.82747378       0.81526974      11.12569274
Si       0.81526974       2.82747378      11.12569274
Si       2.82747378       2.82747378       3.36056253
Si       0.81526974       0.81526974       3.36056253
Si       1.82137176       1.82137176      13.01593722
Si       1.82137176       1.82137176       1.47031804
6
Lattice="3.6247595142548152 4.1103365093331165e-64 1.2439480223159082e-48 1.7460621118441905e-63 3.6247595142548157 -2.561319211365123e-15 5.9900432781619824e-49 1.709033497133786e-14 14.984819729208528" Properties=species:S:1:pos:R:3 unique_starting_index=46 config_type=initial n_minim_iter=4 stress="0.001863751891454387 1.2969646712148767e-17 4.3682536907670016e-17 1.2969646712148767e-17 0.0018637518914544232 -2.2973101976007186e-17 4.3682536907670016e-17 -2.2973101976007186e-17 0.002902809946319891" pbc="T T T"
Si       2.79111671       0.83364280      11.50884293
Si       0.83364280       2.79111671      11.50884293
Si       2.79111671       2.79111671       3.47597680
Si       0.83364280       0.83364280       3.47597680
Si       1.81237976       1.81237976      13.44861278
Si       1.81237976       1.81237976       1.53620695
6
Lattice="3.6036503588927995 -7.490434166294133e-64 -1.0422804232470026e-48 2.2028325487341584e-63 3.603650358892799 -2.338612169358921e-15 -7.442175626217886e-48 1.7800464763912484e-14 15.002839208904165" Properties=species:S:1:pos:R:3 unique_starting_index=46 config_type=initial n_minim_iter=5 stress="-0.0022275984402008726 6.781073345310127e-17 -4.839381054358319e-18 6.781073345310127e-17 -0.0022275984402008726 4.135537628211778e-17 -4.839381054358319e-18 4.135537628211778e-17 3.750163292734229e-05" pbc="T T T"
Si       2.76895772       0.83469264      11.52466143
Si       0.83469264       2.76895772      11.52466143
Si       2.76895772       2.76895772       3.47817778
Si       0.83469264       0.83469264       3.47817778
Si       1.80182518       1.80182518      13.45526279
Si       1.80182518       1.80182518       1.54757642
6
Lattice="3.617257200776122 1.1485433538398967e-62 2.0407578929291215e-47 1.9462950071163957e-64 3.6172572007761215 -2.4089261588198785e-15 6.807215176624927e-47 1.756077650201977e-14 14.922850852947274" Properties=species:S:1:pos:R:3 unique_starting_index=46 config_type=initial n_minim_iter=6 stress="-0.00027204020758407355 4.150711151181422e-17 2.7611470900768554e-17 4.150711151181422e-17 -0.0002720402075840008 5.0737805204087524e-17 2.7611470900768554e-17 5.0737805204087524e-17 -0.0016613571025888671" pbc="T T T"
Si       2.78084308       0.83641412      11.46484730
Si       0.83641412       2.78084308      11.46484730
Si       2.78084308       2.78084308       3.45800355
Si       0.83641412       0.83641412       3.45800355
Si       1.80862860       1.80862860      13.37837129
Si       1.80862860       1.80862860       1.54447957
6
Lattice="3.6284686929192014 -1.090346629754094e-60 -1.3048257002741203e-45 1.9471536652242163e-61 3.6284686929192014 -3.6188637630623785e-15 -4.5913292991172025e-45 1.3480176246826488e-14 15.069085993110438" Properties=species:S:1:pos:R:3 unique_starting_index=46 config_type=initial n_minim_iter=7 stress="0.002378020006426459 -4.812547281270467e-17 7.377879372810588e-17 -4.812547281270467e-17 0.002378020006426602 -2.817266954534385e-17 7.377879372810588e-17 -2.817266954534385e-17 0.00019037503927446644" pbc="T T T"
Si       2.78823126       0.84023744      11.58165588
Si       0.84023744       2.78823126      11.58165588
Si       2.78823126       2.78823126       3.48743011
Si       0.84023744       0.84023744       3.48743011
Si       1.81423435       1.81423435      13.48533474
Si       1.81423435       1.81423435       1.58375125
6
Lattice="3.634645993016265 1.513469080178841e-58 9.095424852788255e-44 3.689547984591638e-59 3.6346459930162665 -4.364308905097837e-15 3.200121901799738e-43 1.078722249709594e-14 14.978157535899532" Properties=species:S:1:pos:R:3 unique_starting_index=46 config_type=initial n_minim_iter=8 stress="-0.0004024665327988965 -1.3129357001172877e-16 3.7712904153097657e-17 -1.3129357001172877e-16 -0.0004024665327987888 1.2635986087041985e-17 3.7712904153097657e-17 1.2635986087041985e-17 -0.0009220435465687514" pbc="T T T"
Si       2.81246807       0.82217792      11.51667852
Si       0.82217792       2.81246807      11.51667852
Si       2.81246807       2.81246807       3.46147902
Si       0.82217792       0.82217792       3.46147902
Si       1.81732300       1.81732300      13.38462751
Si       1.81732300       1.81732300       1.59353003
6
Lattice="3.632350151241501 -1.3259315373823097e-57 -1.2016895293349386e-42 1.9126815457294907e-58 3.6323501512415026 -4.7684617764478775e-15 -4.2246557908182565e-42 9.440691772455232e-15 15.041542605390832" Properties=species:S:1:pos:R:3 unique_starting_index=46 config_type=initial n_minim_iter=9 stress="1.5156713675918071e-05 -1.4433183847330276e-16 -9.614714843841397e-18 -1.4433183847330276e-16 1.5156713676025481e-05 1.2211790025695335e-16 -9.614714843841397e-18 1.2211790025695335e-16 8.979127764716906e-05" pbc="T T T"
Si       2.80724357       0.82510658      11.56532089
Si       0.82510658       2.80724357      11.56532089
Si       2.80724357       2.80724357       3.47622171
Si       0.82510658       0.82510658       3.47622171
Si       1.81617508       1.81617508      13.43990897
Si       1.81617508       1.81617508       1.60163364
