22
Lattice="5.840957131391216 1.5424808623652153 0.5454033193475764 4.385251596485141 7.400351667769498 1.4020128814003634 2.7752509064827855 4.081267766194897 12.198080658162894" Properties=species:S:1:pos:R:3 unique_starting_index=40 config_type=initial n_minim_iter=1 energy=-3582.023739225849 free_energy=-3582.023739225849 pbc="T T T"
Si       9.52039327       7.78991259      11.10175662
Si       2.69500798       4.53995190       4.58738568
Si       5.99846612       3.39029277       5.86218398
Si       6.49794413       9.01816335      10.89689727
Si       5.97376308       5.57852046      11.24959903
Si       8.62713682       8.40059097       5.69747010
Si       7.37132528       3.79703273       2.61769543
Si       8.08110462       8.86678489       7.92436182
Si       5.27913317       3.38984803       1.60102679
Si       8.31180467       9.46914133      12.48217697
Si       6.56813003       7.50992083       9.06816477
Si       5.37296473      10.93587709       9.78897103
Si       3.02371003       3.45499857       0.59622203
Si       2.90916676       3.68149683       6.84918124
Si       5.55614860       3.42125740      12.21681275
Si      10.16372325       8.59743280       8.93422047
Si       5.19791930       6.27059346       5.28060844
Si       6.26376507       8.37047116       5.36081451
Si       6.75386355       5.85842566       3.58746330
Si       4.93848043       4.96511030       7.36916208
Si       8.33780309       5.85149933      11.98745055
Si       4.56482547       3.29025330       3.87087993
22
Lattice="5.842105526876762 1.5421801905353396 0.5447761139030829 4.38598265374109 7.399401695696873 1.400411892602613 2.7749285892074176 4.078305922782824 12.199475018822671" Properties=species:S:1:pos:R:3 unique_starting_index=40 config_type=initial n_minim_iter=2 stress="0.00010187797625602598 8.54643470022322e-06 -6.885341349921275e-07 8.54643470022322e-06 9.75015118849228e-05 -2.1100195700460653e-05 -6.885341349921275e-07 -2.1100195700460653e-05 0.00013657539861229568" pbc="T T T"
Si       9.52149091       7.78672073      11.10166382
Si       2.69514102       4.53860317       4.58714636
Si       5.99929657       3.38874898       5.86228669
Si       6.49840113       9.01504146      10.89666236
Si       5.97414047       5.57558769      11.25023653
Si       8.62847140       8.39861271       5.69622622
Si       7.37262413       3.79610746       2.61690248
Si       8.08209756       8.86431426       7.92351965
Si       5.28009331       3.38917828       1.60022835
Si       8.31255287       9.46565098      12.48207458
Si       6.56869629       7.50725837       9.06791041
Si       5.37327328      10.93280691       9.78826746
Si       3.02427349       3.45460841       0.59538989
Si       2.90927450       3.67970514       6.84960304
Si       5.55641256       3.41837303      12.21812669
Si      10.16511679       8.59467643       8.93349922
Si       5.19860269       6.26893604       5.27998343
Si       6.26462121       8.36851188       5.35974917
Si       6.75497223       5.85714880       3.58645117
Si       4.93886322       4.96308609       7.36929334
Si       8.33863802       5.84837683      11.98793600
Si       4.56545814       3.28908473       3.87064977
22
Lattice="5.841831632998752 1.5416147102443991 0.5442482384224498 4.38558475468966 7.397371598042286 1.3991826431704293 2.774126672608617 4.075840530445602 12.197604316177213" Properties=species:S:1:pos:R:3 unique_starting_index=40 config_type=initial n_minim_iter=3 stress="-7.198772832053625e-05 -1.9177565482538948e-06 -2.2670841916707054e-05 -1.9177565482538948e-06 -0.00021229396048056377 -0.00010801693242838364 -2.2670841916707054e-05 -0.00010801693242838364 -2.996540779122726e-05" pbc="T T T"
Si       9.52040378       7.78317158      11.09911815
Si       2.69460981       4.53695832       4.58600301
Si       5.99878366       3.38719698       5.86109518
Si       6.49736276       9.01147607      10.89407049
Si       5.97321671       5.57276505      11.24808621
Si       8.62775271       8.39576685       5.69424609
Si       7.37214960       3.79474183       2.61583358
Si       8.08115850       8.86111416       7.92129373
Si       5.27978000       3.38807820       1.59935023
Si       8.31141348       9.46177842      12.47924155
Si       6.56770458       7.50417153       9.06571452
Si       5.37233802      10.92887069       9.78576457
Si       3.02408588       3.45374272       0.59476646
Si       2.90877905       3.67796587       6.84836785
Si       5.55554532       3.41609726      12.21614998
Si      10.16411664       8.59126782       8.93111951
Si       5.19809280       6.26674827       5.27846842
Si       6.26398215       8.36564276       5.35803342
Si       6.75446464       5.85525889       3.58503526
Si       4.93808103       4.96093226       7.36778936
Si       8.33763165       5.84537965      11.98540860
Si       4.56501946       3.28769380       3.86964981
22
Lattice="5.8442836342204 1.540841805596919 0.5428807862203829 4.385997106699238 7.398112527540389 1.398383767377543 2.772113302657587 4.07773757629416 12.189911011677932" Properties=species:S:1:pos:R:3 unique_starting_index=40 config_type=initial n_minim_iter=4 stress="0.00027314589013105814 -0.00021563098659246554 -0.00012326977692993197 -0.00021563098659246554 -6.714382010237657e-05 7.668345854646807e-05 -0.00012326977692993197 7.668345854646807e-05 -0.00017857776794059335" pbc="T T T"
Si       9.52108562       7.78201006      11.09088671
Si       2.69278233       4.53830764       4.58314509
Si       6.00083352       3.38854865       5.85801139
Si       6.49577394       9.01360490      10.88594551
Si       5.97242151       5.57368426      11.23994549
Si       8.63005936       8.39673496       5.69026196
Si       7.37468020       3.79443324       2.61331399
Si       8.08107849       8.86253549       7.91624119
Si       5.28182559       3.38815630       1.59703644
Si       8.31095991       9.46415843      12.47059034
Si       6.56590814       7.50449880       9.05880151
Si       5.37077450      10.93041505       9.78062810
Si       3.02516369       3.45520619       0.59417104
Si       2.90842672       3.67921738       6.84452760
Si       5.55533474       3.41865825      12.20729096
Si      10.16556936       8.59118120       8.92528603
Si       5.19938283       6.26809734       5.27519305
Si       6.26495328       8.36557979       5.35611745
Si       6.75646297       5.85674630       3.58180855
Si       4.93636778       4.96196914       7.36387656
Si       8.33841521       5.84632735      11.97432024
Si       4.56573999       3.28740105       3.86678845
22
Lattice="5.842422350088062 1.5440785443645226 0.5439953022848991 4.387845232997836 7.402318480420743 1.3985138426653485 2.7754257793659027 4.078746240615889 12.191259635867212" Properties=species:S:1:pos:R:3 unique_starting_index=40 config_type=initial n_minim_iter=5 stress="-2.6021790715896436e-05 3.8414446580445985e-05 -3.585447807132157e-05 3.8414446580445985e-05 8.386152377244878e-05 -4.612437721805017e-05 -3.585447807132157e-05 -4.612437721805017e-05 -7.024281340417695e-05" pbc="T T T"
Si       9.52275233       7.78607803      11.09290662
Si       2.69399825       4.54063490       4.58360617
Si       6.00164916       3.39248150       5.86042015
Si       6.49901361       9.01821781      10.88656880
Si       5.97460399       5.57657161      11.24129820
Si       8.63197020       8.40287831       5.69178498
Si       7.37378695       3.79888787       2.61483607
Si       8.08289001       8.86827091       7.91802155
Si       5.28166823       3.39167704       1.59744641
Si       8.31434179       9.46980368      12.47216825
Si       6.56740501       7.50812918       9.05959231
Si       5.37565532      10.93452509       9.78178289
Si       3.02579014       3.45854506       0.59441040
Si       2.91053761       3.68095482       6.84580135
Si       5.55726286       3.42163581      12.20898892
Si      10.16682534       8.59694993       8.92774438
Si       5.20181928       6.27208501       5.27623983
Si       6.26771692       8.36980821       5.35807677
Si       6.75726139       5.86212052       3.58262048
Si       4.93702351       4.96494542       7.36581311
Si       8.34013691       5.85044341      11.97490182
Si       4.56592871       3.28984653       3.86784044
22
Lattice="5.84238933225935 1.543603872516274 0.5453170433431028 4.387779335100893 7.40066239269593 1.4005947950034918 2.7772949475434814 4.079351905577838 12.195370081248509" Properties=species:S:1:pos:R:3 unique_starting_index=40 config_type=initial n_minim_iter=6 stress="1.8347823761299847e-05 4.885766480138317e-06 6.948121625256386e-05 4.885766480138317e-06 -7.958155966866818e-05 4.795839343263605e-05 6.948121625256386e-05 4.795839343263605e-05 6.855900933364085e-05" pbc="T T T"
Si       9.52421952       7.78515546      11.09830333
Si       2.69455565       4.54016986       4.58590241
Si       6.00260333       3.39251824       5.86360507
Si       6.50039472       9.01735498      10.89146387
Si       5.97620966       5.57663805      11.24582758
Si       8.63277546       8.40141929       5.69582307
Si       7.37409184       3.79812439       2.61740925
Si       8.08369676       8.86700308       7.92276049
Si       5.28186497       3.39093450       1.59901264
Si       8.31601933       9.46910201      12.47788406
Si       6.56844345       7.50732901       9.06381455
Si       5.37679328      10.93299392       9.78664669
Si       3.02579091       3.45794895       0.59552032
Si       2.91147675       3.68094989       6.84861573
Si       5.55915651       3.42242912      12.21337145
Si      10.16765603       8.59569609       8.93293844
Si       5.20256264       6.27117022       5.27941659
Si       6.26839796       8.36837475       5.36182363
Si       6.75760369       5.86119795       3.58527332
Si       4.93784689       4.96459746       7.36938244
Si       8.34184130       5.85034560      11.97971468
Si       4.56635509       3.28943886       3.87010003
22
Lattice="5.840136936076652 1.5424741608360744 0.5440327903641037 4.384586322087525 7.400201649117541 1.3993531696136807 2.7729581145640587 4.078247099947885 12.196302153359474" Properties=species:S:1:pos:R:3 unique_starting_index=40 config_type=initial n_minim_iter=7 stress="-0.00022145080884103765 -0.00010783399358981025 -0.00016231111724454312 -0.00010783399358981025 2.7744752507349575e-05 4.9783200025719086e-05 -0.00016231111724454312 4.9783200025719086e-05 0.0002091035104504799" pbc="T T T"
Si       9.51726822       7.78182852      11.09703004
Si       2.69203712       4.53980363       4.58621385
Si       5.99946108       3.39240834       5.86405058
Si       6.49412182       9.01547799      10.89025879
Si       5.97080668       5.57569756      11.24551907
Si       8.62848404       8.39964847       5.69449757
Si       7.37094452       3.79659239       2.61716786
Si       8.07718907       8.86510194       7.92260354
Si       5.27980268       3.38970844       1.59689638
Si       8.30889844       9.46766322      12.47654001
Si       6.56237023       7.50582929       9.06234199
Si       5.37013953      10.93117114       9.78594047
Si       3.02434049       3.45855365       0.59465326
Si       2.90775449       3.68029473       6.84914552
Si       5.55411019       3.42097431      12.21315085
Si      10.15883395       8.59300935       8.93169716
Si       5.19905355       6.26984311       5.27952433
Si       6.26438616       8.36776398       5.36155521
Si       6.75349361       5.86077435       3.58284355
Si       4.93309488       4.96312515       7.37017846
Si       8.33520076       5.84761526      11.97739484
Si       4.56320555       3.28866913       3.86991268
22
Lattice="5.842200321350303 1.5430075672865282 0.5448794736837023 4.387024611248542 7.400419162894856 1.3986297902594174 2.7769331948833793 4.076564120871019 12.191918218006935" Properties=species:S:1:pos:R:3 unique_starting_index=40 config_type=initial n_minim_iter=8 stress="8.889084067747349e-06 -1.858744526446361e-05 2.5548110535402083e-05 -1.858744526446361e-05 2.6925971116996324e-05 -2.567668232966606e-05 2.5548110535402083e-05 -2.567668232966606e-05 -6.717341949120168e-06" pbc="T T T"
Si       9.52346354       7.78031622      11.09369861
Si       2.69455641       4.53942641       4.58481520
Si       6.00341862       3.39297923       5.86345046
Si       6.49946296       9.01404484      10.88580634
Si       5.97572600       5.57498367      11.24172962
Si       8.63420098       8.39949580       5.69328658
Si       7.37452066       3.79689218       2.61809861
Si       8.08201917       8.86446005       7.92071852
Si       5.28255584       3.38977535       1.59629153
Si       8.31527592       9.46676406      12.47185900
Si       6.56680579       7.50498839       9.05878242
Si       5.37466775      10.92956201       9.78169791
Si       3.02597963       3.45944229       0.59451386
Si       2.91009785       3.67954889       6.84699637
Si       5.55888950       3.41975541      12.20906912
Si      10.16348134       8.59220596       8.92954279
Si       5.20287173       6.26924030       5.27839248
Si       6.26891386       8.36789591       5.36025955
Si       6.75690718       5.86142848       3.58137268
Si       4.93637914       4.96223594       7.36858978
Si       8.34082197       5.84611717      11.97279967
Si       4.56570433       3.28869344       3.86928643
22
Lattice="5.843324437954526 1.5443561607161473 0.5440302447606526 4.38937533093399 7.400210886174018 1.399197773281031 2.7760199346152734 4.078705252301405 12.192461620345025" Properties=species:S:1:pos:R:3 unique_starting_index=40 config_type=initial n_minim_iter=9 stress="5.0160726865330363e-05 0.00010981780625439003 -8.00303141498828e-05 0.00010981780625439003 -6.308265259970796e-05 5.648282926917205e-05 -8.00303141498828e-05 5.648282926917205e-05 -1.3248872555440638e-05" pbc="T T T"
Si       9.52476324       7.78318762      11.09351149
Si       2.69531385       4.53995652       4.58536009
Si       6.00424098       3.39546089       5.86318565
Si       6.50080916       9.01558434      10.88624464
Si       5.97580698       5.57788109      11.24182556
Si       8.63711909       8.40108842       5.69377444
Si       7.37618957       3.79864900       2.61772790
Si       8.08367225       8.86629028       7.92079666
Si       5.28431784       3.39050351       1.59571793
Si       8.31658235       9.46915757      12.47191353
Si       6.56737748       7.50655247       9.05875490
Si       5.37605548      10.93011450       9.78281145
Si       3.02733862       3.45984984       0.59469839
Si       2.90970675       3.68063574       6.84735059
Si       5.55821111       3.42288851      12.20847808
Si      10.16494119       8.59462062       8.92960502
Si       5.20468457       6.27007210       5.27912295
Si       6.27137252       8.36900253       5.36117524
Si       6.75861928       5.86295303       3.58115707
Si       4.93675132       4.96367078       7.36925083
Si       8.34103444       5.84894741      11.97211407
Si       4.56677531       3.29008173       3.86915496
22
Lattice="5.841958352307924 1.5422420064220768 0.5456645916646321 4.38660741305847 7.397467683657829 1.401130082625196 2.7771762891189953 4.078025042348071 12.19578251855424" Properties=species:S:1:pos:R:3 unique_starting_index=40 config_type=initial n_minim_iter=10 stress="-6.752272830023182e-05 -1.482936541102029e-05 8.461129778924824e-06 -1.482936541102029e-05 -5.026711100313341e-05 2.088159905134876e-05 8.461129778924824e-06 2.088159905134876e-05 -7.984313932628685e-05" pbc="T T T"
Si       9.52349938       7.77956499      11.09833574
Si       2.69466402       4.53833571       4.58749239
Si       6.00454394       3.39562026       5.86628629
Si       6.50023018       9.01128919      10.88938575
Si       5.97547838       5.57782382      11.24555976
Si       8.63679268       8.39747343       5.69998337
Si       7.37487777       3.79644650       2.62132046
Si       8.07964068       8.86317130       7.92356219
Si       5.28478807       3.38694909       1.59686843
Si       8.31536379       9.46512983      12.47504835
Si       6.56304818       7.50260577       9.06084333
Si       5.37212587      10.92568574       9.78610482
Si       3.02634089       3.45916848       0.59652801
Si       2.90746929       3.67877292       6.84989698
Si       5.55916283       3.42175092      12.21014158
Si      10.16046432       8.59012396       8.93548372
Si       5.20533150       6.26694461       5.28389525
Si       6.27064190       8.36691889       5.36670026
Si       6.75579420       5.86155048       3.58395584
Si       4.93503960       4.96070440       7.37462529
Si       8.33982155       5.84430764      11.97506712
Si       4.56763760       3.28911480       3.87127416
22
Lattice="5.843312913260051 1.5427225160644362 0.5460134929434192 4.388347131712175 7.397150495732987 1.4017036567382593 2.778508658820625 4.07774779876 12.200589217543529" Properties=species:S:1:pos:R:3 unique_starting_index=40 config_type=initial n_minim_iter=11 stress="0.00023030699375719662 2.2939260719503815e-05 -2.4839295367452946e-05 2.2939260719503815e-05 0.00018927909772940453 -8.636089465872035e-05 -2.4839295367452946e-05 -8.636089465872035e-05 0.00029113595151974725" pbc="T T T"
Si       9.52628510       7.77992572      11.10325600
Si       2.69577792       4.53807206       4.58881427
Si       6.00644685       3.39712686       5.86817214
Si       6.50313241       9.01011788      10.89265055
Si       5.97730009       5.57894332      11.24973567
Si       8.64093517       8.39724734       5.70281805
Si       7.37700019       3.79740328       2.62289752
Si       8.08134417       8.86274128       7.92670501
Si       5.28720019       3.38584868       1.59746516
Si       8.31875740       9.46418173      12.47932192
Si       6.56417676       7.50230592       9.06377339
Si       5.37385136      10.92392451       9.79012676
Si       3.02810371       3.45921247       0.59763937
Si       2.90747409       3.67874785       6.85227458
Si       5.56071580       3.42166236      12.21418003
Si      10.16221131       8.59025251       8.93877775
Si       5.20866455       6.26701926       5.28776473
Si       6.27402730       8.36703520       5.37001136
Si       6.75797212       5.86271167       3.58533989
Si       4.93534217       4.95987580       7.37854191
Si       8.34245752       5.84396252      11.97997805
Si       4.57059896       3.29000788       3.87239456
22
Lattice="5.8429509379325335 1.5429899576812804 0.547158485390423 4.388799960119939 7.395846778711782 1.4042029274273184 2.780237730788575 4.080273119411243 12.200697292973489" Properties=species:S:1:pos:R:3 unique_starting_index=40 config_type=initial n_minim_iter=12 stress="1.8102560794621576e-05 4.6505287708696984e-06 -4.509939193051128e-06 4.6505287708696984e-06 9.681293340797224e-06 -5.136644187004401e-06 -4.509939193051128e-06 -5.136644187004401e-06 2.1586720491021533e-05" pbc="T T T"
Si       9.52698279       7.78170579      11.10593685
Si       2.69638389       4.53838079       4.58889177
Si       6.00718239       3.40044317       5.86855554
Si       6.50506327       9.01010212      10.89313485
Si       5.97826656       5.58259172      11.25027264
Si       8.64370084       8.39702676       5.70605518
Si       7.37724020       3.79850273       2.62538583
Si       8.08067928       8.86268579       7.92945560
Si       5.28857770       3.38387333       1.59866843
Si       8.32096669       9.46474448      12.48080770
Si       6.56338758       7.50296260       9.06465614
Si       5.37446296      10.92233393       9.79329034
Si       3.02960724       3.45893034       0.60022221
Si       2.90682978       3.68027602       6.85228263
Si       5.56170966       3.42458819      12.21332062
Si      10.16109237       8.59115117       8.94088603
Si       5.21177979       6.26779979       5.29230650
Si       6.27665104       8.36715261       5.37435034
Si       6.75857252       5.86453461       3.58715081
Si       4.93379618       4.95986398       7.38124697
Si       8.34399890       5.84586033      11.98126714
Si       4.57315468       3.29160295       3.87280627
22
Lattice="5.841970992681024 1.54279215784468 0.5477166096823718 4.387899548740819 7.3958598526634 1.4046805566497487 2.780872136241556 4.080764925113646 12.19852833137923" Properties=species:S:1:pos:R:3 unique_starting_index=40 config_type=initial n_minim_iter=13 stress="-0.00016471144436695808 -2.4348631240887447e-05 1.8736829837622458e-05 -2.4348631240887447e-05 -0.00013307936902751886 6.930472747669045e-05 1.8736829837622458e-05 6.930472747669045e-05 -0.00020823520109344745" pbc="T T T"
Si       9.52587405       7.78166985      11.10433556
Si       2.69682782       4.53871800       4.58734527
Si       6.00625306       3.40103369       5.86785141
Si       6.50471330       9.01036386      10.89229184
Si       5.97829954       5.58264069      11.24897166
Si       8.64293940       8.39751218       5.70542268
Si       7.37628362       3.79809989       2.62650043
Si       8.07942213       8.86288921       7.92869363
Si       5.28799493       3.38346543       1.59898096
Si       8.32032071       9.46499640      12.48001360
Si       6.56226922       7.50250083       9.06380811
Si       5.37364851      10.92255671       9.79234548
Si       3.02977761       3.45889223       0.60071470
Si       2.90658673       3.68062970       6.85058700
Si       5.56185212       3.42526433      12.21144200
Si      10.16007975       8.59109599       8.94018046
Si       5.21165576       6.26835995       5.29247356
Si       6.27645161       8.36773469       5.37412395
Si       6.75729011       5.86493546       3.58712792
Si       4.93321700       4.95983781       7.38082242
Si       8.34393808       5.84617317      11.97998527
Si       4.57215790       3.29135285       3.87292719
22
Lattice="5.842451182919386 1.543238612253205 0.5486921017454471 4.389009233128299 7.395807464580321 1.4053709003639632 2.7833035495702334 4.080309048813653 12.20137994346072" Properties=species:S:1:pos:R:3 unique_starting_index=40 config_type=initial n_minim_iter=14 stress="-1.2023947020947107e-06 -2.1464761127712174e-06 3.087130793360882e-07 -2.1464761127712174e-06 -2.4224302313071832e-06 -2.2717743894781016e-06 3.087130793360882e-07 -2.2717743894781016e-06 3.0995823030821963e-06" pbc="T T T"
Si       9.52795574       7.78156240      11.10736913
Si       2.69896182       4.53896797       4.58642237
Si       6.00729417       3.40330230       5.86898075
Si       6.50787875       9.00906077      10.89495124
Si       5.98070748       5.58320610      11.25224151
Si       8.64716618       8.39800610       5.70712845
Si       7.37778351       3.79881948       2.62952873
Si       8.08015093       8.86258234       7.93066814
Si       5.29032041       3.38194822       1.59997477
Si       8.32362097       9.46387184      12.48390055
Si       6.56249010       7.50115074       9.06592713
Si       5.37483267      10.92066374       9.79512355
Si       3.03216422       3.45902387       0.60233955
Si       2.90631269       3.68063959       6.85082833
Si       5.56407034       3.42532612      12.21389176
Si      10.16126307       8.59099908       8.94258451
Si       5.21549835       6.26923869       5.29675566
Si       6.28042047       8.36878419       5.37713325
Si       6.75826816       5.86678636       3.58823965
Si       4.93323545       4.95857302       7.38465005
Si       8.34721622       5.84557169      11.98387516
Si       4.57414190       3.29172822       3.87431044
22
Lattice="5.843136243444555 1.543885877671986 0.5487682362968606 4.3902325232953725 7.396257520855084 1.4054836746848087 2.7840888123889656 4.0805678660830615 12.20227041583072" Properties=species:S:1:pos:R:3 unique_starting_index=40 config_type=initial n_minim_iter=15 stress="0.00010883471562006232 1.5449571703554805e-05 -7.850261966788102e-06 1.5449571703554805e-05 9.774277111390319e-05 -3.877039844415711e-05 -7.850261966788102e-06 -3.877039844415711e-05 0.0001346097654988825" pbc="T T T"
Si       9.52950520       7.78226182      11.10783498
Si       2.69955684       4.54019016       4.58602257
Si       6.00812878       3.40473758       5.86906204
Si       6.50960277       9.00945658      10.89576612
Si       5.98179292       5.58406749      11.25336226
Si       8.65015626       8.39850137       5.70752996
Si       7.37910186       3.80048253       2.62973896
Si       8.08121141       8.86309904       7.93085650
Si       5.29219989       3.38219121       1.60062874
Si       8.32546781       9.46457168      12.48525901
Si       6.56368162       7.50177939       9.06650991
Si       5.37606968      10.92051949       9.79576911
Si       3.03293927       3.45936045       0.60306408
Si       2.90598174       3.68080103       6.85047115
Si       5.56533104       3.42568723      12.21438241
Si      10.16208502       8.59206561       8.94286913
Si       5.21750271       6.27033605       5.29829023
Si       6.28251626       8.36974047       5.37887236
Si       6.75927723       5.86790012       3.58825519
Si       4.93383328       4.95858237       7.38581577
Si       8.34878042       5.84583144      11.98434898
Si       4.57548231       3.29203168       3.87421184
