6
Lattice="3.6833600145026346 0.36383547302020225 -0.2505283305997418 -0.34921045379728965 4.545576281887015 0.899004751003249 -1.4678806518920755 0.8744951730717045 7.602585786843243" Properties=species:S:1:pos:R:3 unique_starting_index=148 config_type=initial n_minim_iter=1 energy=-976.7791930716807 free_energy=-976.7791930716807 pbc="T T T"
Si       1.24119188       3.68508637       2.71354141
Si       1.69714720       2.26409096       0.88754427
Si      -0.24917576       3.22362937       6.17352377
Si       1.61445890       2.55832346       4.74944556
Si      -0.18382467       0.88098948       4.33368688
Si       0.01606735       0.97705248       1.98749369
6
Lattice="3.711299984734178 0.3597979988803554 -0.21028260599955315 -0.3410201438229862 4.506789136963413 0.9308741997620156 -1.397744750751112 0.9141347402244325 7.64780931114228" Properties=species:S:1:pos:R:3 unique_starting_index=148 config_type=initial n_minim_iter=2 stress="0.004282894777507431 0.0008521700100743367 0.002676732112507625 0.0008521700100743367 -0.0009109858637634721 0.0008521205487922437 0.002676732112507625 0.0008521205487922437 0.005753835403598117" pbc="T T T"
Si       1.28539080       3.67722387       2.76642439
Si       1.71578206       2.24638850       0.93302256
Si      -0.17842397       3.24309395       6.23375662
Si       1.66893586       2.56202667       4.82009198
Si      -0.12753173       0.89668841       4.37004060
Si       0.03506834       0.96552849       2.00554738
6
Lattice="3.697799391664585 0.35325332634128415 -0.20610534381486825 -0.3454586158130944 4.494104625039399 0.932134799045191 -1.389784224377154 0.9256033557674173 7.598482373970744" Properties=species:S:1:pos:R:3 unique_starting_index=148 config_type=initial n_minim_iter=3 stress="-0.0011558542625505184 0.0015323131558077332 0.003010670259065069 0.0015323131558077332 -0.007893728670530953 0.0014510043175896986 0.003010670259065069 0.0014510043175896986 -0.0032369586744220055" pbc="T T T"
Si       1.28279336       3.67745302       2.75205543
Si       1.70397079       2.23668241       0.93568504
Si      -0.17531711       3.25011324       6.19840705
Si       1.65494379       2.55797545       4.79526820
Si      -0.11651686       0.90158100       4.34185926
Si       0.02754275       0.95160839       1.99276811
6
Lattice="3.663142530959339 0.3041796861508604 -0.21753953118996655 -0.4116618610296595 4.566016138360476 0.94633837766104 -1.4261453044945915 1.0029498411453623 7.491438045604644" Properties=species:S:1:pos:R:3 unique_starting_index=148 config_type=initial n_minim_iter=4 stress="-0.002719164547754506 -0.001642654818692278 -0.0008272390520516286 -0.001642654818692278 -0.009503271049758497 0.0012056970298852175 -0.0008272390520516286 0.0012056970298852175 -0.01277901321738332" pbc="T T T"
Si       1.24859336       3.79493348       2.70259036
Si       1.63121163       2.23827428       0.95140151
Si      -0.22907131       3.38019766       6.12807992
Si       1.53814518       2.58857411       4.73944776
Si      -0.08609092       0.94821747       4.27298023
Si      -0.05262924       0.87269968       1.95486133
6
Lattice="3.63167365685539 0.28849486903599114 -0.2167155469616684 -0.43225907703684535 4.6185225827166105 0.9575277400856619 -1.4213138426269258 1.0436364804455818 7.466924214238114" Properties=species:S:1:pos:R:3 unique_starting_index=148 config_type=initial n_minim_iter=5 stress="-0.008069479913780686 -0.00298936392067471 -0.0013314121181808786 -0.00298936392067471 -0.010218392698615858 0.0004216963795917816 -0.0013314121181808786 0.0004216963795917816 -0.009680285886137677" pbc="T T T"
Si       1.24928095       3.88039541       2.69000573
Si       1.58990258       2.25052589       0.97076234
Si      -0.23673514       3.46341741       6.12063324
Si       1.49351735       2.61979784       4.73620615
Si      -0.05907565       0.97678221       4.25819928
Si      -0.09619247       0.81995688       1.93893733
6
Lattice="3.630089528717867 0.2972688977656491 -0.21565188985191358 -0.4293474215873668 4.7071737350397465 0.9638610174561031 -1.4224632190030837 1.078003350307535 7.427749475596743" Properties=species:S:1:pos:R:3 unique_starting_index=148 config_type=initial n_minim_iter=6 stress="-0.0023494691545999716 -0.0021887171432383077 -0.0014727434252529835 -0.0021887171432383077 0.0018146933219713027 0.001214692546712347 -0.0014727434252529835 0.001214692546712347 -0.004344592365038196" pbc="T T T"
Si       1.28801468       3.99805918       2.67142858
Si       1.57070971       2.29306156       0.98569156
Si      -0.23229155       3.56519698       6.10171747
Si       1.49307060       2.68620425       4.72085643
Si      -0.04057299       1.00915331       4.23604295
Si      -0.13816370       0.77226144       1.91640202
6
Lattice="3.630865010397934 0.35596706723367855 -0.22383643400408362 -0.3639281988645216 4.731924254868496 0.9270564362399335 -1.4110805338324568 0.9850578299918147 7.508141173202067" Properties=species:S:1:pos:R:3 unique_starting_index=148 config_type=initial n_minim_iter=7 stress="0.0029940770775407776 0.005186947072284109 -0.0006205341258740787 0.005186947072284109 0.0163707938199301 -0.0025805950186575423 -0.0006205341258740787 -0.0025805950186575423 0.01586702374820443" pbc="T T T"
Si       1.38316047       4.01586186       2.65759058
Si       1.57593160       2.32983991       0.98114887
Si      -0.20447106       3.52106097       6.14791635
Si       1.59213313       2.70890738       4.74600470
Si      -0.06470389       0.97752419       4.28818104
Si      -0.15928577       0.72961310       1.91164843
6
Lattice="3.6458896078662364 0.3267149847828646 -0.21693513937954084 -0.39502069888097896 4.683624154565798 0.926704623240649 -1.4146128697207934 0.9959143902083544 7.452684664129634" Properties=species:S:1:pos:R:3 unique_starting_index=148 config_type=initial n_minim_iter=8 stress="0.0020733602110464757 -0.0003621804338707468 -0.0008025866733744053 -0.0003621804338707468 0.004656486329251409 -0.001231705718439904 -0.0008025866733744053 -0.001231705718439904 0.006344609048452375" pbc="T T T"
Si       1.39249304       3.96861072       2.64468994
Si       1.55115436       2.29368226       0.98372762
Si      -0.22534481       3.49824123       6.11209233
Si       1.61237609       2.68625172       4.71365129
Si      -0.07519278       0.97912671       4.26304977
Si      -0.17816383       0.70397653       1.88952454
6
Lattice="3.6586745146066573 0.32158293022454715 -0.20837620024401496 -0.3956000337536478 4.635081056210381 0.9279126365543905 -1.405068823824901 0.9950291010264797 7.424810222127249" Properties=species:S:1:pos:R:3 unique_starting_index=148 config_type=initial n_minim_iter=9 stress="0.0014293010823456082 0.000832911993755519 -0.000543612654328224 0.000832911993755519 -0.0021802129570349916 -6.668777232691162e-05 -0.000543612654328224 -6.668777232691162e-05 -0.003998256104557685" pbc="T T T"
Si       1.39632604       3.90487695       2.65341709
Si       1.55309855       2.26809156       0.97713751
Si      -0.21945806       3.45582099       6.09383850
Si       1.64599070       2.66822803       4.69637595
Si      -0.08950781       0.97815596       4.25241500
Si      -0.15603494       0.72818139       1.88553883
6
Lattice="3.646874955906963 0.31858697071663306 -0.20388131834341686 -0.39788028094506733 4.646837003427524 0.9332420631066378 -1.392698421653736 1.0070501341927753 7.429062060502217" Properties=species:S:1:pos:R:3 unique_starting_index=148 config_type=initial n_minim_iter=10 stress="-0.001258711169094938 -0.0005845842534647157 0.0004364928840363053 -0.0005845842534647157 -0.0021352086871421344 0.0007925973120528098 0.0004364928840363053 0.0007925973120528098 -0.001804185263187576" pbc="T T T"
Si       1.40014928       3.92288069       2.66015497
Si       1.53818493       2.26808585       0.98485790
Si      -0.21078043       3.47675106       6.10165508
Si       1.64045044       2.67883886       4.70510663
Si      -0.07973757       0.98910965       4.25585407
Si      -0.15943164       0.71840529       1.88482998
6
Lattice="3.6447199468843428 0.3248692302311502 -0.2049384697563414 -0.3932188960182263 4.672367655893141 0.9256575256244312 -1.3914283161730376 0.9974286136876648 7.431287708645008" Properties=species:S:1:pos:R:3 unique_starting_index=148 config_type=initial n_minim_iter=11 stress="-0.0009669076515767929 -0.0021940062045774987 0.0018281914397386128 -0.0021940062045774987 0.0022695012319100265 0.0011697808216826107 0.0018281914397386128 0.0011697808216826107 0.0017810666015092235" pbc="T T T"
Si       1.42580283       3.95077539       2.65710876
Si       1.50557299       2.26289065       0.98488472
Si      -0.19486095       3.49912580       6.09806619
Si       1.63576135       2.69235519       4.70265323
Si      -0.07269537       1.00311118       4.25527313
Si      -0.16181782       0.69512236       1.88012002
6
Lattice="3.653372510768022 0.34070758188061673 -0.22604540888818933 -0.3770706281879818 4.635573946755774 0.9100720474773338 -1.4276886076645123 0.9496667831186018 7.464739128943146" Properties=species:S:1:pos:R:3 unique_starting_index=148 config_type=initial n_minim_iter=12 stress="-0.002255977762207814 -9.522462527313265e-05 0.0009748702332652554 -9.522462527313265e-05 -0.0007926617972099451 0.00037929417460070566 0.0009748702332652554 0.00037929417460070566 0.0020075824554757096" pbc="T T T"
Si       1.44026803       3.90351493       2.65261730
Si       1.48431600       2.22944268       0.96738856
Si      -0.20081300       3.45128663       6.10337599
Si       1.62771818       2.66623513       4.69885748
Si      -0.09721643       0.99136345       4.26842235
Si      -0.15112638       0.69221844       1.88685869
6
Lattice="3.6646757119789455 0.34506693103035113 -0.23407103068030768 -0.37553136926316266 4.638739503512172 0.9027591047273669 -1.4476374174537499 0.9388672463147277 7.450317988837881" Properties=species:S:1:pos:R:3 unique_starting_index=148 config_type=initial n_minim_iter=13 stress="0.0009188377127469737 0.00025437517254968417 -0.00010380535350937002 0.00025437517254968417 0.000466991161768915 4.525849715662536e-05 -0.00010380535350937002 4.525849715662536e-05 0.00023974504168680546" pbc="T T T"
Si       1.44597130       3.90456070       2.63796178
Si       1.48441082       2.22815507       0.95966279
Si      -0.21046906       3.45022158       6.08548598
Si       1.62544675       2.66650591       4.68259320
Si      -0.10472504       0.98767931       4.25686763
Si      -0.15808754       0.68702980       1.88241494
6
Lattice="3.6670263759385846 0.3493906559537628 -0.24528952829048045 -0.37412584330123266 4.638960171500554 0.8888280758303504 -1.469501973190724 0.9164285955967792 7.43538953993026" Properties=species:S:1:pos:R:3 unique_starting_index=148 config_type=initial n_minim_iter=14 stress="0.0011792997812547462 0.00015937980665182188 -0.0013919340697859546 0.00015937980665182188 -0.0005082571825629115 -0.0008398276744749609 -0.0013919340697859546 -0.0008398276744749609 -0.0021393495466977596" pbc="T T T"
Si       1.44979089       3.89570930       2.61484511
Si       1.47432582       2.21480181       0.94828920
Si      -0.22278935       3.44806912       6.06035251
Si       1.61953342       2.66491486       4.66522786
Si      -0.11201601       0.97872054       4.24158177
Si      -0.17318194       0.67550217       1.87804480
6
Lattice="3.657652950057653 0.3464640719302727 -0.2351711635131041 -0.3746119307399156 4.647110187710088 0.8972426314768688 -1.4462241897444186 0.93155385337785 7.447835393663511" Properties=species:S:1:pos:R:3 unique_starting_index=148 config_type=initial n_minim_iter=15 stress="0.0003053509674863333 -5.697915522855263e-05 -4.311605130367789e-05 -5.697915522855263e-05 -8.37234249014032e-05 0.0007645046676407205 -4.311605130367789e-05 0.0007645046676407205 -7.138341034906304e-05" pbc="T T T"
Si       1.44488007       3.89220508       2.62932516
Si       1.47088815       2.20396492       0.95479636
Si      -0.20552095       3.47667778       6.07477842
Si       1.62888474       2.68329523       4.69045230
Si      -0.09420686       0.98807744       4.24764365
Si      -0.17320501       0.68394796       1.88632765
6
Lattice="3.6489571848402864 0.3477865148307746 -0.23159454653876793 -0.37249333115411254 4.65002957102431 0.8836810010036859 -1.4328361795717195 0.9096074826648631 7.4486961360423445" Properties=species:S:1:pos:R:3 unique_starting_index=148 config_type=initial n_minim_iter=16 stress="-0.0015679625649553614 7.502466595184985e-05 0.0006582427496765288 7.502466595184985e-05 0.00046073159235296895 -0.0010874800189152184 0.0006582427496765288 -0.0010874800189152184 0.0010822681832163038" pbc="T T T"
Si       1.44185180       3.88168934       2.61969225
Si       1.46683211       2.19833888       0.94786628
Si      -0.19615814       3.46837137       6.07117236
Si       1.63867814       2.67723718       4.69076959
Si      -0.08663522       0.98179978       4.24807486
Si      -0.17435637       0.67471455       1.88502716
6
Lattice="3.6556201859437825 0.3471673536957087 -0.23242340098388262 -0.3740323111186553 4.648005987258018 0.881611411002193 -1.4382530602161396 0.9087203528212147 7.434120099809492" Properties=species:S:1:pos:R:3 unique_starting_index=148 config_type=initial n_minim_iter=17 stress="0.00047594135303632946 0.0001101234569820836 0.0003478271029187615 0.0001101234569820836 0.00020656489416139538 0.0005047297199554725 0.0003478271029187615 0.0005047297199554725 -0.0006188580548725389" pbc="T T T"
Si       1.42909479       3.86046418       2.60961549
Si       1.45836894       2.17672326       0.93476997
Si      -0.19125222       3.49260160       6.06790918
Si       1.65148046       2.68890282       4.68592799
Si      -0.07490655       1.00303520       4.24167082
Si      -0.18421990       0.65202942       1.87885870
6
Lattice="3.654981979646508 0.347053510581652 -0.2360607596130402 -0.37519002609858226 4.647807693983183 0.8785306805565439 -1.4446593297218058 0.902621482807129 7.4381136337765685" Properties=species:S:1:pos:R:3 unique_starting_index=148 config_type=initial n_minim_iter=18 stress="0.0002697239211834835 5.305816375874454e-05 2.510916082446821e-05 5.305816375874454e-05 0.00015277120526038806 3.910435865422276e-05 2.510916082446821e-05 3.910435865422276e-05 0.00015955594540006094" pbc="T T T"
Si       1.42190593       3.85691674       2.60549293
Si       1.45731102       2.17326892       0.93227877
Si      -0.19490238       3.49191405       6.06758530
Si       1.64492882       2.68587957       4.68561066
Si      -0.07488575       1.00196704       4.24257834
Si      -0.18628361       0.64755443       1.87968285
6
Lattice="3.653624498262442 0.3453208412955562 -0.23857413307104577 -0.37800174192931557 4.64814853760605 0.8762511688538404 -1.4494844768898596 0.8996018117352916 7.437152904113746" Properties=species:S:1:pos:R:3 unique_starting_index=148 config_type=initial n_minim_iter=19 stress="-0.00047090173580774305 -7.365152076292427e-05 -0.00022342929988414945 -7.365152076292427e-05 -0.0004814830018375682 -0.00027518050152009296 -0.00022342929988414945 -0.00027518050152009296 0.0003147553449850876" pbc="T T T"
Si       1.41071303       3.85331024       2.60161948
Si       1.45683237       2.16996451       0.93225671
Si      -0.19831376       3.49325519       6.06318086
Si       1.63974373       2.68482429       4.68228942
Si      -0.07477564       1.00334977       4.24163023
Si      -0.18810883       0.64181231       1.87861463
6
Lattice="3.6552414233809762 0.34511248966174196 -0.23639919354846187 -0.3783014056508314 4.65295521320518 0.8770555256128527 -1.4464758258847379 0.9033970912493254 7.431098871917863" Properties=species:S:1:pos:R:3 unique_starting_index=148 config_type=initial n_minim_iter=20 stress="9.714893057431909e-06 4.2632016602828204e-05 1.0023109857827945e-05 4.2632016602828204e-05 5.69190910161361e-05 2.2351333810843486e-05 1.0023109857827945e-05 2.2351333810843486e-05 1.9662758872597468e-05" pbc="T T T"
Si       1.41117432       3.85733413       2.60278998
Si       1.45768145       2.17165245       0.93594459
Si      -0.19510732       3.49856290       6.05788591
Si       1.64555798       2.69112754       4.67912163
Si      -0.07463098       1.00665650       4.23915601
Si      -0.18780578       0.64146393       1.87626274
6
Lattice="3.6554635558529047 0.34317420696370965 -0.23584510243733275 -0.3804884597894842 4.65198395688799 0.8769795543016982 -1.446042636406085 0.9040931630944185 7.429731386050248" Properties=species:S:1:pos:R:3 unique_starting_index=148 config_type=initial n_minim_iter=21 stress="-5.252962548364927e-05 -0.00010524358919295692 5.4960124073801006e-05 -0.00010524358919295692 -5.8662895530713314e-05 4.626068757775192e-05 5.4960124073801006e-05 4.626068757775192e-05 -0.0002502153071945928" pbc="T T T"
Si       1.40758143       3.85658924       2.60290522
Si       1.45855286       2.17123537       0.93581171
Si      -0.19460868       3.49660797       6.05764738
Si       1.64527824       2.68965228       4.67814160
Si      -0.07533140       1.00563519       4.23869795
Si      -0.18803067       0.64203725       1.87560529
