24
Lattice="5.770973676588339 -1.1307904576056864 0.9133786640807365 1.5934735626825116 8.86258266452294 -0.8704665994960111 2.4464762041565695 1.9219094960828789 8.804861947695926" Properties=species:S:1:pos:R:3 unique_starting_index=94 config_type=initial n_minim_iter=1 energy=-3907.386548517876 free_energy=-3907.386548517876 pbc="T T T"
Si       8.08429597       7.21097533       8.40059783
Si       0.73281910       2.27455899       1.75054919
Si       1.76864543       7.54903212      -0.36153360
Si       6.66414726       9.16238754       5.96756418
Si       4.74296121       2.45136137       1.61302810
Si       5.13453394       4.00824722       9.23040275
Si       3.71541782       1.14002185       3.50398620
Si       2.81973949      -0.61300496       2.15061201
Si       7.89991046       0.87697412       5.93798607
Si       8.70337577       7.75347061       6.13233505
Si       4.92521541       5.91499060       7.70516828
Si       5.78697554       1.45025862       4.91447410
Si       3.96723541       6.31383433       2.56929942
Si       2.50211415       5.75815652       7.27921707
Si       5.16758105       3.65998258       5.22645471
Si       6.69647105       5.08623354       6.27916446
Si       4.16775802       2.05370978       8.18746987
Si       3.28205837       5.83939014       0.21758265
Si       7.62595700       3.99438423       3.04695916
Si       3.21604692       3.47312317       6.52132647
Si       7.80190275       6.26846619       4.46978151
Si       0.43726723      -0.05313710       2.46688925
Si       4.87430271       7.70958701       6.04685966
Si       5.21958809       4.35565420       2.96147703
24
Lattice="5.769080881381014 -1.1335410526300371 0.9148417201301295 1.5911250475281198 8.876632998823638 -0.86961901372206 2.445790108614948 1.9265868846376033 8.818233750147868" Properties=species:S:1:pos:R:3 unique_starting_index=94 config_type=initial n_minim_iter=2 stress="0.0009458991961497506 5.549612858495429e-05 -2.5178811287097088e-05 5.549612858495429e-05 0.0016308707078616582 3.76153711485191e-05 -2.5178811287097088e-05 3.76153711485191e-05 0.0015643329746553053" pbc="T T T"
Si       8.08109011       7.22256778       8.41443564
Si       0.73143637       2.27809689       1.75362999
Si       1.76589227       7.56102453      -0.36009424
Si       6.66102156       9.17973495       5.97803995
Si       4.74083528       2.45577736       1.61615154
Si       5.13133467       4.01570479       9.24505198
Si       3.71414148       1.14168077       3.50981356
Si       2.81989691      -0.61327592       2.15357231
Si       7.89680138       0.87737989       5.94709639
Si       8.69951448       7.76569382       6.14363949
Si       4.92296836       5.92643610       7.71781753
Si       5.78571581       1.45276795       4.92287244
Si       3.96530900       6.32270826       2.57547983
Si       2.50176743       5.76830750       7.29153271
Si       5.16606798       3.66712893       5.23515736
Si       6.69285600       5.09435264       6.29013239
Si       4.16728880       2.05898494       8.19967867
Si       3.27950015       5.84748344       0.21927332
Si       7.62179130       4.00152519       3.05255232
Si       3.21472071       3.48040606       6.53187280
Si       7.79785540       6.27804887       4.47902157
Si       0.43597236      -0.05380908       2.47078080
Si       4.86967752       7.72100779       6.05764482
Si       5.21715050       4.36231769       2.96657569
24
Lattice="5.751579501225799 -1.1368723597988484 0.9155441787591162 1.5804516551453116 8.87724324747183 -0.864952284061618 2.4388467121152515 1.9297198592429983 8.818867404640478" Properties=species:S:1:pos:R:3 unique_starting_index=94 config_type=initial n_minim_iter=3 stress="-0.0018875296898765374 -0.00012801356307595694 6.536128460720401e-05 -0.00012801356307595694 0.00062540314008454 0.0001532949263665799 6.536128460720401e-05 0.0001532949263665799 0.00019578708311162622" pbc="T T T"
Si       8.05465179       7.22153522       8.41738328
Si       0.72577959       2.27765389       1.75473424
Si       1.75394664       7.56151841      -0.35559327
Si       6.63750662       9.18687851       5.98142380
Si       4.72464723       2.45687244       1.61803345
Si       5.11145409       4.01725239       9.24723207
Si       3.70268495       1.14050235       3.51152662
Si       2.81441017      -0.61194172       2.15323003
Si       7.87146526       0.87312465       5.94816983
Si       8.66973566       7.76440911       6.14890530
Si       4.90609626       5.93106213       7.72049923
Si       5.76989342       1.45239689       4.92588897
Si       3.95104393       6.31930573       2.58113295
Si       2.49530549       5.77020664       7.29495294
Si       5.15078915       3.66982992       5.23732335
Si       6.66831703       5.09340172       6.29427753
Si       4.15723725       2.06319152       8.19963595
Si       3.26483742       5.84433742       0.22233680
Si       7.59369938       4.00313426       3.05518933
Si       3.20411892       3.48427126       6.53385420
Si       7.76964440       6.27623450       4.48567256
Si       0.43149442      -0.05597636       2.47139277
Si       4.84604840       7.71801457       6.06168983
Si       5.19892029       4.36100037       2.96807175
24
Lattice="5.766723617568088 -1.1358183900708771 0.9150079052936414 1.5836059292628368 8.863363313418034 -0.8649074821388426 2.4449811479937136 1.925951214658926 8.813054180996748" Properties=species:S:1:pos:R:3 unique_starting_index=94 config_type=initial n_minim_iter=4 stress="0.00010071523716635967 -0.00018399722079762498 -0.00012089406245680917 -0.00018399722079762498 -5.6654952872639486e-05 -5.6678237929136464e-05 -0.00012089406245680917 -5.6678237929136464e-05 -0.00013097565014286183" pbc="T T T"
Si       8.07628860       7.20740926       8.41018791
Si       0.72523403       2.27268024       1.75368286
Si       1.75657007       7.54972392      -0.35529631
Si       6.65505515       9.17661834       5.97562350
Si       4.73670400       2.45469949       1.61664702
Si       5.12180571       4.00950091       9.24090812
Si       3.71247827       1.13737628       3.50967486
Si       2.82403366      -0.60986731       2.15156386
Si       7.89137962       0.86864151       5.94405633
Si       8.69246113       7.75048568       6.14454196
Si       4.91897552       5.92289772       7.71487851
Si       5.78670390       1.45010879       4.92355185
Si       3.96201829       6.30620739       2.58048976
Si       2.50383609       5.75947271       7.29049206
Si       5.16572152       3.66497559       5.23320301
Si       6.68411217       5.08367187       6.29076618
Si       4.16998356       2.06103063       8.19317517
Si       3.27206953       5.83289315       0.22151612
Si       7.61150970       3.99913561       3.05237339
Si       3.21209703       3.47952702       6.52955499
Si       7.78885230       6.26495530       4.48435576
Si       0.42936882      -0.05873010       2.47036970
Si       4.85418437       7.70151214       6.05707030
Si       5.21216570       4.35294353       2.96472269
24
Lattice="5.765525583819038 -1.1283885162251024 0.91964339154929 1.5931633199016113 8.862393619580192 -0.8609093268363205 2.4540301459504152 1.9313779552493542 8.819709009151193" Properties=species:S:1:pos:R:3 unique_starting_index=94 config_type=initial n_minim_iter=5 stress="4.250297774284829e-05 0.0006359072781012773 0.00039075203744684875 0.0006359072781012773 -0.00016380243412837184 0.0002501314685121923 0.00039075203744684875 0.0002501314685121923 7.296145663925821e-05" pbc="T T T"
Si       8.09108880       7.21699467       8.42238956
Si       0.72764704       2.27250430       1.75620456
Si       1.76524558       7.54944296      -0.35124885
Si       6.66901038       9.18489361       5.98686752
Si       4.73995959       2.46083654       1.62161540
Si       5.13257092       4.01801052       9.25097639
Si       3.71662862       1.14247421       3.51498964
Si       2.82527195      -0.60559082       2.15469985
Si       7.89673848       0.87942619       5.95380415
Si       8.70566139       7.76026266       6.15705498
Si       4.93228959       5.92992221       7.72456243
Si       5.79282069       1.45978062       4.93048292
Si       3.97125762       6.30974908       2.58701154
Si       2.51717147       5.76293306       7.29801214
Si       5.17415198       3.67192376       5.24032507
Si       6.69442510       5.09228320       6.30190081
Si       4.17909246       2.06896291       8.20059676
Si       3.27857145       5.83475286       0.22638014
Si       7.61720364       4.00995317       3.06102062
Si       3.22116000       3.48476457       6.53577370
Si       7.79915845       6.27356518       4.49579532
Si       0.42960166      -0.05892116       2.47207701
Si       4.86717840       7.70661601       6.06575359
Si       5.21927584       4.35848429       2.97155230
24
Lattice="5.762386343193073 -1.1311527931295347 0.9210662673023512 1.5889104800297427 8.86380600290558 -0.8659448712152067 2.4518523656822078 1.926622311020061 8.827072584416149" Properties=species:S:1:pos:R:3 unique_starting_index=94 config_type=initial n_minim_iter=6 stress="-9.23886079891909e-05 0.00038108050128585414 0.0001511680373843976 0.00038108050128585414 -0.00019682467010585076 -0.0004915222801253646 0.0001511680373843976 -0.0004915222801253646 0.0005820279620868988" pbc="T T T"
Si       8.08507306       7.20863330       8.42488217
Si       0.72066811       2.26807124       1.75809973
Si       1.76249257       7.55020010      -0.35489197
Si       6.65753332       9.18345264       5.98811008
Si       4.73436558       2.46094946       1.62041927
Si       5.12567999       4.01383589       9.25911964
Si       3.71550632       1.13891471       3.51876338
Si       2.82531531      -0.60798895       2.15758145
Si       7.89326169       0.87322652       5.96091376
Si       8.69741209       7.75405484       6.15899665
Si       4.92951329       5.92596750       7.72978274
Si       5.79253652       1.46099800       4.93247246
Si       3.96669960       6.30812189       2.58561533
Si       2.51674200       5.75832652       7.30256629
Si       5.17117408       3.66856618       5.24111636
Si       6.68863057       5.08753564       6.30924422
Si       4.17738955       2.06638729       8.20635922
Si       3.27394853       5.83318670       0.22431834
Si       7.60913362       4.01314935       3.06126377
Si       3.21817195       3.48124181       6.53796929
Si       7.79279140       6.26858075       4.50039643
Si       0.42377768      -0.06569510       2.47518575
Si       4.86113964       7.70229361       6.06516169
Si       5.21501861       4.35432163       2.97164980
24
Lattice="5.763566590205919 -1.136395271978857 0.9182787292870708 1.5803737756255904 8.872203455492896 -0.8477639071873291 2.450205149079639 1.9441919512834405 8.824490538287357" Properties=species:S:1:pos:R:3 unique_starting_index=94 config_type=initial n_minim_iter=7 stress="0.00021485676538184016 -0.00018855200481945533 0.00022384966397225704 -0.00018855200481945533 0.00028932551054505073 0.0006040598436276972 0.00022384966397225704 0.0006040598436276972 7.915613950114332e-05" pbc="T T T"
Si       8.08035644       7.22373889       8.43079669
Si       0.71144514       2.26892206       1.76286210
Si       1.75680071       7.55752684      -0.33960372
Si       6.64409483       9.20333803       6.00164627
Si       4.72986781       2.46515060       1.62221565
Si       5.11934607       4.03433872       9.26225933
Si       3.71650427       1.14290019       3.51969867
Si       2.82762326      -0.60774379       2.15564344
Si       7.89464487       0.87778117       5.96085880
Si       8.68991718       7.76642866       6.16979378
Si       4.92695067       5.94466001       7.73705147
Si       5.79605669       1.47333353       4.92980099
Si       3.96098774       6.31785814       2.59503450
Si       2.51512291       5.77639897       7.30921108
Si       5.16955626       3.67947287       5.24177264
Si       6.68433501       5.09986929       6.31944678
Si       4.17714731       2.08431213       8.20352864
Si       3.26798322       5.83671814       0.23638698
Si       7.60331644       4.02542471       3.06629874
Si       3.21546977       3.49559859       6.53738347
Si       7.78781960       6.27682704       4.51362838
Si       0.41712746      -0.06787094       2.47428870
Si       4.85395447       7.71855509       6.07272054
Si       5.21136051       4.35911315       2.97753942
24
Lattice="5.759830880386674 -1.1321616309926918 0.912808400764883 1.589754335836224 8.882562738700456 -0.8544323471719999 2.4429589856764427 1.942738554983859 8.814643355979653" Properties=species:S:1:pos:R:3 unique_starting_index=94 config_type=initial n_minim_iter=8 stress="-5.784132200382112e-05 0.00023911468212434964 -0.0004652905738506615 0.00023911468212434964 0.00031458974233058957 -0.00015496788508811372 -0.0004652905738506615 -0.00015496788508811372 -0.00023606043346507857" pbc="T T T"
Si       8.07890717       7.23078332       8.41092385
Si       0.70545026       2.26501192       1.76045254
Si       1.76611565       7.56595751      -0.34644212
Si       6.64206342       9.21640507       5.98405398
Si       4.72749099       2.47261787       1.61319965
Si       5.11063969       4.03912561       9.25054718
Si       3.71462477       1.14460999       3.51387476
Si       2.82473793      -0.60719801       2.15271043
Si       7.88915946       0.88236947       5.95049469
Si       8.68843993       7.77771157       6.15162958
Si       4.92659296       5.95045519       7.72416232
Si       5.79563396       1.48239660       4.91905974
Si       3.96400079       6.32641699       2.58403526
Si       2.51600809       5.77826318       7.29812079
Si       5.16821307       3.68586161       5.22904529
Si       6.68186692       5.10650740       6.30905633
Si       4.17073594       2.08762890       8.19187289
Si       3.27294049       5.84454072       0.22941063
Si       7.60093939       4.04235263       3.05380911
Si       3.21259860       3.49757704       6.52498714
Si       7.78864564       6.28653733       4.50201383
Si       0.40897390      -0.07468767       2.47283269
Si       4.85529200       7.72617461       6.05540565
Si       5.21079911       4.36590253       2.96653827
24
Lattice="5.761500387094781 -1.1349429653148804 0.9231630829285032 1.5833802440792677 8.874117228329535 -0.858557998954232 2.4549190264052765 1.934093456240562 8.826810935109084" Properties=species:S:1:pos:R:3 unique_starting_index=94 config_type=initial n_minim_iter=9 stress="-0.00025702750917025604 -0.0002751322569103209 0.00013261049044595766 -0.0002751322569103209 -0.000478966082992786 -0.0007845615802805093 0.00013261049044595766 -0.0007845615802805093 0.0001134222555172006" pbc="T T T"
Si       8.08920962       7.21186292       8.42658551
Si       0.69857864       2.25277056       1.76271503
Si       1.76374435       7.55730585      -0.35052014
Si       6.64150358       9.20239902       5.99254800
Si       4.72597318       2.46798092       1.61835936
Si       5.11861013       4.02924052       9.26963878
Si       3.72050876       1.13812111       3.52374841
Si       2.82820107      -0.60996117       2.16113777
Si       7.89905872       0.87259927       5.97082419
Si       8.69111524       7.76196959       6.16578789
Si       4.93742637       5.93799613       7.73802482
Si       5.80782555       1.48035431       4.93283159
Si       3.96457644       6.31756198       2.58725610
Si       2.52665368       5.76536163       7.30653118
Si       5.17551188       3.67825223       5.23926555
Si       6.68864057       5.09270975       6.32706968
Si       4.18164910       2.08099541       8.20606328
Si       3.27072221       5.83651811       0.23048086
Si       7.60180790       4.04222776       3.06588396
Si       3.22176716       3.48825836       6.53177525
Si       7.79283380       6.27215102       4.51837838
Si       0.40590113      -0.08294683       2.47693155
Si       4.86142777       7.71231666       6.05993797
Si       5.21069807       4.35718458       2.97292238
24
Lattice="5.760285885929399 -1.124985037799362 0.9163632022798919 1.5955614387298562 8.86370248219523 -0.8474317263199733 2.4476819721968828 1.949178152262532 8.84336207334457" Properties=species:S:1:pos:R:3 unique_starting_index=94 config_type=initial n_minim_iter=10 stress="-0.00047659552230855086 -0.0001631019341322541 -0.0008767940855405639 -0.0001631019341322541 -0.0018397101820480275 0.0001501129301362392 -0.0008767940855405639 0.0001501129301362392 0.0015621623733037598" pbc="T T T"
Si       8.09651819       7.22229919       8.44408536
Si       0.67768822       2.22613999       1.76872004
Si       1.78048085       7.54530378      -0.34795214
Si       6.64211323       9.21359569       6.00110789
Si       4.72367194       2.47375500       1.61542079
Si       5.10489509       4.05194577       9.29933810
Si       3.72132179       1.14350838       3.52997826
Si       2.82250567      -0.60201374       2.16499717
Si       7.89821049       0.88854389       5.97940793
Si       8.68947477       7.77687991       6.17764916
Si       4.94250320       5.95174484       7.76093709
Si       5.82176316       1.50393554       4.94467048
Si       3.97253702       6.32087062       2.59400947
Si       2.53208185       5.76902665       7.32643133
Si       5.18022265       3.69650759       5.24983475
Si       6.69082227       5.09909873       6.34728483
Si       4.17316493       2.10329661       8.22215552
Si       3.28339938       5.83348575       0.23320952
Si       7.60421574       4.07697487       3.07061852
Si       3.22503465       3.49792427       6.54019470
Si       7.80049208       6.27796552       4.53522952
Si       0.38759660      -0.09321620       2.48221585
Si       4.87004180       7.71769734       6.06535435
Si       5.20569194       4.36628584       2.97294347
24
Lattice="5.7677262571182 -1.121682022191503 0.9244882705735915 1.608907418953484 8.902545949457094 -0.8463793647053938 2.4702216295889103 1.9553780362063788 8.813829845167845" Properties=species:S:1:pos:R:3 unique_starting_index=94 config_type=initial n_minim_iter=11 stress="-6.806998194953061e-06 -0.00011767521595728618 7.74726221632706e-05 -0.00011767521595728618 -0.0003006534909415264 -6.89743406295401e-05 7.74726221632706e-05 -6.89743406295401e-05 0.0003299561564098808" pbc="T T T"
Si       8.14043385       7.25429428       8.42370629
Si       0.66083410       2.20309170       1.76186004
Si       1.80025199       7.57411522      -0.35597020
Si       6.67085415       9.26259731       5.97439600
Si       4.73203992       2.48942162       1.61233004
Si       5.12422874       4.07683953       9.28577400
Si       3.73684673       1.14747520       3.52556962
Si       2.82500978      -0.60067859       2.16710612
Si       7.92440859       0.89729636       5.97676203
Si       8.71657040       7.82240017       6.16455242
Si       4.97768709       5.98148930       7.74276082
Si       5.85912929       1.52576849       4.94484976
Si       3.99429198       6.35334697       2.58425694
Si       2.56363836       5.78710031       7.30057835
Si       5.20759974       3.72536935       5.23930364
Si       6.72072201       5.11912066       6.34115908
Si       4.19388817       2.11931394       8.20120231
Si       3.30334496       5.86179685       0.23090324
Si       7.62528265       4.13119322       3.07297379
Si       3.25346089       3.51241680       6.51434820
Si       7.83180770       6.30850599       4.53664951
Si       0.37597648      -0.11089568       2.47448084
Si       4.90433981       7.75113581       6.03318716
Si       5.21498135       4.39343324       2.96198007
24
Lattice="5.772911554229955 -1.1163775053092488 0.9189465443442514 1.626870688976631 8.9447221145092 -0.841863069870301 2.4752934302758383 1.9687498888573904 8.769968417818855" Properties=species:S:1:pos:R:3 unique_starting_index=94 config_type=initial n_minim_iter=12 stress="0.000382596951727909 0.0005031060865887464 0.00016441557087972707 0.0005031060865887464 0.0013950484153021146 0.00046058973031592933 0.00016441557087972707 0.00046058973031592933 -0.001458873967569917" pbc="T T T"
Si       8.16752179       7.30456098       8.38622875
Si       0.64891841       2.18850462       1.75413786
Si       1.81676599       7.60606450      -0.36168818
Si       6.69990667       9.31711256       5.93742041
Si       4.74687617       2.50226306       1.60735650
Si       5.12945615       4.10432391       9.24844122
Si       3.74206238       1.15589171       3.50610494
Si       2.81613539      -0.59181666       2.15677000
Si       7.93734133       0.91480427       5.94713754
Si       8.73682696       7.88152789       6.13642148
Si       4.98842706       6.02139355       7.70424334
Si       5.87674910       1.54563592       4.92340962
Si       4.01261078       6.39314877       2.57186271
Si       2.57382489       5.81616397       7.26431396
Si       5.22400619       3.75295135       5.21318414
Si       6.74074727       5.15183375       6.30510172
Si       4.19972622       2.13400038       8.16513358
Si       3.32995543       5.89772583       0.22223617
Si       7.64102992       4.17898265       3.06179963
Si       3.26779335       3.53578915       6.48834312
Si       7.85051612       6.35044821       4.51009983
Si       0.37361455      -0.11525278       2.45792121
Si       4.92483876       7.79297860       5.99440940
Si       5.22558394       4.42002873       2.94543196
24
Lattice="5.772290611595898 -1.1147918350822394 0.9236917656752459 1.628968259970803 8.952193196713177 -0.8360863610441311 2.482244281129781 1.976755572808926 8.78337905046404" Properties=species:S:1:pos:R:3 unique_starting_index=94 config_type=initial n_minim_iter=13 stress="0.000319847536652483 0.00029223951242250375 -0.00020230489910875543 0.00029223951242250375 0.0005470894187469122 0.00022461289866592156 -0.00020230489910875543 0.00022461289866592156 4.659783909213452e-05" pbc="T T T"
Si       8.18785164       7.31440428       8.40804205
Si       0.60647150       2.13909971       1.76359741
Si       1.82450782       7.60467231      -0.36616822
Si       6.69935950       9.33875982       5.94479639
Si       4.74901934       2.50307403       1.61423837
Si       5.11965641       4.12077573       9.28469265
Si       3.74794955       1.15270813       3.51442342
Si       2.80398676      -0.58106154       2.16359922
Si       7.95161781       0.92054667       5.97018859
Si       8.73706019       7.90299986       6.15910211
Si       4.99642927       6.04050737       7.72344077
Si       5.90541577       1.57500547       4.93357669
Si       4.02144329       6.40769253       2.58010698
Si       2.58738526       5.82094425       7.27977162
Si       5.23942120       3.76330652       5.21909471
Si       6.75159163       5.15971835       6.32759270
Si       4.20928671       2.14554168       8.18427331
Si       3.34819876       5.90702537       0.21906587
Si       7.63725283       4.23533175       3.07897999
Si       3.28213175       3.54644969       6.50289657
Si       7.85444991       6.35913817       4.53117251
Si       0.35337655      -0.14000508       2.45604614
Si       4.93415388       7.80084461       5.98721691
Si       5.22507627       4.41923634       2.95130306
24
Lattice="5.771186235499989 -1.120484131345638 0.9279756599482845 1.6171600715600516 8.940454390002394 -0.8372541278701131 2.483547972512332 1.9705855795582234 8.793863914874091" Properties=species:S:1:pos:R:3 unique_starting_index=94 config_type=initial n_minim_iter=14 stress="-0.00016999909374607194 -0.00010433612396102075 -3.962469410842088e-05 -0.00010433612396102075 -0.00028616690323936793 -0.0001359234392252934 -3.962469410842088e-05 -0.0001359234392252934 0.00018354367846875548" pbc="T T T"
Si       8.17943697       7.29655487       8.42164581
Si       0.60364696       2.13598242       1.76767675
Si       1.81242130       7.59352390      -0.36476920
Si       6.68915858       9.31895878       5.95600082
Si       4.74769746       2.49164956       1.62095897
Si       5.11756229       4.10702270       9.29594470
Si       3.74525517       1.14612351       3.51836107
Si       2.80036728      -0.58024578       2.16467730
Si       7.95231002       0.91221857       5.98134349
Si       8.72887265       7.88330766       6.17194087
Si       4.98747174       6.02783211       7.73100211
Si       5.90153248       1.56531757       4.93702475
Si       4.01487867       6.39513127       2.58664649
Si       2.58026005       5.81224309       7.28877618
Si       5.23552101       3.74734093       5.22555128
Si       6.74522275       5.14895130       6.33412418
Si       4.21302649       2.13288540       8.19558988
Si       3.34205026       5.89862258       0.21933159
Si       7.62896923       4.22249442       3.08686393
Si       3.27950750       3.53874932       6.51630748
Si       7.84265817       6.34585241       4.53637910
Si       0.35757521      -0.14108854       2.45569189
Si       4.92392342       7.78545475       5.99484233
Si       5.22317992       4.40370305       2.95934169
24
Lattice="5.776426719022421 -1.1245854370451132 0.937078810409815 1.6104643592198178 8.947707207644376 -0.825297838765876 2.499585953125868 1.9795981367081525 8.796849437476025" Properties=species:S:1:pos:R:3 unique_starting_index=94 config_type=initial n_minim_iter=15 stress="-0.0002738966949949255 -0.0004043421961284073 0.0002598742884389782 -0.0004043421961284073 -0.0007820495869323863 -0.0004649302601487307 0.0002598742884389782 -0.0004649302601487307 0.00019457775394416665" pbc="T T T"
Si       8.20137927       7.30022338       8.44245641
Si       0.56867335       2.09648805       1.77651198
Si       1.81253569       7.58986332      -0.35702183
Si       6.69146755       9.33515757       5.96581228
Si       4.75267087       2.48301795       1.63154111
Si       5.12063093       4.12115560       9.32183620
Si       3.75041598       1.14115712       3.52280492
Si       2.78634649      -0.56723130       2.16331435
Si       7.98127201       0.92212883       6.00551708
Si       8.73728176       7.89612859       6.19649294
Si       4.99860366       6.04468902       7.74079630
Si       5.93520831       1.57863007       4.94459549
Si       4.02850609       6.40003573       2.60202362
Si       2.58948208       5.82387569       7.29851446
Si       5.25368969       3.75046742       5.23686061
Si       6.75409222       5.15953676       6.35153012
Si       4.24060067       2.13500174       8.20753317
Si       3.35436628       5.90942376       0.22397749
Si       7.63329178       4.27379316       3.10814024
Si       3.29988581       3.54745878       6.53132093
Si       7.84680174       6.36243268       4.55710576
Si       0.34524426      -0.16918901       2.44603532
Si       4.93397406       7.79359605       5.98541683
Si       5.22936520       4.40121907       2.96908210
24
Lattice="5.777849908882029 -1.1236241888196186 0.9317689624622615 1.6114377455991498 8.94362472945674 -0.8196318557343516 2.493754509495732 1.9855468923348516 8.795707148761693" Properties=species:S:1:pos:R:3 unique_starting_index=94 config_type=initial n_minim_iter=16 stress="-0.00029429293215686285 -0.00016201883834012385 3.988570608963373e-05 -0.00016201883834012385 -0.0001526710188280362 -3.692499854051364e-05 3.988570608963373e-05 -3.692499854051364e-05 -2.87767332204444e-05" pbc="T T T"
Si       8.19039488       7.30184159       8.44101959
Si       0.58376121       2.11654306       1.77640406
Si       1.81147664       7.58592374      -0.34684954
Si       6.69223246       9.33184055       5.96938728
Si       4.75179787       2.48107292       1.62925529
Si       5.12166059       4.12505891       9.31410307
Si       3.74301061       1.14579761       3.51872178
Si       2.78421921      -0.56583012       2.15467978
Si       7.97932698       0.93325183       5.99847396
Si       8.73960908       7.89359391       6.19237779
Si       4.99337154       6.04615968       7.73777651
Si       5.92768070       1.56643759       4.94227783
Si       4.03014502       6.39366576       2.60651267
Si       2.57782826       5.83261779       7.30010783
Si       5.24720806       3.75006428       5.24254852
Si       6.74336936       5.16679674       6.34605454
Si       4.24133969       2.13446563       8.20469179
Si       3.34871992       5.90775082       0.23100856
Si       7.63898084       4.26502054       3.10288154
Si       3.29502821       3.54935702       6.53432145
Si       7.84493537       6.37311813       4.55317648
Si       0.35065243      -0.16401740       2.44504425
Si       4.93035189       7.79705352       5.99067438
Si       5.23260645       4.40473215       2.96958743
24
Lattice="5.78393604204159 -1.1155077326548504 0.9302142209296732 1.6282100634420504 8.961473987732056 -0.8126518670572174 2.5013002197363203 1.998299958425575 8.782212570176824" Properties=species:S:1:pos:R:3 unique_starting_index=94 config_type=initial n_minim_iter=17 stress="0.000333235943127171 0.00024680581478641564 -0.00013235467255549117 0.00024680581478641564 0.0004904356536764895 0.00022972315699679754 -0.00013235467255549117 0.00022972315699679754 1.1792996403767412e-05" pbc="T T T"
Si       8.21845387       7.32748641       8.43245485
Si       0.56830089       2.09535468       1.77576804
Si       1.83036436       7.59384057      -0.34907147
Si       6.71534419       9.36468875       5.95553812
Si       4.75931633       2.49187837       1.62623528
Si       5.12736295       4.15135665       9.31247951
Si       3.74742248       1.15272037       3.51422866
Si       2.77757967      -0.55810515       2.15040743
Si       7.99812093       0.95351741       5.99558244
Si       8.76231983       7.93038698       6.18557859
Si       5.01285024       6.07422582       7.73126196
Si       5.95649048       1.58685574       4.94253478
Si       4.05031562       6.41578856       2.60486247
Si       2.59295641       5.85028103       7.29118008
Si       5.26619683       3.77149298       5.23909980
Si       6.75894986       5.18911832       6.34329387
Si       4.25494340       2.15094970       8.19703918