16
Lattice="2.6029917062337855 1.8292205866932446e-11 3.168203126303618e-11 -8.768522946570336e-11 12.477659978179165 -1.4145395842425308e-13 -8.768108357564384e-11 -6.238829989089461 10.805970520887609" Properties=species:S:1:pos:R:3 unique_starting_index=88 config_type=initial n_minim_iter=7 energy=-2602.9040875595106 free_energy=-2602.9040875595106 pbc="T T T"
Si       0.15267642       4.07127500       2.48753488
Si       0.15267642       6.35746088       6.03637550
Si       0.15267642       8.28775408       2.28206014
Si       0.14477502      11.78624351       1.12640665
Si       0.14477502       1.32120500       0.03558089
Si       0.14477502       5.60904144       9.64398298
Si       1.44621945       1.15743992       2.12086948
Si       1.44621945       7.49683687       8.74316340
Si       1.44621945      10.06221316      -0.05806236
Si       1.45367151       6.18653960       2.29964157
Si       1.45367151       5.13710820       4.29844928
Si       1.45367151       7.39284216       4.20787968
Si       2.74712342      -0.08191976       4.85825714
Si       2.74712342      -1.99049602       8.44778654
Si       2.74712342       2.07241577       8.30589737
Si       0.14376542      -0.00000000       7.20398035
