18
Lattice="6.23853688430617 0.9822482430225942 -0.11385442962425515 4.021132451619972 9.606380450285274 -2.157466646601807 2.345597593564188 -0.722499978074613 7.937168399150116" Properties=species:S:1:pos:R:3 unique_starting_index=194 config_type=initial n_minim_iter=1 energy=-2924.2004407249224 free_energy=-2924.2004407249224 pbc="T T T"
Si       6.41738149       1.74507217       0.71201728
Si       7.35893022       5.08535754       6.41757470
Si       5.43310354       3.92722008       1.75123277
Si       3.82318667       0.75448089       6.49646973
Si       7.93773965       8.65593303       2.73960835
Si       7.74631896       9.66153235       0.58434151
Si       4.36433268       2.34815719      -0.40349659
Si       2.25954014       1.86280531       3.52990258
Si       5.33114568       6.89150993       0.89396915
Si       5.41596810       9.11253135       0.13907660
Si       2.61319749       1.42758463       0.97807625
Si       6.55501819       4.25862506       3.70949402
Si       8.12530635       4.56634518       1.71810602
Si       3.87096637       4.92643864       0.36369344
Si       6.78894005       6.55347267       2.63327218
Si       9.93918263       9.25371754       1.66032401
Si       6.78580440       1.66351906       4.71153566
Si       4.69965805       2.23907910       3.35842486
18
Lattice="6.320833444953862 1.0326229684545427 -0.0790603305230324 4.119883225985482 9.73986173029085 -2.0925147508023025 2.4160297958657115 -0.7771657946187792 7.5234206779129575" Properties=species:S:1:pos:R:3 unique_starting_index=194 config_type=initial n_minim_iter=2 stress="-0.0003277990152240706 -0.001410071697531652 0.0032478686638142016 -0.001410071697531652 -0.002255214984586606 -0.0026033752167317864 0.0032478686638142016 -0.0026033752167317864 -0.0057574346735825765" pbc="T T T"
Si       6.50793062       1.81945095       0.62048616
Si       7.52803200       5.13980679       6.07950036
Si       5.55328453       3.88609383       1.59398827
Si       3.89299227       0.75429768       6.24011984
Si       8.08412283       8.76498024       2.59592906
Si       7.92774539       9.78167678       0.46385267
Si       4.42862298       2.44815657      -0.41699730
Si       2.32691188       1.89604768       3.38622313
Si       5.43374679       6.94574370       0.74663169
Si       5.56405642       9.24012947       0.09148274
Si       2.65920240       1.46613830       0.86681621
Si       6.71267558       4.39038844       3.63061685
Si       8.22494014       4.69492574       1.61005130
Si       3.91868453       4.93781670       0.32023954
Si       6.97719885       6.61250736       2.48221939
Si      10.14577505       9.37298304       1.59774390
Si       6.89521300       1.69773408       4.53447141
Si       4.77249214       2.23081284       3.19944463
18
Lattice="6.374111650929198 1.0997377710448022 -0.13473996889228204 4.253648225423426 9.890203813034194 -2.065505558062755 2.3468090500826566 -0.7149969883332705 7.476772539722148" Properties=species:S:1:pos:R:3 unique_starting_index=194 config_type=initial n_minim_iter=3 stress="0.010345109871006784 0.0011621091974829331 -0.0007056457148171466 0.0011621091974829331 0.01152982966506316 -0.001187564116753645 -0.0007056457148171466 -0.001187564116753645 0.00323903125692526" pbc="T T T"
Si       6.56223946       1.91304938       0.52521740
Si       7.56608395       5.31722630       6.02579456
Si       5.62254084       3.94444169       1.53240986
Si       3.84680603       0.85341017       6.23498987
Si       8.17465817       8.96425146       2.58281168
Si       8.07304899       9.97648317       0.41425798
Si       4.48291246       2.54027611      -0.46806283
Si       2.32854262       1.98200682       3.39604013
Si       5.51840869       7.07121196       0.69891340
Si       5.69269305       9.41658708       0.09588674
Si       2.68256348       1.52405262       0.81527931
Si       6.77058585       4.57720138       3.64529165
Si       8.28413113       4.86240622       1.54053826
Si       3.96467242       5.00468081       0.30986109
Si       7.07887500       6.76540147       2.45036572
Si      10.28671665       9.58447503       1.57932297
Si       6.90106698       1.81553164       4.49325000
Si       4.77781451       2.30362501       3.16855172
18
Lattice="6.321751187559011 1.1068437622252953 -0.1511020014789005 4.24837738631682 9.819054629477701 -2.0284716068801414 2.297741253935472 -0.6722710754896823 7.421219673214657" Properties=species:S:1:pos:R:3 unique_starting_index=194 config_type=initial n_minim_iter=4 stress="0.0010806147890273148 0.002040026851957343 -0.0021610739832122255 0.002040026851957343 0.0031914963659233284 0.00020502876895706713 -0.0021610739832122255 0.00020502876895706713 -0.006229857943792749" pbc="T T T"
Si       6.50863305       1.92187330       0.48676421
Si       7.49476678       5.32244845       5.98595214
Si       5.58669134       3.90977043       1.50735889
Si       3.78496746       0.88929322       6.20855798
Si       8.11000099       8.92701432       2.58383912
Si       8.03180614       9.92265913       0.40702840
Si       4.45013666       2.54303981      -0.48253386
Si       2.30374271       1.99647593       3.39024267
Si       5.48296767       7.02773738       0.68596078
Si       5.67201716       9.36400978       0.11372034
Si       2.66196372       1.52892614       0.79151595
Si       6.71561862       4.59972579       3.64851813
Si       8.20802078       4.86467953       1.51491112
Si       3.93113394       4.96072693       0.31281542
Si       7.03647982       6.73800835       2.43798500
Si      10.21885429       9.54050227       1.58593760
Si       6.82450432       1.84006943       4.46283770
Si       4.72318843       2.30148061       3.14753225
18
Lattice="6.264121064009662 1.0472509515845259 -0.10297788075209217 4.13475497118619 9.617056631779096 -2.0215684897157593 2.3453058729558958 -0.6582188232310562 7.602929377173937" Properties=species:S:1:pos:R:3 unique_starting_index=194 config_type=initial n_minim_iter=5 stress="0.0014901648205543818 -5.593722936324886e-06 0.004811053564341895 -5.593722936324886e-06 -0.0018555188611597134 -0.0016013945769148643 0.004811053564341895 -0.0016013945769148643 -0.0010405304558537515" pbc="T T T"
Si       6.45271848       1.85325845       0.50944018
Si       7.45787464       5.19145917       6.18867584
Si       5.55429327       3.75943366       1.57381495
Si       3.78068356       0.87680409       6.40993542
Si       7.99906366       8.72250479       2.74283800
Si       7.92013098       9.69902919       0.46240903
Si       4.38677541       2.49415414      -0.48056393
Si       2.30804650       1.97184267       3.51867103
Si       5.39492674       6.86210836       0.72273693
Si       5.57965946       9.16875033       0.18185232
Si       2.64740194       1.50348581       0.80533903
Si       6.67335605       4.53648808       3.84991102
Si       8.10476384       4.75075355       1.60390262
Si       3.84815673       4.81371577       0.35471340
Si       6.98012968       6.57408605       2.55788037
Si      10.09854315       9.30225799       1.74810288
Si       6.78619311       1.77571175       4.64202810
Si       4.67989966       2.21759655       3.27056045
18
Lattice="6.120625821970055 0.9704297274890821 -0.2577330606770209 3.998285345906456 9.478724580209631 -2.0754887883295505 2.0954890204619603 -0.5944983926733303 7.721451930895157" Properties=species:S:1:pos:R:3 unique_starting_index=194 config_type=initial n_minim_iter=6 stress="-0.00329483710378262 -0.0013242163422507386 -0.0038380912401647736 -0.0013242163422507386 -0.0028975841046265808 0.0005010036201737117 -0.0038380912401647736 0.0005010036201737117 0.00046006781829645326" pbc="T T T"
Si       6.28932707       1.75945246       0.33516339
Si       7.08121712       5.12550875       6.20152046
Si       5.38331974       3.64569924       1.50584226
Si       3.49281017       0.91574352       6.48445818
Si       7.65134648       8.60702197       2.72112269
Si       7.64637545       9.54569000       0.33690090
Si       4.26460258       2.44738137      -0.61436895
Si       2.14566422       1.98756337       3.59805479
Si       5.18629840       6.75671316       0.65002169
Si       5.36544921       9.05059815       0.14208576
Si       2.57189708       1.49778471       0.75689609
Si       6.38072656       4.52755320       3.87689303
Si       7.82016168       4.65071002       1.45884642
Si       3.68191424       4.70071920       0.30765770
Si       6.70105554       6.47773844       2.49601570
Si       9.74164804       9.12932891       1.66140324
Si       6.48193093       1.73742274       4.61804587
Si       4.44910249       2.16876862       3.26898408
18
Lattice="6.073430814877927 1.0389589237966645 -0.20732858559599013 4.041158138706297 9.590197430914316 -1.9247407872418385 2.1153332116769095 -0.4765324734142378 7.719823244739829" Properties=species:S:1:pos:R:3 unique_starting_index=194 config_type=initial n_minim_iter=7 stress="-0.000956158063846493 0.0013665228355159704 0.00012083309808576129 0.0013665228355159704 0.0036554898824578005 0.005121715442535974 0.00012083309808576129 0.005121715442535974 0.002125539025006165" pbc="T T T"
Si       6.26814420       1.80164388       0.36710923
Si       7.10998145       5.30445509       6.31279001
Si       5.41967596       3.71733741       1.60707509
Si       3.47951420       1.06172044       6.47577883
Si       7.68177130       8.83494288       2.90994427
Si       7.68275785       9.72602526       0.48081908
Si       4.22019383       2.53424785      -0.60386738
Si       2.15584286       2.09195019       3.66523731
Si       5.20402069       6.89219604       0.76295930
Si       5.39942939       9.21517400       0.29758571
Si       2.60255557       1.59148157       0.79812536
Si       6.39070008       4.74984385       4.02383181
Si       7.79050158       4.78421305       1.53597177
Si       3.67078068       4.75248912       0.37897943
Si       6.71824299       6.64730790       2.59245564
Si       9.76124263       9.31910078       1.87234384
Si       6.45633566       1.87657363       4.69446794
Si       4.44327248       2.27851300       3.33864172
18
Lattice="6.08158192765844 1.0458430275953687 -0.23822199674916275 4.065768709026232 9.590613595301424 -2.0267728385769375 2.089252147074208 -0.54844670766373 7.699757510927827" Properties=species:S:1:pos:R:3 unique_starting_index=194 config_type=initial n_minim_iter=8 stress="0.0028182094426734304 0.0021203885285585836 -0.0008952558363011079 0.0021203885285585836 0.0020718597635227165 -7.417735275960302e-06 -0.0008952558363011079 -7.417735275960302e-06 0.001774573159359042" pbc="T T T"
Si       6.28361310       1.77308723       0.31362086
Si       7.10632196       5.22038227       6.22915809
Si       5.44700783       3.67934368       1.56313888
Si       3.44773262       1.00893348       6.41093624
Si       7.69213736       8.80731044       2.80860597
Si       7.70960102       9.70918409       0.34862171
Si       4.21584926       2.55389084      -0.66858172
Si       2.13821857       2.06004275       3.64556924
Si       5.21262152       6.87956257       0.67528258
Si       5.41207907       9.20196233       0.19366503
Si       2.62340020       1.60896559       0.77788343
Si       6.38943221       4.73845930       3.97153003
Si       7.79325437       4.75530749       1.44257439
Si       3.66864837       4.72151962       0.31254456
Si       6.72553997       6.61701261       2.48246769
Si       9.78506869       9.27559523       1.76136995
Si       6.44280686       1.82717676       4.64969611
Si       4.43951399       2.24694364       3.30188257
18
Lattice="6.019385702883862 0.9944332911671985 -0.23731904897041886 3.948158479479305 9.578233896432861 -2.026481835051508 2.0763631872690675 -0.56935904824589 7.705269568783786" Properties=species:S:1:pos:R:3 unique_starting_index=194 config_type=initial n_minim_iter=9 stress="0.0006810134923532443 -0.00042740708056097904 0.0007631536488092149 -0.00042740708056097904 0.0009219642774392447 -4.537959426633583e-06 0.0007631536488092149 -4.537959426633583e-06 0.00042401529490207495" pbc="T T T"
Si       6.22032902       1.68981510       0.30539998
Si       7.00411291       5.14842315       6.24826637
Si       5.38425262       3.62996950       1.58368033
Si       3.39795258       0.99045398       6.38104808
Si       7.55313022       8.77010568       2.82395513
Si       7.56481594       9.66800066       0.34905476
Si       4.14481533       2.53156493      -0.68916729
Si       2.08737633       2.04899149       3.66159551
Si       5.10231417       6.86068284       0.68142342
Si       5.27974320       9.17982354       0.20343662
Si       2.60332261       1.61384221       0.78782433
Si       6.29128658       4.71940588       3.98507603
Si       7.68140570       4.68024144       1.43193369
Si       3.59238302       4.68788576       0.30830874
Si       6.60954787       6.57954670       2.47118843
Si       9.62740737       9.19726056       1.77738109
Si       6.36821269       1.76422583       4.65157455
Si       4.38691821       2.22068363       3.31078674
18
Lattice="5.989137035574382 0.9945501997833619 -0.25673672468689696 3.936217284995484 9.571403743606623 -2.0492007268236425 2.041133377196929 -0.5738124593673868 7.714054514574536" Properties=species:S:1:pos:R:3 unique_starting_index=194 config_type=initial n_minim_iter=10 stress="-0.00011275439472094126 3.7282104661356973e-05 0.0006518095211070807 3.7282104661356973e-05 -0.0017023835507562046 -0.0004979371109388282 0.0006518095211070807 -0.0004979371109388282 0.0003870309679537755" pbc="T T T"
Si       6.19095695       1.66110088       0.27450709
Si       6.95452067       5.11879924       6.25645324
Si       5.36111045       3.61813008       1.57812711
Si       3.34914969       0.99950051       6.35085826
Si       7.50955233       8.76545587       2.80683198
Si       7.53354676       9.66620395       0.32371041
Si       4.11903817       2.53633430      -0.72204279
Si       2.04582915       2.04940950       3.67334591
Si       5.06397963       6.86685873       0.66449760
Si       5.24604489       9.17223097       0.19326553
Si       2.59820401       1.63256132       0.78749846
Si       6.24528621       4.73933115       3.97071785
Si       7.63389952       4.65951750       1.39984479
Si       3.57717655       4.67361375       0.29170229
Si       6.57334623       6.57849853       2.44031010
Si       9.58412926       9.17421570       1.75354020
Si       6.31993130       1.74722637       4.63188416
Si       4.36229855       2.23002519       3.30662354
18
Lattice="5.920455931517818 0.9654332265245966 -0.30508704629574107 3.8473213450081305 9.673366842621762 -2.074295866548086 1.961211339105372 -0.6091298258902628 7.630955955037196" Properties=species:S:1:pos:R:3 unique_starting_index=194 config_type=initial n_minim_iter=11 stress="-0.0022209406887565403 -0.0021033531403455916 0.001063929310316444 -0.0021033531403455916 -0.00029392171871374547 -0.0008299261298932205 0.001063929310316444 -0.0008299261298932205 -0.0022051955738112794" pbc="T T T"
Si       6.11716986       1.58875693       0.17293538
Si       6.81167495       5.07614570       6.19559565
Si       5.28343658       3.58894693       1.51634296
Si       3.22440100       1.01893208       6.22443093
Si       7.35089087       8.82159524       2.72408821
Si       7.40603172       9.75565991       0.25336038
Si       4.05442665       2.55689793      -0.79310695
Si       1.93679111       2.07401306       3.66068901
Si       4.92729306       6.94152324       0.59585929
Si       5.11535086       9.25486601       0.17272304
Si       2.56941464       1.67395869       0.75384361
Si       6.11472701       4.82566404       3.89376060
Si       7.49168882       4.64054507       1.30511438
Si       3.51442070       4.67906834       0.25153855
Si       6.46628846       6.62298431       2.33887939
Si       9.43406763       9.18597692       1.67348264
Si       6.20271977       1.68358126       4.52386172
Si       4.28566003       2.25207439       3.25046691
18
Lattice="5.944953910411734 0.9900573235651385 -0.33500275375568644 3.913405352367004 9.660251296907003 -2.0761878242366345 1.9247644119865315 -0.5797184840203617 7.624704611493938" Properties=species:S:1:pos:R:3 unique_starting_index=194 config_type=initial n_minim_iter=12 stress="0.00024240404434706993 -0.0006531848835155045 0.00011393199998113573 -0.0006531848835155045 -0.0018020295769517944 -0.0002556158966820438 0.00011393199998113573 -0.0002556158966820438 -0.0001414622948690076" pbc="T T T"
Si       6.13968115       1.60789848       0.12368125
Si       6.83249885       5.09162045       6.19972727
Si       5.30351525       3.59522480       1.48209079
Si       3.19483852       1.06346987       6.20825603
Si       7.40074954       8.83063798       2.70297319
Si       7.47835717       9.77641986       0.24430752
Si       4.08658669       2.56583289      -0.81542959
Si       1.91600303       2.09817861       3.67098631
Si       4.95518854       6.95377532       0.57488561
Si       5.16827821       9.25126922       0.18265218
Si       2.57725280       1.68650296       0.73564175
Si       6.13752138       4.87554901       3.87053087
Si       7.52021220       4.66378257       1.27918553
Si       3.55471151       4.67513864       0.24717308
Si       6.52204811       6.64270674       2.31889804
Si       9.50744247       9.19557187       1.64937106
Si       6.21044424       1.70069249       4.48477917
Si       4.29228786       2.29112841       3.23587537
18
Lattice="5.926977387734439 1.0343402398082993 -0.3622037384138028 3.96450758270993 9.752743333831946 -2.095023188911993 1.8772017000191583 -0.5762254577297522 7.5963190335360755" Properties=species:S:1:pos:R:3 unique_starting_index=194 config_type=initial n_minim_iter=13 stress="-0.0006089989502074267 0.0012015375620572828 -0.0011605164116110919 0.0012015375620572828 0.0006652238383671069 -0.0005106573568161274 -0.0011605164116110919 -0.0005106573568161274 0.0008055935994587433" pbc="T T T"
Si       6.11827698       1.66029085       0.06565970
Si       6.81970703       5.14420766       6.17301823
Si       5.29083014       3.62850064       1.42263791
Si       3.14203354       1.10678089       6.17990997
Si       7.41354303       8.92670757       2.65362723
Si       7.51013814       9.90818421       0.21454762
Si       4.09489227       2.60528014      -0.83797451
Si       1.88845670       2.14410491       3.67104485
Si       4.95736032       7.03357159       0.52956055
Si       5.20096728       9.34842445       0.17411448
Si       2.56384629       1.71134536       0.70028933
Si       6.12879198       4.97681471       3.83570660
Si       7.49487432       4.74659149       1.24575008
Si       3.57329828       4.71601354       0.23556955
Si       6.55000017       6.72788768       2.27606235
Si       9.52538905       9.29812479       1.60741725
Si       6.17987714       1.72390003       4.42927744
Si       4.26206566       2.35264344       3.20786255
18
Lattice="5.960375830757728 1.024248868814903 -0.36533999783201504 3.9762108145406696 9.728596056795098 -2.049631596520105 1.8813154961754457 -0.5455835569972382 7.552620412731246" Properties=species:S:1:pos:R:3 unique_starting_index=194 config_type=initial n_minim_iter=14 stress="0.0012895934235028481 0.0003151636313950387 -0.00045957090111580905 0.0003151636313950387 -0.0004118665397646909 0.0005794064846644929 -0.00045957090111580905 0.0005794064846644929 -0.00019611040017430409" pbc="T T T"
Si       6.15133425       1.65424550       0.04459941
Si       6.86062921       5.13828485       6.16237313
Si       5.31569308       3.60187558       1.39978853
Si       3.13883480       1.13955956       6.14964952
Si       7.44706694       8.91614962       2.66632208
Si       7.54182222       9.90672901       0.25223600
Si       4.11894929       2.58826752      -0.83207423
Si       1.88544206       2.17655229       3.67524440
Si       4.96996684       7.02147942       0.53730847
Si       5.21938583       9.33782080       0.21865613
Si       2.56689136       1.70523490       0.68240281
Si       6.16050620       5.00307904       3.83954936
Si       7.51839349       4.74066444       1.25364659
Si       3.58601028       4.69640306       0.25492506
Si       6.59588857       6.72197771       2.27798007
Si       9.57240531       9.26741119       1.63686847
Si       6.21577125       1.71299258       4.39291616
Si       4.26458121       2.37556408       3.19532183
18
Lattice="5.931172781127079 1.0362800017257323 -0.3789183603487615 3.973694644196623 9.776253233372348 -2.0173730116302657 1.8461020291154167 -0.5122153383487311 7.535582930203362" Properties=species:S:1:pos:R:3 unique_starting_index=194 config_type=initial n_minim_iter=15 stress="0.0007000030393590548 0.00023843195157839594 0.00036337208544339134 0.00023843195157839594 0.0015760765622790688 0.0006103762485905133 0.00036337208544339134 0.0006103762485905133 0.0020720612925140556" pbc="T T T"
Si       6.12476623       1.66340083      -0.00368056
Si       6.85447217       5.14101286       6.17204458
Si       5.30070972       3.57560837       1.34808407
Si       3.06419101       1.20461501       6.11078556
Si       7.43209739       8.99082985       2.68500838
Si       7.51338264      10.02558817       0.30130127
Si       4.10298939       2.58627234      -0.84560250
Si       1.84608537       2.27075183       3.72202747
Si       4.94144250       7.07215266       0.53566635
Si       5.20273856       9.41734626       0.27929216
Si       2.53340190       1.71921072       0.64457198
Si       6.13944844       5.11446623       3.87521964
Si       7.44979580       4.77475403       1.26072172
Si       3.56086339       4.69555961       0.27755772
Si       6.60483182       6.78205929       2.25799673
Si       9.54143823       9.28538840       1.68583751
Si       6.18627934       1.69211470       4.33623783
Si       4.18894860       2.46116693       3.19365514
18
Lattice="5.938485190705654 1.0292907853412236 -0.3923236093325108 3.97192653041882 9.784823279138363 -1.9628911964796625 1.8258142729754254 -0.47899834580370526 7.450030327424903" Properties=species:S:1:pos:R:3 unique_starting_index=194 config_type=initial n_minim_iter=16 stress="0.0012502303310447376 -0.0006160658251018674 0.000932096553972485 -0.0006160658251018674 0.0018957448692331672 0.0008442819698502178 0.000932096553972485 0.0008442819698502178 -0.0011216865517269575" pbc="T T T"
Si       6.14218953       1.62962955      -0.03461898
Si       6.88088846       5.11031515       6.11758076
Si       5.32091218       3.53520391       1.30439815
Si       3.00948530       1.25267324       5.98668662
Si       7.44638284       9.03347143       2.68851134
Si       7.50410750      10.09996311       0.35341340
Si       4.09756209       2.56490992      -0.86051154
Si       1.81214326       2.35342236       3.73498198
Si       4.93922566       7.09580786       0.54491326
Si       5.19035323       9.46026001       0.33404551
Si       2.51730163       1.73251209       0.61800271
Si       6.14436454       5.18837206       3.87673289
Si       7.42701995       4.75728652       1.24667091
Si       3.54107214       4.67594325       0.28978848
Si       6.62464824       6.81275308       2.21094649
Si       9.54816786       9.24811437       1.71753354
Si       6.18881828       1.65896493       4.23341593
Si       4.14313969       2.53378287       3.16467942
18
Lattice="5.919504032738987 1.0233954777354526 -0.3997606459614775 3.9613197948529657 9.731487460867974 -1.97735146224492 1.8098100749834556 -0.473757391960612 7.490406000036989" Properties=species:S:1:pos:R:3 unique_starting_index=194 config_type=initial n_minim_iter=17 stress="-0.00026280802825017787 -1.1398674313843368e-05 0.0003305614160757126 -1.1398674313843368e-05 -0.00022735833092085502 -0.00015250953295512103 0.0003305614160757126 -0.00015250953295512103 0.00024455549000964666" pbc="T T T"
Si       6.12749603       1.60815633      -0.02748328
Si       6.86051893       5.07378620       6.13973582
Si       5.30932940       3.51468878       1.30945516
Si       2.98483779       1.24176953       5.99049878
Si       7.42527274       8.99586759       2.70459670
Si       7.47189937      10.06182557       0.36108670
Si       4.07907165       2.54245467      -0.87481656
Si       1.79972442       2.35501145       3.76440023
Si       4.93645274       7.06006072       0.54934549
Si       5.17022772       9.41661548       0.33194677
Si       2.50081705       1.72638740       0.62219676
Si       6.12236257       5.15877030       3.90318722
Si       7.40247093       4.71828190       1.24460262
Si       3.52121381       4.64913207       0.28262937
Si       6.59548602       6.78341091       2.20791638
Si       9.51394823       9.18469175       1.72531299
Si       6.16081803       1.65082471       4.23670185
Si       4.12025813       2.53585755       3.18149149
18
Lattice="5.91621882830141 1.0054503564118713 -0.4139601504496609 3.9419963853680136 9.697119422417524 -1.9715967514350548 1.791248383800219 -0.46726518140260737 7.473045617073452" Properties=species:S:1:pos:R:3 unique_starting_index=194 config_type=initial n_minim_iter=18 stress="-0.0005981517021200649 0.0005812488145927072 -0.0009174231116686371 0.0005812488145927072 -0.001660380055214203 -0.0006225145988804359 -0.0009174231116686371 -0.0006225145988804359 -0.0015199741245784098" pbc="T T T"
Si       6.12834538       1.56412217      -0.02151702
Si       6.85081663       5.03706631       6.12502378
Si       5.29938631       3.49523128       1.29722798
Si       2.94893572       1.22731286       5.92590878
Si       7.40211406       8.96829707       2.70879822
Si       7.43428777      10.05177042       0.38405306
Si       4.06621414       2.50860195      -0.89718353
Si       1.77482750       2.37250671       3.78169377
Si       4.94408972       7.03466692       0.54303040
Si       5.13734044       9.38680008       0.33649593
Si       2.47065244       1.72463122       0.61849434
Si       6.10379611       5.13365661       3.90412702
Si       7.39293426       4.66473092       1.22322212
Si       3.50375703       4.62809818       0.25866641
Si       6.56800346       6.76649940       2.18858284
Si       9.49344468       9.10932070       1.71344744
Si       6.13347150       1.64690397       4.18144985
Si       4.11295946       2.56136095       3.17575667
18
Lattice="5.868462807141481 0.973611971517511 -0.4253678756796682 3.869384973649206 9.678021394339966 -1.9582010213063226 1.7604191468904802 -0.44858655210743853 7.522019832426364" Properties=species:S:1:pos:R:3 unique_starting_index=194 config_type=initial n_minim_iter=19 stress="0.00025535378627861843 -0.0009493933667228236 -0.0013084065668426852 -0.0009493933667228236 0.0006954146281215046 -0.0007208359789041718 -0.0013084065668426852 -0.0007208359789041718 0.0042540721324290775" pbc="T T T"
Si       6.06970016       1.52692478      -0.03786269
Si       6.78961972       5.01767302       6.20307039
Si       5.23168468       3.45032650       1.26880653
Si       2.87132099       1.23317095       5.95209655
Si       7.29736108       8.93406477       2.76594698
Si       7.32500659      10.06185721       0.44120024
Si       4.02770352       2.46932625      -0.92601205
Si       1.73126352       2.41893022       3.86262374
Si       4.89639791       7.00667280       0.52176584
Si       5.04841958       9.36205620       0.38360232
Si       2.40077200       1.71593687       0.59368517
Si       6.03235439       5.14425108       3.98228112
Si       7.30947097       4.63140243       1.23230916
Si       3.45500723       4.59460133       0.24045720
Si       6.50162904       6.74762066       2.22596343
Si       9.39425782       9.03108227       1.75036537
Si       6.04903422       1.64214539       4.16847710
Si       4.06951403       2.60464196       3.21533608
18
Lattice="5.880200884343774 0.9915381097003122 -0.3918543664108419 3.889543756514045 9.705261427795115 -1.9106280162328426 1.8022460110471856 -0.4335692247202002 7.479031960223414" Properties=species:S:1:pos:R:3 unique_starting_index=194 config_type=initial n_minim_iter=20 stress="0.00011786086834671617 0.0005414059008450711 -0.0003043753146800084 0.0005414059008450711 -0.0005741343531343195 -0.0006238702518478345 -0.0003043753146800084 -0.0006238702518478345 0.0007232621997676499" pbc="T T T"
Si       6.07489576       1.55642499       0.00525009
Si       6.86150247       5.06935728       6.21070190
Si       5.24061878       3.47593114       1.26991527
Si       2.89906645       1.23801935       5.93077409
Si       7.34746405       8.96378709       2.80379942
Si       7.36058711      10.11939083       0.51224364
Si       4.04173608       2.46875021      -0.89956365
Si       1.76941324       2.44727126       3.86396964
Si       4.95029320       7.02446188       0.53220881
Si       5.08149149       9.38319642       0.42359578
Si       2.38124221       1.71666028       0.58824035
Si       6.08073322       5.16672028       4.00926947
Si       7.34990623       4.66925167       1.27116627
Si       3.47679882       4.61161311       0.23985565
Si       6.54527530       6.77703679       2.27198391
Si       9.45193431       9.06681330       1.79230256
Si       6.07168702       1.68611764       4.15331020
Si       4.11156699       2.65319067       3.22371709
18
Lattice="5.8571492065842525 0.9745607550880308 -0.36796075990978017 3.8390717176697935 9.724292301093143 -1.8126449866562215 1.8170966269859143 -0.3824838503350163 7.434948278885819" Properties=species:S:1:pos:R:3 unique_starting_index=194 config_type=initial n_minim_iter=21 stress="2.0881641882853475e-05 -0.0009688095611342408 -0.00029567497845637614 -0.0009688095611342408 0.0018149677012193805 0.00229710734094969 -0.00029567497845637614 0.00229710734094969 -0.002414995302602093" pbc="T T T"
Si       6.03863506       1.53244629       0.03156853
Si       6.87203428       5.12131563       6.24222186
Si       5.21336354       3.47087972       1.27724417
Si       2.86508495       1.27046181       5.89765194