16
Lattice="5.961848119106925 2.7701289658252004 1.0758248497291694 2.2229062206326353 8.808851010159637 -0.9677737532419807 -2.5759191210291634 -4.065905511921614 7.367586646635927" Properties=species:S:1:pos:R:3 unique_starting_index=152 config_type=initial n_minim_iter=1 energy=-2600.6552787022324 free_energy=-2600.6552787022324 pbc="T T T"
Si       3.04290574       3.49103526       5.14889622
Si       2.49396137      -0.04630702       7.23155306
Si       4.87215906       8.24106406       1.14059761
Si       3.77690008       2.16012798       2.40370089
Si      -0.67716000      -1.02237576       4.47240786
Si       3.13427626       4.43987069       2.83644791
Si       5.55433962       3.91746864       2.96750007
Si       2.13898069       1.32904023       5.32568232
Si       6.28205389       9.06732886       3.05009707
Si      -1.30526738      -1.81746166       6.63043303
Si       2.87853158       3.36862447       0.51215545
Si       5.16190953       5.87187736       1.38361428
Si       1.16214984       4.69354847      -0.44636322
Si       1.37020437       5.08328765       4.15742163
Si       3.77803888       5.24992792       6.71324622
Si      -0.13391520       1.24935717       4.47082760
16
Lattice="5.911098376595625 2.802484543903464 1.0704692545474006 2.254561807934337 8.76328295196447 -0.8609811400179005 -2.608432708279885 -3.968483309195267 7.2594683972819185" Properties=species:S:1:pos:R:3 unique_starting_index=152 config_type=initial n_minim_iter=2 stress="-0.010902615688931094 0.002509338480189749 -0.0016758566245812334 0.002509338480189749 -0.010761797308706295 0.004960622031343367 -0.0016758566245812334 0.004960622031343367 -0.014702883026144047" pbc="T T T"
Si       3.00312602       3.55508170       5.12473851
Si       2.41859312       0.06538218       7.13383471
Si       4.85495625       8.24258339       1.20696020
Si       3.76381965       2.19286568       2.39922889
Si      -0.70789600      -0.96374420       4.42265153
Si       3.12830813       4.46995227       2.84628793
Si       5.51793713       3.96414514       2.97833499
Si       2.10194121       1.39260412       5.26651609
Si       6.23233984       9.09926467       3.10485390
Si      -1.32335376      -1.74058617       6.54604902
Si       2.87157239       3.37376173       0.54569516
Si       5.14089699       5.87652697       1.42311117
Si       1.18388411       4.66934571      -0.39131499
Si       1.33586103       5.12053092       4.18096297
Si       3.73837708       5.32584734       6.69059200
Si      -0.14784084       1.30206396       4.43075192
16
Lattice="5.939837351434243 2.9044237800674955 1.0888365078354516 2.3314172612326116 8.891403717319898 -0.7392469554438826 -2.6999251086315352 -3.919430374971903 7.311891980978492" Properties=species:S:1:pos:R:3 unique_starting_index=152 config_type=initial n_minim_iter=3 stress="0.004999082325376641 0.004430713067244233 -0.0027645210619012817 0.004430713067244233 0.011053647582821674 0.011186557461242723 -0.0027645210619012817 0.011186557461242723 -0.0024545012739401384" pbc="T T T"
Si       2.99042867       3.72125334       5.22781595
Si       2.33574635       0.22743073       7.17772740
Si       4.89642877       8.42657281       1.32820772
Si       3.83872024       2.27750684       2.46885240
Si      -0.77544332      -0.90041040       4.47842637
Si       3.18575356       4.60927400       2.93293254
Si       5.57480208       4.11153257       3.09461301
Si       2.08607596       1.50141852       5.30838649
Si       6.23573836       9.34476791       3.26663459
Si      -1.36041381      -1.68129362       6.60602499
Si       2.91545804       3.45358318       0.61832109
Si       5.20127955       5.99510953       1.51896932
Si       1.23751520       4.73557397      -0.32819230
Si       1.26928399       5.28975179       4.33799877
Si       3.74195996       5.54588554       6.83355888
Si      -0.17302550       1.40916696       4.48059059
16
Lattice="5.8293039009517935 2.804330486760178 1.067077151432467 2.2580970163442595 8.706524030374894 -0.8852647096090049 -2.6539673920941502 -3.919948083143197 7.552472360276399" Properties=species:S:1:pos:R:3 unique_starting_index=152 config_type=initial n_minim_iter=4 stress="-0.001686830929099787 0.001386345760840939 -0.0013791680478798395 0.001386345760840939 0.001970181144260469 0.0029179782981723777 -0.0013791680478798395 0.0029179782981723777 0.0015767771954613011" pbc="T T T"
Si       2.90325009       3.57058573       5.29298329
Si       2.23233710       0.15410895       7.29883840
Si       4.74668065       8.22629483       1.23604210
Si       3.86595080       2.16258735       2.53372785
Si      -0.80423052      -0.92383912       4.61080751
Si       3.16165360       4.46559520       2.92982935
Si       5.51499162       3.95753168       3.18184888
Si       2.04679738       1.37423354       5.34981686
Si       6.00255661       9.10169191       3.22358556
Si      -1.30125221      -1.75285675       6.78208268
Si       2.87633172       3.35966223       0.62648927
Si       5.11190011       5.78392980       1.48272251
Si       1.21464611       4.62872187      -0.40788529
Si       1.10609967       5.13958287       4.40110616
Si       3.65145172       5.32737229       6.89748352
Si      -0.18551205       1.34120123       4.51656353
16
Lattice="5.890469404446812 2.7273502513392374 1.0598090279625894 2.2292306261484427 8.60685189965045 -0.9660461274538032 -2.6206108531188685 -3.944454019514578 7.525429323581394" Properties=species:S:1:pos:R:3 unique_starting_index=152 config_type=initial n_minim_iter=5 stress="0.0026459012531270944 -0.0022528884151436926 -0.00012756478901596133 -0.0022528884151436926 -0.003580428025071661 -0.0035944654352770625 -0.00012756478901596133 -0.0035944654352770625 -0.0053280945906605355" pbc="T T T"
Si       2.93220208       3.46942479       5.22252979
Si       2.27711197       0.08683912       7.22849186
Si       4.74372040       8.10069964       1.15742994
Si       3.99200853       2.08301435       2.52810023
Si      -0.80492987      -0.95586179       4.58983926
Si       3.20636815       4.36747166       2.88203499
Si       5.62168678       3.83929217       3.18011709
Si       2.08330188       1.28858520       5.27097905
Si       5.99482863       8.92610373       3.12863748
Si      -1.24192781      -1.80836814       6.74555867
Si       2.91002864       3.29213338       0.63403437
Si       5.16776791       5.64160082       1.43902877
Si       1.20364012       4.56850260      -0.45230128
Si       1.04721129       5.03026614       4.31976315
Si       3.70611963       5.16766593       6.79184106
Si      -0.16886095       1.29187047       4.43163121
16
Lattice="5.821314355492793 2.733614304725945 1.170303339142967 2.222078619147307 8.546543433797783 -0.9621218475082187 -2.4929608085468007 -3.927300855191292 7.6724779066872" Properties=species:S:1:pos:R:3 unique_starting_index=152 config_type=initial n_minim_iter=6 stress="-0.0037020764603766603 -0.002040162206503129 0.0036080142324525295 -0.002040162206503129 0.001079320947414354 -0.0055944645986918 0.0036080142324525295 -0.0055944645986918 0.009622349263144668" pbc="T T T"
Si       2.94074088       3.48313740       5.37866807
Si       2.32210229       0.13397179       7.41556005
Si       4.69975282       8.06031183       1.24535994
Si       4.08772190       2.09035333       2.65528818
Si      -0.76042639      -0.95036849       4.70074308
Si       3.21605789       4.34883079       3.02860783
Si       5.65677491       3.82116815       3.35302201
Si       2.07887322       1.31161834       5.39079552
Si       5.94308006       8.84923383       3.27184685
Si      -1.10702836      -1.79534628       6.92450748
Si       2.90669622       3.26346554       0.73845693
Si       5.16243037       5.57788634       1.55037012
Si       1.19641694       4.52412194      -0.44605947
Si       1.03444635       4.97359613       4.41688460
Si       3.76516458       5.13366577       6.99521986
Si      -0.08923116       1.30195673       4.50853713
16
Lattice="5.918273377712382 2.734954406141714 1.200778396730531 2.296183175439606 8.437714188629764 -0.9086618987801068 -2.5212959303240567 -3.8536045773009566 7.61122425625439" Properties=species:S:1:pos:R:3 unique_starting_index=152 config_type=initial n_minim_iter=7 stress="0.00048096057839812643 -0.0045615576066842705 0.0004428249064879524 -0.0045615576066842705 0.0014020457341089513 -0.0037425448857296884 0.0004428249064879524 -0.0037425448857296884 0.010787915694333952" pbc="T T T"
Si       2.97796108       3.51325579       5.37209478
Si       2.37687928       0.21827823       7.38370549
Si       4.79378093       7.98192423       1.29221123
Si       4.28078051       2.11055814       2.66643797
Si      -0.78335144      -0.91976636       4.68335880
Si       3.27705283       4.32152763       3.09368913
Si       5.83297525       3.80129933       3.36326833
Si       2.06102609       1.37331843       5.36448137
Si       6.06738998       8.72764658       3.28960688
Si      -1.07970437      -1.73396540       6.92718301
Si       2.98278311       3.21807218       0.80788797
Si       5.29785191       5.50298659       1.59031645
Si       1.22771088       4.45343830      -0.41149737
Si       1.02371928       4.90387985       4.38958257
Si       3.86546634       5.10744883       6.99619479
Si      -0.05792015       1.32550473       4.48136055
16
Lattice="6.002995087282869 2.8182654770265145 1.2439764512658884 2.432311977165448 8.441709629882691 -0.8549820133223542 -2.539185263749678 -3.858067455376915 7.499970488902211" Properties=species:S:1:pos:R:3 unique_starting_index=152 config_type=initial n_minim_iter=8 stress="-0.0009195674566835148 -0.0009282589949965315 0.0010696648214367974 -0.0009282589949965315 0.003480588397803969 -0.0020443429182239584 0.0010696648214367974 -0.0020443429182239584 0.004180014533672415" pbc="T T T"
Si       3.06239003       3.58302390       5.34341329
Si       2.43930672       0.29690193       7.31559542
Si       4.93914677       8.03074847       1.33901849
Si       4.43655125       2.18010121       2.68403812
Si      -0.78608067      -0.91383979       4.63118430
Si       3.38264071       4.36515336       3.12570318
Si       5.99536216       3.87740190       3.38076575
Si       2.09757707       1.43639526       5.31406021
Si       6.24096658       8.77500817       3.31156609
Si      -1.03989970      -1.72792075       6.86328130
Si       3.07007673       3.24300656       0.86231781
Si       5.44188328       5.54831040       1.63797411
Si       1.29803521       4.44948231      -0.37746247
Si       1.08479748       4.90331257       4.35022604
Si       4.01527534       5.16353387       6.96271101
Si      -0.00354761       1.34666245       4.42521748
16
Lattice="6.120219460820789 2.8586973930118673 1.2846283184494125 2.563257269316345 8.337890887357847 -0.7766132479920402 -2.588527298598026 -3.779628543332376 7.416348246713964" Properties=species:S:1:pos:R:3 unique_starting_index=152 config_type=initial n_minim_iter=9 stress="0.0015476064943387101 0.00023684584794848995 0.00015224006495010147 0.00023684584794848995 -0.0005298938900943621 0.002247984713035735 0.00015224006495010147 0.002247984713035735 -0.00013729001246385" pbc="T T T"
Si       3.13672585       3.62275045       5.34915980
Si       2.49427584       0.39270783       7.27986700
Si       5.09270801       7.97618887       1.41214851
Si       4.61186341       2.22385353       2.71089991
Si      -0.80696458      -0.87337625       4.59736330
Si       3.49072489       4.36368924       3.17741116
Si       6.18094011       3.90562079       3.39462508
Si       2.13044969       1.50432751       5.29557031
Si       6.42894679       8.71913456       3.35787425
Si      -1.02066931      -1.67851965       6.82746511
Si       3.17187894       3.22627869       0.91973048
Si       5.59913714       5.53140148       1.70291516
Si       1.36608365       4.39165702      -0.32383146
Si       1.12442086       4.86197189       4.34766254
Si       4.15383634       5.18001283       6.97046346
Si       0.02666918       1.36883331       4.40359162
16
Lattice="6.205020242721841 2.950688034405663 1.2688942357242343 2.73585205467125 8.336088202491629 -0.7858407301531808 -2.6668971612491985 -3.8281185036379535 7.31704326464388" Properties=species:S:1:pos:R:3 unique_starting_index=152 config_type=initial n_minim_iter=10 stress="-0.0017233748420440978 0.002355718470336533 -0.0035474381312635807 0.002355718470336533 -0.0001414476647185837 0.0020752157644649827 -0.0035474381312635807 0.0020752157644649827 -0.007874900389961758" pbc="T T T"
Si       3.17676990       3.66766940       5.27278048
Si       2.49915678       0.43726952       7.17749027
Si       5.25152799       8.00944599       1.38086338
Si       4.79846160       2.28596475       2.69092822
Si      -0.85357831      -0.88867878       4.53512641
Si       3.59897883       4.39685958       3.14545055
Si       6.36080167       3.96614642       3.30120323
Si       2.13121312       1.55860481       5.21314689
Si       6.61420535       8.74546364       3.24316036
Si      -1.00744055      -1.74449192       6.75975906
Si       3.28601628       3.24565306       0.93278659
Si       5.74343565       5.59094913       1.68736216
Si       1.45933322       4.39102915      -0.29621082
Si       1.14707911       4.82793926       4.24696972
Si       4.26642098       5.20204522       6.84561767
Si       0.04230619       1.36402689       4.33147684
16
Lattice="6.315619672638485 3.0016865170092664 1.35850261508406 2.8567155647465854 8.276084194354194 -0.7356294815897377 -2.6293548688294015 -3.813176470427802 7.226633098811563" Properties=species:S:1:pos:R:3 unique_starting_index=152 config_type=initial n_minim_iter=11 stress="0.0016119097465897901 0.0027273680000321735 -0.0006499310666859161 0.0027273680000321735 -0.0010793467796346224 0.0039094904157837545 -0.0006499310666859161 0.0039094904157837545 -0.006282064779420694" pbc="T T T"
Si       3.28802845       3.68591296       5.30564765
Si       2.61320150       0.47886598       7.17979170
Si       5.40936124       7.97870918       1.46292392
Si       4.98403026       2.31269041       2.76955703
Si      -0.82478737      -0.87454862       4.48980158
Si       3.74462516       4.40638814       3.17990534
Si       6.56885733       3.99092772       3.32838943
Si       2.23146635       1.60815978       5.22310474
Si       6.83859731       8.72997609       3.27565023
Si      -0.90088976      -1.78017580       6.70971045
Si       3.40800609       3.24236936       0.98911332
Si       5.88543455       5.62494340       1.78214973
Si       1.53086475       4.36735780      -0.22653191
Si       1.23086642       4.79074247       4.21790668
Si       4.45737632       5.21005231       6.85357743
Si       0.09767086       1.35982200       4.30756711
16
Lattice="6.295894126883972 3.0066718239951458 1.3654116840751158 2.8708975022055756 8.261976092840978 -0.7840471436626822 -2.5967295488440314 -3.858316847540024 7.237770833125965" Properties=species:S:1:pos:R:3 unique_starting_index=152 config_type=initial n_minim_iter=12 stress="-0.0031890633438554066 -0.0003800451736277209 -0.0008197188449905668 -0.0003800451736277209 -0.0017722026862101988 8.261155413119836e-05 -0.0008197188449905668 8.261155413119836e-05 -0.0013621234441890445" pbc="T T T"
Si       3.27127657       3.65653257       5.31604295
Si       2.60940298       0.43845146       7.19884606
Si       5.40830747       7.95380006       1.43753769
Si       5.02308206       2.27762431       2.80081804
Si      -0.82005155      -0.89178423       4.48426553
Si       3.77589457       4.39798880       3.13699962
Si       6.60295129       3.96056679       3.28959352
Si       2.24237707       1.59470906       5.22826065
Si       6.86047425       8.71620897       3.19258259
Si      -0.83787700      -1.88321830       6.70895812
Si       3.44147264       3.22542406       0.98061452
Si       5.85897318       5.64601679       1.77729201
Si       1.55119448       4.37126653      -0.19839092
Si       1.22159210       4.75813966       4.16955634
Si       4.45960477       5.17077846       6.81451387
Si       0.09339383       1.32847417       4.29530695
16
Lattice="6.395786315397204 3.0294398732923593 1.4224103646797757 2.9399403459040183 8.24648702922 -0.7852246121143941 -2.5804714195661997 -3.8745866241157034 7.254684984571633" Properties=species:S:1:pos:R:3 unique_starting_index=152 config_type=initial n_minim_iter=13 stress="0.0071041895446487015 0.0003406804832882073 0.0018590305287833604 0.0003406804832882073 0.005378954809662857 -0.0021778775998233255 0.0018590305287833604 -0.0021778775998233255 0.005629166495723244" pbc="T T T"
Si       3.36424069       3.65749962       5.36737027
Si       2.70727197       0.44430647       7.26410406
Si       5.52441687       7.95875667       1.47203739
Si       5.12280240       2.27022707       2.86841224
Si      -0.79739780      -0.89524327       4.49754361
Si       3.89381977       4.40831254       3.14454119
Si       6.75012017       3.96702680       3.37339296
Si       2.31076068       1.57205385       5.25785210
Si       7.02452467       8.74262858       3.24514894
Si      -0.77903293      -1.92651020       6.71942938
Si       3.51414976       3.20596725       1.00711955
Si       5.94173276       5.66728516       1.82024442
Si       1.59991776       4.36556339      -0.16407631
Si       1.28750635       4.74236675       4.16840858
Si       4.57602594       5.16887145       6.86739314
Si       0.14071174       1.31259557       4.29460613
16
Lattice="6.370033054844531 2.9977538220228306 1.4916719782973258 2.914647829781991 8.118169223751872 -0.6896210853228323 -2.518738268561648 -3.7456086574741483 7.2362177357925015" Properties=species:S:1:pos:R:3 unique_starting_index=152 config_type=initial n_minim_iter=14 stress="-0.00017735710076567684 -0.0012258133743427448 0.0012654579344961799 -0.0012258133743427448 0.0017216780329869137 -0.0015718482757856212 0.0012654579344961799 -0.0015718482757856212 0.004083818684669365" pbc="T T T"
Si       3.34883748       3.68242460       5.44075497
Si       2.73412661       0.53710945       7.31551530
Si       5.48963515       7.87641903       1.58524637
Si       5.18950064       2.25811308       2.95222149
Si      -0.78336553      -0.82977293       4.51072462
Si       3.91757848       4.38938672       3.21311149
Si       6.79114924       3.92440412       3.49424219
Si       2.28193035       1.58870827       5.27930417
Si       6.99070777       8.65491192       3.38319780
Si      -0.69757660      -1.85897713       6.72739340
Si       3.51807509       3.12870496       1.08515500
Si       5.89973000       5.59060267       1.91877830
Si       1.59542428       4.29384902      -0.07416612
Si       1.25080622       4.71027240       4.20868829
Si       4.56308686       5.16615435       6.96969710
Si       0.17760014       1.34857326       4.29983039
16
Lattice="6.393387881620225 3.005196457792336 1.5093273212341256 2.942067816749533 8.072941599113873 -0.6318023454120034 -2.527084994334098 -3.6891314512594247 7.173910973395835" Properties=species:S:1:pos:R:3 unique_starting_index=152 config_type=initial n_minim_iter=15 stress="-0.001366128856602822 -0.0012781938478225278 -0.0009686881337305062 -0.0012781938478225278 -0.0015993671892155904 1.4163764731068163e-05 -0.0009686881337305062 1.4163764731068163e-05 -0.0014010442981011084" pbc="T T T"
Si       3.36071477       3.71263430       5.43489276
Si       2.76362335       0.58763416       7.30431774
Si       5.53784978       7.86959110       1.63386878
Si       5.21044895       2.27662241       2.95351901
Si      -0.78082615      -0.80091345       4.48349750
Si       3.94396569       4.39887412       3.21520951
Si       6.82666727       3.93024919       3.50547690
Si       2.27211777       1.60678793       5.26702778
Si       7.05179377       8.64610462       3.43515106
Si      -0.69620455      -1.82530255       6.67647339
Si       3.53472717       3.09704126       1.09972990
Si       5.90175465       5.58841032       1.94639625
Si       1.61269963       4.27018311      -0.01858765
Si       1.28623663       4.70697114       4.19070945
Si       4.57104238       5.18914234       6.97796443
Si       0.19196778       1.36746988       4.28896308
16
Lattice="6.452340494847881 3.0448378908426856 1.5568990744291331 3.021782490053943 8.039770924989412 -0.584542622591797 -2.5246390971286767 -3.663216581906235 7.128442541338354" Properties=species:S:1:pos:R:3 unique_starting_index=152 config_type=initial n_minim_iter=16 stress="-0.0013100448005554594 0.0012881602100792546 -0.0013383253058608874 0.0012881602100792546 -0.0023079032891881565 -0.00016170971265154317 -0.0013383253058608874 -0.00016170971265154317 -0.0038186430971148435" pbc="T T T"
Si       3.41832402       3.74912106       5.44667271
Si       2.82938100       0.63764830       7.31620142
Si       5.65110350       7.88626410       1.69519797
Si       5.30337462       2.32426093       2.98710804
Si      -0.76952249      -0.78862506       4.46751689
Si       4.01977468       4.41966471       3.24086483
Si       6.92874379       3.96446468       3.54301005
Si       2.30302332       1.63605004       5.27631246
Si       7.18075584       8.64985323       3.49880127
Si      -0.66621256      -1.81400174       6.65196823
Si       3.59241966       3.08316597       1.14001941
Si       5.96493793       5.60521086       2.00218028
Si       1.66097601       4.25179044       0.03430393
Si       1.35502677       4.69227816       4.17379667
Si       4.65737499       5.21210891       7.00904398
Si       0.22803941       1.38037280       4.28426452
16
Lattice="6.457904122797365 3.052819646325965 1.600822829602353 3.0200862756639646 8.036563355539798 -0.5295455528948582 -2.4892172720440273 -3.627562177661282 7.097657524269678" Properties=species:S:1:pos:R:3 unique_starting_index=152 config_type=initial n_minim_iter=17 stress="-0.00038245344087731734 0.0008249502089951848 -0.0010836494534125804 0.0008249502089951848 -0.001711234303772184 0.0020397075556057255 -0.0010836494534125804 0.0020397075556057255 -0.004902204688686181" pbc="T T T"
Si       3.43935241       3.78419576       5.46675246
Si       2.87463118       0.66813313       7.33932990
Si       5.68622354       7.91898009       1.76644888
Si       5.31001259       2.35177850       3.01059449
Si      -0.74376405      -0.77191617       4.46023337
Si       4.03017910       4.43986150       3.26873347
Si       6.93406099       3.98116748       3.58515285
Si       2.32650770       1.66023219       5.30656307
Si       7.20741254       8.66360742       3.58930936
Si      -0.64759818      -1.78674812       6.63139113
Si       3.59763848       3.07124118       1.17157319
Si       5.94921782       5.61483420       2.06024890
Si       1.66637416       4.24990553       0.07958668
Si       1.40851115       4.71207538       4.18323912
Si       4.67827432       5.24152366       7.06266445
Si       0.24412603       1.40414919       4.29899683
16
Lattice="6.472166781536228 3.0660800969124233 1.6488112931824122 3.0423610870665163 8.018571086656124 -0.5117789307513273 -2.4537105796134386 -3.61749027683142 7.119332053600232" Properties=species:S:1:pos:R:3 unique_starting_index=152 config_type=initial n_minim_iter=18 stress="8.630582330773548e-06 0.0011536572162941987 -0.000125497526730303 0.0011536572162941987 -2.940632102089789e-05 0.001556451641964518 -0.000125497526730303 0.001556451641964518 -0.001860167938056137" pbc="T T T"
Si       3.46810744       3.80025567       5.50153964
Si       2.92178521       0.67536650       7.39560236
Si       5.74824434       7.94280900       1.82302662
Si       5.35354982       2.37730992       3.05346041
Si      -0.72229118      -0.77412041       4.47901849
Si       4.06103480       4.44846310       3.29410236
Si       6.96934912       3.99395783       3.63683644
Si       2.36356524       1.67126923       5.36146530
Si       7.25245490       8.65476724       3.66032692
Si      -0.62055583      -1.79421691       6.65473137
Si       3.62607131       3.05399546       1.21280457
Si       5.94671274       5.61573469       2.11868868
Si       1.69391860       4.23879357       0.11838810
Si       1.46785099       4.70311318       4.18957603
Si       4.72038857       5.23484511       7.12998356
Si       0.25987157       1.41051184       4.32665382
16
Lattice="6.461171814087655 3.0511052438592943 1.6502689137466913 3.025784180976409 8.007372549398902 -0.537723943164222 -2.439639770886416 -3.628086962083995 7.1615450499702105" Properties=species:S:1:pos:R:3 unique_starting_index=152 config_type=initial n_minim_iter=19 stress="0.00033702957167476745 0.00034041697804506997 0.0002588766022966319 0.00034041697804506997 0.0012569829897861977 0.00045889841065767877 0.0002588766022966319 0.00045889841065767877 0.0009792782133344713" pbc="T T T"
Si       3.45936188       3.78207401       5.50649996
Si       2.91965807       0.64361701       7.42066358
Si       5.74459980       7.93751080       1.81698552
Si       5.35200139       2.36535910       3.05956246
Si      -0.72037613      -0.78933800       4.49941516
Si       4.04695916       4.43301021       3.28789085
Si       6.95798252       3.98018439       3.64581827
Si       2.37144972       1.65627823       5.38828018
Si       7.22598236       8.62594325       3.65734358
Si      -0.62497831      -1.81312544       6.68610721
Si       3.62751002       3.04152029       1.22112181
Si       5.91926690       5.59557526       2.12074392
Si       1.69883600       4.22908821       0.11430566
Si       1.47351071       4.68712284       4.18770158
Si       4.70883923       5.19481507       7.14516906
Si       0.24918205       1.40148440       4.34399385
16
Lattice="6.466727375055065 3.0107048302617083 1.673092820435196 3.0076539408608953 7.925130598487798 -0.5653395560465176 -2.4033218983461677 -3.6114257567435444 7.213073299340143" Properties=species:S:1:pos:R:3 unique_starting_index=152 config_type=initial n_minim_iter=20 stress="-0.0001730461189754398 -0.0017621781908877543 0.0014951902910469758 -0.0017621781908877543 6.81631174239145e-05 -0.001418170396999967 0.0014951902910469758 -0.001418170396999967 0.0031211867175977566" pbc="T T T"
Si       3.46106219       3.74118758       5.51870226
Si       2.94423705       0.59926557       7.46136649
Si       5.75738763       7.87686382       1.83009760
Si       5.40209495       2.32484970       3.09546347
Si      -0.71622584      -0.80463733       4.52290406
Si       4.04708048       4.38557792       3.28213940
Si       6.99969067       3.94210766       3.69428047
Si       2.38934657       1.62612750       5.42541403
Si       7.21216634       8.52811893       3.66707402
Si      -0.61206497      -1.83780480       6.73045798
Si       3.65946316       2.98974474       1.26064370
Si       5.88370028       5.52778524       2.14545980
Si       1.73251524       4.17559959       0.13562081
Si       1.48201157       4.62652055       4.16995155
Si       4.71200931       5.09020223       7.17123023
Si       0.24509589       1.38522432       4.36397312
16
Lattice="6.46326382860927 3.0131932876723964 1.6027390277007054 3.0300653515121647 7.933367888840977 -0.634239170494031 -2.4780105896291302 -3.655636369864234 7.25789291154896" Properties=species:S:1:pos:R:3 unique_starting_index=152 config_type=initial n_minim_iter=21 stress="0.0012023956264589286 -0.0002256209784451169 -0.0016748057236582006 -0.0002256209784451169 0.0018115247474972391 -0.0029432186440466034 -0.0016748057236582006 -0.0029432186440466034 0.0022230796530858282" pbc="T T T"
Si       3.43589379       3.71640131       5.46087766
Si       2.88693109       0.54446771       7.42411250
Si       5.76278785       7.87707725       1.74306502
Si       5.36763209       2.31186309       3.03263251
Si      -0.76070868      -0.84339409       4.52809972
Si       3.99867387       4.37108513       3.22993888
Si       6.97657521       3.96680456       3.62881551
Si       2.35263515       1.60645431       5.40463644
Si       7.19624040       8.52670280       3.55997273
Si      -0.71436068      -1.86374319       6.76015113
Si       3.66239687       3.00319127       1.22504882
Si       5.87506097       5.53048237       2.06719915
Si       1.77237770       4.16811027       0.08756512
Si       1.47468666       4.60615806       4.13455863
Si       4.66780099       5.03114002       7.09996610
Si       0.20819832       1.36426337       4.37197917
