24
Lattice="7.102457828448423 -1.782186717328091 0.9969449993513908 0.8825869830094837 8.832183782020309 -0.7297691612697601 2.797896978033439 1.9094521321471158 9.665641578363067" Properties=species:S:1:pos:R:3 unique_starting_index=94 config_type=initial n_minim_iter=1 energy=-3895.1451693461613 free_energy=-3895.1451693461613 pbc="T T T"
Si       9.23562713       5.24494537       8.47832186
Si       1.22998829       2.79575285       2.76371104
Si       1.35940704       7.68692710      -0.20639513
Si       6.87458538       8.98240337       7.32706950
Si       5.18653182       1.68815655       1.10399165
Si       5.82489807       3.71552819       9.98048254
Si       5.21860231       1.25390825       3.60818776
Si       4.36838600      -0.38947483       2.15880768
Si       8.07322011       0.59114382       7.39639179
Si       9.01409087       6.94295995       6.74879234
Si       5.15259405       5.72218180       8.86870391
Si       6.11596126       1.25860741       5.76262674
Si       3.32864604       6.06899823       2.56982552
Si       2.83950707       5.00234519       8.61810718
Si       6.32555734       3.68411163       5.49633399
Si       6.78509424       4.35993567       7.87184968
Si       4.87683763       1.86918171       8.92977978
Si       2.81868098       5.83398946       0.24551468
Si       8.46452581       3.26047723       3.33028376
Si       4.26324642       3.60247639       7.50642266
Si       8.03529530       5.15137752       4.66916259
Si       2.08700023       0.19606904       1.83919546
Si       5.00840566       7.62720925       7.40715801
Si       6.21402675       3.27995739       3.01392982
24
Lattice="6.919070520061155 -1.7371646608435414 1.0741819485684634 0.8475659786335368 8.571394259300373 -0.7664991057586326 2.8300759130642152 1.788184392798038 9.539999792838096" Properties=species:S:1:pos:R:3 unique_starting_index=94 config_type=initial n_minim_iter=2 stress="-0.025679868316127726 -0.004285217154235 0.0011811180155807037 -0.004285217154235 -0.02829461572134152 0.001239517759471727 0.0011811180155807037 0.001239517759471727 -0.021805715490502732" pbc="T T T"
Si       9.06778747       5.03810897       8.42130120
Si       1.18345146       2.66948865       2.74014212
Si       1.28582075       7.44468110      -0.22662800
Si       6.76529268       8.65059176       7.23090843
Si       5.06499324       1.62890856       1.15092249
Si       5.78918349       3.55645013       9.88778118
Si       5.12567372       1.18579208       3.61699586
Si       4.27935364      -0.40953889       2.17544841
Si       7.97075100       0.52774646       7.35331496
Si       8.83538397       6.67160473       6.69249753
Si       5.10419926       5.49564129       8.76123246
Si       6.04978411       1.18210418       5.73281813
Si       3.29494878       5.89240709       2.54284318
Si       2.86375132       4.81043152       8.46985989
Si       6.20479974       3.52696305       5.47759992
Si       6.71569616       4.17826965       7.79390242
Si       4.83008619       1.76808917       8.83702550
Si       2.74847564       5.66499361       0.24620363
Si       8.26906388       3.12428079       3.33347532
Si       4.21941947       3.41964355       7.38062250
Si       7.87836268       4.97945638       4.67364306
Si       2.03224148       0.18310746       1.85306585
Si       4.93109326       7.34368188       7.30219669
Si       6.05022564       3.17392579       2.99614223
24
Lattice="6.76083431440959 -1.6486185120203838 1.3718283727828966 0.8809555914199059 8.358076716936706 -0.9592224200122922 3.113206376216074 1.5234305682016749 9.660895891047764" Properties=species:S:1:pos:R:3 unique_starting_index=94 config_type=initial n_minim_iter=3 stress="-0.027771146532035162 0.0009236124971652389 0.009642037580490216 0.0009236124971652389 -0.03414124504128612 -0.005035412263028466 0.009642037580490216 -0.005035412263028466 -0.02610634167072344" pbc="T T T"
Si       9.15086244       4.80155363       8.67033899
Si       1.12820192       2.44828054       2.81020480
Si       1.20454735       7.20914509      -0.33326357
Si       6.92802721       8.24575105       7.28195395
Si       5.02265739       1.60315788       1.35578941
Si       6.06943459       3.32943138      10.12570810
Si       5.16777379       1.08992649       3.84056128
Si       4.26344378      -0.47070814       2.34459805
Si       8.15422639       0.42537980       7.60709150
Si       8.88712628       6.34468086       6.84125720
Si       5.31749944       5.18471547       8.87903861
Si       6.23496814       1.06352332       5.94522829
Si       3.46610687       5.77458569       2.57872567
Si       3.15505001       4.54276493       8.44021150
Si       6.24523848       3.31855859       5.70314620
Si       6.95986693       3.93865291       7.95312891
Si       4.98892395       1.59275892       9.01432195
Si       2.76497712       5.55533416       0.24027197
Si       8.20212199       2.98465094       3.49386628
Si       4.36180454       3.09505599       7.35620097
Si       7.93351706       4.85274548       4.92176159
Si       1.98527158       0.16737468       2.00068548
Si       5.05707595       6.98191400       7.33450796
Si       5.93577325       3.11913472       3.06817742
24
Lattice="6.655927746135202 -1.7322831858395251 1.3069865715931193 0.7484617999415232 8.297886211853438 -0.9095211346707176 2.950895099954395 1.5488441612186787 9.779349459665388" Properties=species:S:1:pos:R:3 unique_starting_index=94 config_type=initial n_minim_iter=4 stress="-0.025226347097788416 -0.00555892195938525 0.0021928382357197917 -0.00555892195938525 -0.024355015801822158 0.00032569807926159736 0.0021928382357197917 0.00032569807926159736 -0.020283839267391312" pbc="T T T"
Si       8.82463860       4.73388567       8.73826407
Si       0.96067706       2.38994596       2.90546124
Si       1.01096391       7.13007924      -0.26291171
Si       6.62361763       8.12998251       7.36919810
Si       4.91502321       1.53032037       1.37858907
Si       5.84903611       3.34561634      10.26966118
Si       5.04893555       1.02480752       3.88127178
Si       4.18894672      -0.55256518       2.32528312
Si       8.01416035       0.37417023       7.59163763
Si       8.56353402       6.20306021       6.87478757
Si       5.05681850       5.16392439       9.00676178
Si       6.13537802       1.00488521       5.96993122
Si       3.36005527       5.76383897       2.65872720
Si       2.96964216       4.58019531       8.52066840
Si       6.01967981       3.24314976       5.78318208
Si       6.77277204       3.88313132       8.00955552
Si       4.76564569       1.62297345       9.10155751
Si       2.64834763       5.50952665       0.29065098
Si       7.98521110       2.84502057       3.43429598
Si       4.14908161       3.01808144       7.35206434
Si       7.70610019       4.78427417       4.99073958
Si       1.89181287       0.16521950       2.05235454
Si       4.75199333       6.92316319       7.44296842
Si       5.70029322       3.07599342       3.02674879
24
Lattice="6.68215939051916 -1.6454120973550848 1.3351590435190397 0.8409868147473775 8.224202026144951 -0.928198461190651 3.0021541688399696 1.5488956631950574 9.927402813502002" Properties=species:S:1:pos:R:3 unique_starting_index=94 config_type=initial n_minim_iter=5 stress="-0.005871116879966469 0.000792039690277892 0.0020765377758094226 0.000792039690277892 -0.013246951006517118 -6.228375872592891e-05 0.0020765377758094226 -6.228375872592891e-05 -0.00691077316997469" pbc="T T T"
Si       8.93677032       4.78871253       8.87544313
Si       0.94793777       2.33451625       2.97124952
Si       1.05126343       7.05608243      -0.25422034
Si       6.77438121       8.09397621       7.46863384
Si       4.98417263       1.56481379       1.43527937
Si       5.94899119       3.38369969      10.44452147
Si       5.10928097       1.05145561       3.96379134
Si       4.22046363      -0.53448124       2.36677071
Si       8.13245781       0.44984614       7.68520033
Si       8.68608783       6.20347226       6.96379988
Si       5.16200336       5.15896318       9.15395715
Si       6.24691214       1.03483400       6.07379074
Si       3.48904839       5.76814596       2.71500228
Si       3.05497020       4.57077201       8.60886959
Si       6.09082321       3.26723255       5.89616132
Si       6.90750441       3.90387676       8.12126830
Si       4.80626777       1.66372238       9.24043095
Si       2.73932064       5.49852929       0.31488813
Si       8.07389887       2.87799945       3.46060551
Si       4.19347955       2.98105198       7.40108631
Si       7.83346375       4.82927286       5.09135021
Si       1.88118776       0.18915443       2.11388240
Si       4.83242525       6.88379174       7.55114419
Si       5.73436021       3.13259723       3.04525044
24
Lattice="6.56258491307054 -1.7162417273744346 1.3628699803695903 0.7849101979600606 8.383286914656571 -0.997948540584572 2.9540980320120886 1.498031402918125 9.976260275480971" Properties=species:S:1:pos:R:3 unique_starting_index=94 config_type=initial n_minim_iter=6 stress="-0.003860106575179352 -0.0012307127871867074 0.0017485059032853537 -0.0012307127871867074 0.005278271399687641 -0.003939444107234191 0.0017485059032853537 -0.003939444107234191 -0.0013653608698387357" pbc="T T T"
Si       8.74856921       4.80943011       8.89809605
Si       0.88726049       2.31739705       2.98300466
Si       0.96103889       7.18027904      -0.29699470
Si       6.63119567       8.15444078       7.44004264
Si       4.90560987       1.55995317       1.46397648
Si       5.84043431       3.37037508      10.49789065
Si       5.01864940       1.01009608       4.00207716
Si       4.15015180      -0.61077775       2.39637565
Si       8.03385223       0.37353156       7.70973360
Si       8.49031893       6.22183896       6.94699533
Si       5.06120356       5.18107430       9.18312449
Si       6.17773590       0.95766392       6.12830833
Si       3.43531198       5.87100434       2.69996364
Si       2.99047644       4.59883058       8.58904568
Si       5.95737733       3.27393425       5.93046014
Si       6.79878822       3.88956928       8.13237549
Si       4.70058747       1.62894863       9.28908918
Si       2.67837412       5.60383531       0.30083825
Si       7.91101220       2.85689203       3.43735727
Si       4.07972540       2.93038405       7.36388906
Si       7.68406854       4.86664040       5.10640636
Si       1.82156338       0.17784816       2.15410883
Si       4.68621468       6.93582147       7.54133312
Si       5.57698374       3.18206131       3.02135549
24
Lattice="6.560463776299004 -1.674557688524774 1.3118899719519614 0.8043852771163252 8.291246010402451 -0.8965009814735362 2.907150960305466 1.6093590609764366 10.089356520679827" Properties=species:S:1:pos:R:3 unique_starting_index=94 config_type=initial n_minim_iter=7 stress="0.006676075767923882 0.0002823960504147196 -0.0012978886204288167 0.0002823960504147196 0.009572881002865033 0.001249866819050796 -0.0012978886204288167 0.001249866819050796 0.006093799061942928" pbc="T T T"
Si       8.71597690       4.91865046       9.01128501
Si       0.85397829       2.29785370       3.03884651
Si       0.94428338       7.10599563      -0.19402974
Si       6.62817842       8.16630203       7.57826241
Si       4.93091598       1.56434108       1.49700478
Si       5.79410963       3.48828668      10.63137653
Si       5.00637802       1.04627033       4.04285858
Si       4.14429507      -0.60027308       2.39897733
Si       8.05135382       0.47519019       7.72837395
Si       8.46295955       6.25087762       7.04247456
Si       5.04159938       5.26156880       9.33885020
Si       6.19290968       1.00261541       6.20328872
Si       3.46560506       5.87463422       2.79684430
Si       2.95337954       4.67080766       8.69047336
Si       5.93000789       3.33643602       6.02022635
Si       6.79085605       3.95460429       8.22037601
Si       4.63938854       1.74651993       9.38912789
Si       2.70715360       5.57256080       0.39062577
Si       7.90771382       2.86534073       3.43976510
Si       4.01133685       2.95798657       7.40408505
Si       7.68804107       4.90477644       5.19209365
Si       1.78761085       0.21226778       2.19455620
Si       4.62986282       6.96042039       7.68918374
Si       5.53847767       3.23387703       3.05189682
24
Lattice="6.504890687119158 -1.6509956711343294 1.3058072654558903 0.7986422718321229 8.15434821287624 -0.9363156444681953 2.8563201039777586 1.5459804396424472 10.16837891574572" Properties=species:S:1:pos:R:3 unique_starting_index=94 config_type=initial n_minim_iter=8 stress="0.010426004489013185 -0.00020169776966239093 -0.0037114814239167845 -0.00020169776966239093 0.007299889309537241 -0.0016066227305952024 -0.0037114814239167845 -0.0016066227305952024 0.007478017468527835" pbc="T T T"
Si       8.61736999       4.86117652       9.05336522
Si       0.81274201       2.20031986       3.04710573
Si       0.89558088       6.98750396      -0.20784585
Si       6.57695124       7.98763398       7.57201614
Si       4.92295988       1.52623123       1.52103879
Si       5.71174219       3.40376727      10.70777608
Si       4.95293912       1.00000990       4.07820921
Si       4.10666140      -0.64203227       2.43001205
Si       8.04083857       0.43809395       7.74511869
Si       8.35911756       6.11627834       7.03604132
Si       4.99808026       5.16025521       9.41009844
Si       6.17954474       0.92433826       6.28256586
Si       3.47079221       5.79415177       2.79538298
Si       2.90355615       4.56606453       8.69042523
Si       5.85573687       3.27596785       6.06481148
Si       6.73849683       3.84835499       8.23810901
Si       4.54793055       1.70090960       9.46000571
Si       2.71127495       5.49773356       0.40221162
Si       7.83523012       2.78176087       3.39868826
Si       3.89426188       2.82512777       7.36832310
Si       7.63194476       4.82185063       5.20649141
Si       1.73190937       0.20862937       2.24453896
Si       4.52510597       6.80709895       7.71551551
Si       5.43759881       3.22534729       3.03878074
24
Lattice="6.41569599813851 -1.6054200297059196 1.3405225961884204 0.8235029171314581 8.141930794054002 -0.836235551595202 2.898663195117523 1.6631911554952374 10.249791893298859" Properties=species:S:1:pos:R:3 unique_starting_index=94 config_type=initial n_minim_iter=9 stress="0.009208300379085233 0.0014815342060160682 -0.0016225516246338785 0.0014815342060160682 0.009496508577426259 0.003102096591085967 -0.0016225516246338785 0.003102096591085967 0.008482049425680595" pbc="T T T"
Si       8.59049794       5.03864503       9.22125743
Si       0.83165183       2.20902754       3.07433016
Si       0.90094354       6.99136147      -0.11130915
Si       6.60082049       8.08423315       7.72978970
Si       4.89863993       1.55805078       1.59696362
Si       5.71839569       3.53728577      10.83784533
Si       4.91126142       1.05651314       4.15256513
Si       4.06164181      -0.62488879       2.48277884
Si       8.03759387       0.55040486       7.83431031
Si       8.31672729       6.23060496       7.19264990
Si       5.04521153       5.29314800       9.55991412
Si       6.17243627       0.98913459       6.40331979
Si       3.49400422       5.84744623       2.89985261
Si       2.94692998       4.66165912       8.76906026
Si       5.83193355       3.37856132       6.18211740
Si       6.73060754       3.95277217       8.35503454
Si       4.54418431       1.82443210       9.55625301
Si       2.72593946       5.52546163       0.51672198
Si       7.76473020       2.83854928       3.48798471
Si       3.85763036       2.88040460       7.41537343
Si       7.60006103       4.91626687       5.34000512
Si       1.70608938       0.23974766       2.28865317
Si       4.52800370       6.89882260       7.85892158
Si       5.37550960       3.32084685       3.13789745
24
Lattice="6.39548428772526 -1.6088836029796945 1.3308141503616824 0.8121966676826586 8.096797364457675 -0.8778412797911668 2.8685222976440112 1.6032012636703483 10.199798259044012" Properties=species:S:1:pos:R:3 unique_starting_index=94 config_type=initial n_minim_iter=10 stress="0.009495970550085287 -0.0004438468261847829 -0.001918574465670506 -0.0004438468261847829 0.006633540345768095 0.00023591392704982333 -0.001918574465670506 0.00023591392704982333 0.00669336729098624" pbc="T T T"
Si       8.54547159       5.02103482       9.15984679
Si       0.85294017       2.17641466       3.00781602
Si       0.89542743       6.97465392      -0.15098680
Si       6.57729154       7.99435804       7.62937652
Si       4.90330886       1.52885997       1.57116153
Si       5.65176357       3.43112717      10.76241070
Si       4.86115433       1.01992097       4.11659645
Si       4.03598934      -0.65920333       2.50255094
Si       8.04341410       0.48515003       7.79681369
Si       8.26147719       6.18224935       7.11766160
Si       5.03763428       5.23682621       9.49674418
Si       6.14904429       0.91681902       6.41049825
Si       3.47220733       5.78850179       2.83392900
Si       2.91080878       4.56885002       8.68472627
Si       5.80152795       3.34309761       6.12522183
Si       6.67057249       3.86915819       8.28020606
Si       4.49550962       1.75706540       9.50649234
Si       2.73463699       5.50080626       0.50359200
Si       7.72582521       2.78964641       3.44501036
Si       3.76268254       2.79656242       7.35031920
Si       7.56558246       4.85562538       5.25344793
Si       1.68656876       0.21081833       2.28040861
Si       4.47779847       6.81826247       7.78291711
Si       5.33598151       3.32455428       3.13649980
24
Lattice="6.285225163092073 -1.522446308526385 1.299627518699616 0.9148914958652187 8.1255485142257 -0.8670783239922647 2.8324036885710067 1.6484030067159712 10.091672178514278" Properties=species:S:1:pos:R:3 unique_starting_index=94 config_type=initial n_minim_iter=11 stress="-0.00031138507072047403 0.0029571520595237247 -0.0011876072053721692 0.0029571520595237247 -0.0008552133761419556 0.0004328761323926187 -0.0011876072053721692 0.0004328761323926187 -0.0020171015558094908" pbc="T T T"
Si       8.48627972       5.19394752       9.06673428
Si       0.91873895       2.22924433       2.94006500
Si       1.01601304       7.03497314      -0.15840045
Si       6.59118142       8.11122629       7.54257431
Si       4.85886896       1.59710938       1.51703876
Si       5.57894874       3.46948755      10.62987804
Si       4.77191278       1.09281192       4.04286656
Si       3.95375982      -0.60255443       2.49396723
Si       7.93263437       0.57280778       7.72131917
Si       8.22288067       6.35737467       7.03927025
Si       5.04761534       5.33525107       9.38382764
Si       6.04664294       1.00168084       6.33844140
Si       3.47517485       5.81585196       2.77809422
Si       2.91568945       4.59660424       8.60301541
Si       5.76538390       3.43616314       6.02737242
Si       6.58213332       3.96297936       8.18960569
Si       4.43963315       1.79954788       9.39329514
Si       2.78700302       5.55510625       0.49491483
Si       7.64619347       2.91209496       3.41517648
Si       3.70476625       2.85950718       7.30869482
Si       7.51562742       4.96437398       5.14101431
Si       1.67610184       0.20153366       2.23259148
Si       4.51641719       6.90555798       7.69643312
Si       5.31956373       3.42359880       3.15106224
24
Lattice="6.307045769334995 -1.598851475100665 1.397319914167393 0.7977352716778084 8.068473958406724 -0.8635466960647735 2.923206162182526 1.605127197062792 10.229466306541502" Properties=species:S:1:pos:R:3 unique_starting_index=94 config_type=initial n_minim_iter=12 stress="-0.0005034669402366 -0.002159618665874812 0.003996527672179366 -0.002159618665874812 -0.003154943426533702 -0.0003389224535611843 0.003996527672179366 -0.0003389224535611843 0.00012853776202065338" pbc="T T T"
Si       8.50161749       5.07212135       9.28433937
Si       0.93796576       2.22440531       2.97625148
Si       0.93266290       6.99819818      -0.14861035
Si       6.55622557       7.98025449       7.71449889
Si       4.84601508       1.52094385       1.58999352
Si       5.63878875       3.35557473      10.80827215
Si       4.78185781       1.02631303       4.13668311
Si       3.97796135      -0.65419976       2.58490258
Si       8.00620958       0.44666529       7.90998828
Si       8.20586902       6.23462544       7.21903408
Si       5.08565184       5.24620661       9.53841539
Si       6.09392718       0.92625448       6.46511826
Si       3.42139632       5.72118278       2.85065629
Si       2.95326305       4.53625741       8.73382950
Si       5.77821455       3.33241863       6.15296487
Si       6.60373153       3.85451157       8.36762198
Si       4.51374013       1.71905783       9.53596800
Si       2.72340008       5.48750381       0.53440858
Si       7.62977837       2.79840311       3.56025199
Si       3.73405275       2.79588412       7.44703814
Si       7.49548311       4.83731004       5.27379155
Si       1.70043725       0.15878605       2.26893369
Si       4.51994379       6.81630786       7.83045048
Si       5.30097600       3.34242265       3.28036198
24
Lattice="6.224184058091576 -1.5807944532545655 1.3462689444628249 0.8181168762138369 8.075046839551023 -0.8730153168199228 2.8309473796312252 1.6095734876577585 10.201770038829418" Properties=species:S:1:pos:R:3 unique_starting_index=94 config_type=initial n_minim_iter=13 stress="-0.007357745627449095 -0.0021663918132176223 0.0004822762410551702 -0.0021663918132176223 -0.005017487863986182 -0.0011688746297669223 0.0004822762410551702 -0.0011688746297669223 -0.0013487809955978498" pbc="T T T"
Si       8.35148524       5.11711337       9.22532012
Si       0.90951211       2.23179003       2.97702187
Si       0.93900061       7.01156595      -0.15066010
Si       6.45222518       7.99578161       7.66370946
Si       4.78886500       1.53516022       1.55441872
Si       5.51786591       3.35527405      10.76415028
Si       4.69901771       1.04064061       4.09268864
Si       3.91462197      -0.65506015       2.56313836
Si       7.89048305       0.45078345       7.83228755
Si       8.08504448       6.26864400       7.13870443
Si       4.98916873       5.26273644       9.48603655
Si       6.00779144       0.95387952       6.38611872
Si       3.39432559       5.72325488       2.82921673
Si       2.88629388       4.55818442       8.70231253
Si       5.67934456       3.33208199       6.10117900
Si       6.49502569       3.87400089       8.31494746
Si       4.39974777       1.72057268       9.47650004
Si       2.71847182       5.50263742       0.50930727
Si       7.52861907       2.82393067       3.49168640
Si       3.64002232       2.79208164       7.41206087
Si       7.40048500       4.86909518       5.19938168
Si       1.66277291       0.14569614       2.25772879
Si       4.44346882       6.83318208       7.78403720
Si       5.21754866       3.37351493       3.25082765
24
Lattice="6.246572714258585 -1.5743454043935228 1.3076871443002245 0.8383556846386936 8.1159878669649 -0.8388166387159166 2.8203924862448795 1.6509456830550109 10.052048754181952" Properties=species:S:1:pos:R:3 unique_starting_index=94 config_type=initial n_minim_iter=14 stress="-0.006187590520097052 -0.0019517314565762496 -7.203285618649745e-05 -0.0019517314565762496 -0.005060631388571285 -1.6735025389304698e-05 -7.203285618649745e-05 -1.6735025389304698e-05 -0.00601351290166351" pbc="T T T"
Si       8.35954475       5.20133035       9.10220919
Si       0.90513902       2.25926973       2.95009257
Si       0.95150293       7.05622398      -0.12204536
Si       6.46840704       8.06760814       7.56908987
Si       4.80908495       1.55607159       1.53050061
Si       5.52092622       3.39753920      10.60949073
Si       4.70505608       1.06902662       4.02065607
Si       3.92464397      -0.65437744       2.52397209
Si       7.91952298       0.47012318       7.68821555
Si       8.11261587       6.34104052       7.02679953
Si       4.99980544       5.32456649       9.34600562
Si       6.03863768       1.00115360       6.25178519
Si       3.42328782       5.75277620       2.80899635
Si       2.89306402       4.62974196       8.58420334
Si       5.68903461       3.35773773       6.00705908
Si       6.51622437       3.93091348       8.19760351
Si       4.39087148       1.75409500       9.31326342
Si       2.75081018       5.53899878       0.50641876
Si       7.55776819       2.86782425       3.42882638
Si       3.63812265       2.82700518       7.31252489
Si       7.43538211       4.93060707       5.11112143
Si       1.66004818       0.14021910       2.22401972
Si       4.46206113       6.90259815       7.67538298
Si       5.22526418       3.41960829       3.21747050
24
Lattice="6.195494621734528 -1.53027738861445 1.284226517332547 0.9002281877985125 8.165936026752814 -0.82795656192219 2.788209219756399 1.698792852847797 10.080460951444557" Properties=species:S:1:pos:R:3 unique_starting_index=94 config_type=initial n_minim_iter=15 stress="-0.0024413798187958684 0.0004754229315892716 -0.0016311891204102344 0.0004754229315892716 -0.00030179922368279765 -0.00012840320924783038 -0.0016311891204102344 -0.00012840320924783038 1.894089466525883e-06" pbc="T T T"
Si       8.29580055       5.36505913       9.15022581
Si       0.90439966       2.28565528       2.96837029
Si       0.98859005       7.12040778      -0.09140747
Si       6.46569142       8.17187785       7.59545842
Si       4.79563262       1.60505127       1.53675481
Si       5.48004627       3.44256024      10.63795916
Si       4.65667836       1.12436724       4.01020883
Si       3.88788078      -0.65227056       2.54140896
Si       7.89158240       0.50558777       7.65003788
Si       8.08919149       6.46648488       7.01467540
Si       5.00084056       5.41103985       9.36578687
Si       6.03905246       1.08509109       6.21317739
Si       3.46983237       5.78631431       2.84607129
Si       2.90496949       4.73237172       8.60472741
Si       5.64982154       3.39956011       6.00839140
Si       6.50171116       4.01992147       8.22221983
Si       4.33254236       1.79502959       9.29412192
Si       2.80853711       5.59918965       0.49920285
Si       7.52360195       2.96244192       3.40584823
Si       3.59685252       2.86674065       7.33764741
Si       7.43309244       5.04717638       5.08527821
Si       1.62857145       0.12871917       2.24010183
Si       4.47271810       6.99961939       7.68391152
Si       5.17769031       3.52125465       3.25539253
24
Lattice="6.189781653632925 -1.5018556344044636 1.2770317520292835 0.9453356449184379 8.234467383614296 -0.7747978167949249 2.8176459888307024 1.774377705008908 9.974513851910402" Properties=species:S:1:pos:R:3 unique_starting_index=94 config_type=initial n_minim_iter=16 stress="0.005716076253759172 0.00035755104333690433 -0.0009161626641726661 0.00035755104333690433 0.0035417876775890706 0.0010357497777854874 -0.0009161626641726661 0.0010357497777854874 0.0013886745553878972" pbc="T T T"
Si       8.30857859       5.58848680       9.13667230
Si       0.93305379       2.31139047       2.91312442
Si       1.00994922       7.21453803      -0.02714119
Si       6.53510673       8.30802442       7.55053470
Si       4.82459319       1.65015344       1.56559816
Si       5.50047392       3.49695145      10.53376936
Si       4.63834600       1.18070751       3.96833941
Si       3.88384172      -0.67438736       2.56019080
Si       7.96278360       0.52938387       7.52624985
Si       8.12762183       6.60996597       6.96430387
Si       5.08403566       5.53497104       9.30203475
Si       6.11561038       1.15842314       6.16183857
Si       3.54859459       5.82218244       2.88216317
Si       2.96187767       4.87355007       8.50853414
Si       5.65759780       3.46530171       5.96128466
Si       6.56008169       4.12114852       8.16938780
Si       4.32983473       1.85287591       9.17114365
Si       2.89137909       5.67270861       0.52093406
Si       7.54283075       3.06063188       3.37916142
Si       3.58645100       2.92855220       7.27178145
Si       7.49580361       5.18500948       5.03076259
Si       1.60348311       0.11988593       2.24695898
Si       4.51633377       7.12802704       7.61237592
Si       5.15172302       3.65554036       3.30799285
24
Lattice="6.09062419473046 -1.431436471462344 1.3017649671403728 1.0389720277329455 8.338681850089523 -0.7376126696509036 2.8586080998873853 1.8596131545928742 9.93144816451294" Properties=species:S:1:pos:R:3 unique_starting_index=94 config_type=initial n_minim_iter=17 stress="0.011073143270659828 0.003129999651021622 8.178597754232782e-05 0.003129999651021622 0.006853312582796808 0.002084745727006386 8.178597754232782e-05 0.002084745727006386 0.006577788972448769" pbc="T T T"
Si       8.26758648       5.90578306       9.21201423
Si       0.98490574       2.33561169       2.83401045
Si       1.06530085       7.34868198       0.03817229
Si       6.61040580       8.51212300       7.54275965
Si       4.79968099       1.73862254       1.63128258
Si       5.50273203       3.56329918      10.48772007
Si       4.56577445       1.26969992       3.95789271
Si       3.82733190      -0.69189649       2.62058256
Si       7.95651589       0.57590552       7.43012259
Si       8.12744877       6.80835044       6.96771475
Si       5.18491702       5.69525195       9.31339935
Si       6.15543414       1.27822584       6.18835645
Si       3.65037956       5.86764168       2.95987851
Si       3.04907177       5.07054048       8.45761676
Si       5.61886798       3.56794213       5.95695912
Si       6.60706287       4.27045992       8.18465353
Si       4.30645262       1.92277235       9.11585938
Si       3.00004475       5.78188065       0.52662041
Si       7.49274990       3.23801068       3.38153845