16
Lattice="2.631037614455111 -0.29066155229522717 -0.33633579668232294 -1.4458369436746699 7.665266243721755 -2.8954232730153824 -2.4402911610826252 -5.753072412976215 17.63892486021194" Properties=species:S:1:pos:R:3 unique_starting_index=140 config_type=initial n_minim_iter=1 energy=-2602.9799910289444 free_energy=-2602.9799910289444 pbc="T T T"
Si      -0.01042723       3.63687190      -0.37572610
Si      -0.85921121       1.47620327       3.86122495
Si       0.45505602      -1.55233048       5.01395493
Si      -1.45154542       3.69996538       2.07610485
Si       0.18606618       0.04485166      10.84103050
Si       0.08830891       0.58218133       1.74956153
Si      -0.63705791       0.48727606       8.63207875
Si      -1.96155675       2.65240676      11.43327550
Si      -1.52284383       3.80668516       4.48797960
Si       1.12642275      -2.10930239       8.50368530
Si      -1.29557155       5.97840416      -0.23982663
Si      -0.81619802       2.98811100       9.10455478
Si       2.39617546       0.99100047      -0.94690315
Si      -1.52937896       2.79902669       6.75439456
Si      -0.49282325       0.46598775       6.15241203
Si      -1.41517026      -1.93492951      11.21610025
16
Lattice="2.6337001595186815 -0.2932974115774234 -0.33631947569512155 -1.4562455814878348 7.664038628778491 -2.904126693237285 -2.431713887266115 -5.752233467969559 17.678672315913964" Properties=species:S:1:pos:R:3 unique_starting_index=140 config_type=initial n_minim_iter=2 stress="0.0009826081825066555 -0.0003858324115438834 0.00031857475913938435 -0.0003858324115438834 0.0005685691216514055 -0.00043982782906225434 0.00031857475913938435 -0.00043982782906225434 0.0033135113779322093" pbc="T T T"
Si      -0.01295835       3.64197841      -0.37453827
Si      -0.85909926       1.47599674       3.86505021
Si       0.45992195      -1.55617423       5.02429575
Si      -1.45965088       3.69981708       2.07856852
Si       0.19064169       0.03887143      10.86953686
Si       0.09095731       0.58177454       1.76084433
Si      -0.63527005       0.48788508       8.64769176
Si      -1.96020509       2.65039873      11.45588462
Si      -1.52960349       3.80607558       4.50483729
Si       1.12878019      -2.11720448       8.51765349
Si      -1.30474246       5.97681658      -0.24308367
Si      -0.81553213       2.98747395       9.11859770
Si       2.39556379       0.98819367      -0.94770660
Si      -1.53357477       2.79620422       6.76518527
Si      -0.49226379       0.46600505       6.16562172
Si      -1.41294895      -1.93665707      11.24218045
16
Lattice="2.632197829365873 -0.2937182754160937 -0.3361253115968337 -1.4563807437609035 7.655531887448339 -2.8930274827436677 -2.4329511527799283 -5.739118446860029 17.62937767128632" Properties=species:S:1:pos:R:3 unique_starting_index=140 config_type=initial n_minim_iter=3 stress="-0.0010194853350264303 -0.0004989312066270845 5.317957611939941e-05 -0.0004989312066270845 -0.0013174771555429891 -0.0004790484774960633 5.317957611939941e-05 -0.0004790484774960633 0.00022115574139217333" pbc="T T T"
Si      -0.01264344       3.64262063      -0.37004171
Si      -0.85866902       1.47660771       3.85267713
Si       0.45987169      -1.55463536       5.00907533
Si      -1.46242104       3.69749811       2.07439189
Si       0.18910565       0.04092075      10.84316599
Si       0.09230013       0.58222041       1.76138962
Si      -0.63641567       0.49228851       8.62271703
Si      -1.95997118       2.65256184      11.42548207
Si      -1.53237808       3.80454461       4.50004683
Si       1.12448063      -2.11568925       8.49000431
Si      -1.30614012       5.97083718      -0.24026316
Si      -0.81610102       2.98968442       9.09180738
Si       2.39298968       0.98643893      -0.94463994
Si      -1.53584335       2.79522075       6.74626523
Si      -0.49355266       0.46886296       6.14915603
Si      -1.41530186      -1.93103004      11.21200064
16
Lattice="2.6357080525893024 -0.2927039051196963 -0.33637450781213696 -1.452611048886393 7.664838684485639 -2.881754985204609 -2.4433374260945846 -5.7344320719167055 17.59996789960383" Properties=species:S:1:pos:R:3 unique_starting_index=140 config_type=initial n_minim_iter=4 stress="0.0002522601960542154 -0.00027646704727726426 -0.00010306354504997137 -0.00027646704727726426 0.0006550975591152969 -0.00020427483264175202 -0.00010306354504997137 -0.00020427483264175202 -0.00037570839757868746" pbc="T T T"
Si      -0.00977025       3.65015969      -0.36532034
Si      -0.85883566       1.48243250       3.84772969
Si       0.45916707      -1.55303922       5.00017406
Si      -1.46347349       3.70456943       2.07543556
Si       0.18800423       0.05012278      10.82930692
Si       0.09352393       0.58521777       1.76157961
Si      -0.63810041       0.50089030       8.61052886
Si      -1.96160769       2.66620487      11.41176707
Si      -1.53399710       3.81383115       4.49968617
Si       1.12229959      -2.11208145       8.47463194
Si      -1.30414688       5.97986196      -0.23443073
Si      -0.81578771       3.00336057       9.08025243
Si       2.39661148       0.98919851      -0.94230566
Si      -1.53780036       2.80430996       6.73866800
Si      -0.49503822       0.47522553       6.14085578
Si      -1.42114487      -1.92563536      11.19487554
16
Lattice="2.6361304363536053 -0.28810775996627647 -0.33627127750316765 -1.4396443155784453 7.649448170772387 -2.869064361985094 -2.4503980476315554 -5.701833290149179 17.592831728583974" Properties=species:S:1:pos:R:3 unique_starting_index=140 config_type=initial n_minim_iter=5 stress="9.513969618123322e-05 0.00015826504685143147 7.228306611962385e-05 0.00015826504685143147 -2.507533630926065e-07 0.0003881676450389635 7.228306611962385e-05 0.0003881676450389635 -6.047656285298039e-05" pbc="T T T"
Si      -0.00319601       3.64697347      -0.35816551
Si      -0.85428523       1.48747359       3.85007884
Si       0.45882064      -1.54205439       4.99864822
Si      -1.45821288       3.70154939       2.08371716
Si       0.19163618       0.06900803      10.83318677
Si       0.09661260       0.58864227       1.76513315
Si      -0.63467822       0.51414606       8.61276586
Si      -1.95253641       2.68010484      11.41733215
Si      -1.52916008       3.81440304       4.50875524
Si       1.12045948      -2.09332278       8.47148402
Si      -1.29389080       5.97147402      -0.22467633
Si      -0.80647509       3.01663589       9.08490702
Si       2.39848601       0.99257522      -0.93866709
Si      -1.53246972       2.80907143       6.74351921
Si      -0.49280234       0.48493133       6.14198352
Si      -1.42337106      -1.90730357      11.19323097
16
Lattice="2.6389474867780964 -0.2735746172142951 -0.3383308255859259 -1.3978453607705745 7.629093640046608 -2.8613333222235293 -2.5005107839234437 -5.6983258915764825 17.574828589006934" Properties=species:S:1:pos:R:3 unique_starting_index=140 config_type=initial n_minim_iter=6 stress="-0.0002749891935070466 0.0012843129459756476 0.00037938572813214495 0.0012843129459756476 -0.0010357522842477944 0.000427051192515845 0.00037938572813214495 0.000427051192515845 0.00027660408183616145" pbc="T T T"
Si       0.01443928       3.64588802      -0.35271939
Si      -0.84332251       1.49183200       3.84236759
Si       0.45421487      -1.53559497       4.99455011
Si      -1.45259244       3.68630582       2.09809587
Si       0.18659653       0.07148022      10.83106544
Si       0.10879759       0.59551296       1.77459413
Si      -0.63681201       0.50783912       8.60481889
Si      -1.93795781       2.66861196      11.40142945
Si      -1.53602327       3.79798338       4.51490705
Si       1.10055536      -2.08174685       8.45217961
Si      -1.26447054       5.95702620      -0.22340220
Si      -0.78747675       3.02307484       9.06183254
Si       2.40390128       1.01578620      -0.92880682
Si      -1.53304788       2.78654098       6.73386180
Si      -0.49637768       0.48339936       6.12956109
Si      -1.45288030      -1.91453447      11.18008583
16
Lattice="2.644635973104189 -0.2928043612815469 -0.3484434233757269 -1.4416230885935197 7.655218807056982 -2.85071580654454 -2.5338813805422298 -5.694153155441635 17.552870344891552" Properties=species:S:1:pos:R:3 unique_starting_index=140 config_type=initial n_minim_iter=7 stress="0.0007794854951684379 -0.00028045456225659607 -0.00032442487338641513 -0.00028045456225659607 -0.00012537036351656825 -0.0002752655092961965 -0.00032442487338641513 -0.0002752655092961965 1.800501826535762e-05" pbc="T T T"
Si      -0.01376613       3.65806539      -0.34950596
Si      -0.86182763       1.51086133       3.83535078
Si       0.45306798      -1.54306727       4.98639430
Si      -1.49972597       3.70284012       2.11588993
Si       0.14539962       0.06804340      10.81877919
Si       0.10913350       0.60287775       1.77715411
Si      -0.67109348       0.50222389       8.59317112
Si      -1.99028301       2.68280660      11.38074979
Si      -1.60970017       3.81421481       4.51874880
Si       1.07993253      -2.09407350       8.42323729
Si      -1.30677256       5.97936999      -0.22011327
Si      -0.83255435       3.04560912       9.03212989
Si       2.39691582       1.01394166      -0.92655077
Si      -1.59037209       2.78596606       6.72368048
Si      -0.52478902       0.48417583       6.11190831
Si      -1.49372033      -1.91756016      11.16105517
16
Lattice="2.637979183575283 -0.29378130843045797 -0.3468832996916852 -1.4408101898755563 7.666157254765265 -2.846730125788169 -2.515161717950027 -5.691072615434549 17.549816507280635" Properties=species:S:1:pos:R:3 unique_starting_index=140 config_type=initial n_minim_iter=8 stress="-0.0006406142722837979 -0.00013303731629918765 5.072470291568904e-05 -0.00013303731629918765 0.0007372812776626688 -0.00012572403114695187 5.072470291568904e-05 -0.00012572403114695187 0.00010067053800083034" pbc="T T T"
Si      -0.01503847       3.66580013      -0.34626558
Si      -0.85540417       1.51738875       3.83635487
Si       0.45668125      -1.54245800       4.98647984
Si      -1.49689231       3.71141039       2.11969876
Si       0.15278434       0.07521344      10.82200215
Si       0.11178218       0.60614921       1.77762251
Si      -0.66241521       0.50728340       8.59454356
Si      -1.97525693       2.69504034      11.38258011
Si      -1.60862174       3.82477240       4.52264270
Si       1.08273121      -2.09198338       8.42249078
Si      -1.30374562       5.98987870      -0.21682336
Si      -0.82178789       3.05857047       9.03333735
Si       2.38899626       1.01554162      -0.92386607
Si      -1.58363749       2.79260694       6.72527218
Si      -0.51937352       0.48797932       6.11197744
Si      -1.48329660      -1.91339090      11.15923437
16
Lattice="2.639869778820749 -0.29368188310657545 -0.34292950933602917 -1.4440620075905413 7.632825693488776 -2.8034643888357293 -2.4868767316154616 -5.583999402400428 17.486611191072292" Properties=species:S:1:pos:R:3 unique_starting_index=140 config_type=initial n_minim_iter=9 stress="-0.0017398207428995429 -0.00014091840490978988 0.0007279509212641791 -0.00014091840490978988 -0.0005950093767405888 0.001762166565306459 0.0007279509212641791 0.001762166565306459 -0.0009250105879648854" pbc="T T T"
Si      -0.02002391       3.67104259      -0.31983311
Si      -0.83136732       1.54282272       3.83853956
Si       0.47471332      -1.51497192       4.97026865
Si      -1.50894197       3.72343959       2.14664824
Si       0.17624309       0.13027498      10.81715996
Si       0.12965497       0.62166164       1.77150701
Si      -0.63461221       0.53704809       8.58384862
Si      -1.93169147       2.74539564      11.37413573
Si      -1.64862649       3.85086933       4.54833675
Si       1.09382150      -2.04458842       8.38952904
Si      -1.29606964       5.98231489      -0.18534343
Si      -0.77831770       3.10960915       9.02161924
Si       2.37793585       1.01364003      -0.91259215
Si      -1.58273398       2.79849652       6.72531238
Si      -0.50842703       0.50613555       6.09908263
Si      -1.47231608      -1.85215654      11.11728546
16
Lattice="2.6495011101858648 -0.27912918788414587 -0.34824391092958035 -1.4067431465104787 7.618787335178784 -2.8354105945240073 -2.5685058761376998 -5.6637291014990865 17.514474121886842" Properties=species:S:1:pos:R:3 unique_starting_index=140 config_type=initial n_minim_iter=10 stress="-0.0008350748392613203 0.00014536519444643088 0.00023059372667123948 0.00014536519444643088 -3.782609530639082e-05 0.00033635939777859516 0.00023059372667123948 0.00033635939777859516 4.8260127096601915e-05" pbc="T T T"
Si      -0.01116191       3.67974332      -0.32911930
Si      -0.81415468       1.52685755       3.83274126
Si       0.46779651      -1.53514047       4.97322234
Si      -1.52567566       3.70884887       2.14883021
Si       0.15150211       0.07416761      10.82759953
Si       0.14760871       0.62381977       1.75707547
Si      -0.63990699       0.47068306       8.58270431
Si      -1.92581360       2.66876768      11.36053196
Si      -1.71795278       3.82715445       4.55242039
Si       1.05960875      -2.08008563       8.38037498
Si      -1.26217099       5.97276492      -0.20952600
Si      -0.75531977       3.06511963       8.99008554
Si       2.37715493       1.03246732      -0.92470146
Si      -1.60882346       2.71991397       6.71507550
Si      -0.52519975       0.45270811       6.09162971
Si      -1.52594929      -1.91127048      11.11175561
16
Lattice="2.6635317787187476 -0.2713362313763563 -0.352416855560057 -1.3908851947675764 7.603554046719817 -2.8514090990047243 -2.6320140069013664 -5.707905376602566 17.509796297240232" Properties=species:S:1:pos:R:3 unique_starting_index=140 config_type=initial n_minim_iter=11 stress="0.0007970242792741813 2.280489256919179e-05 -0.00037700616727462307 2.280489256919179e-05 -4.11506165933258e-05 -0.0008084854429140192 -0.00037700616727462307 -0.0008084854429140192 0.0001995768398902549" pbc="T T T"
Si      -0.00778311       3.68264297      -0.33242235
Si      -0.80525917       1.51561981       3.81910158
Si       0.46489927      -1.54694560       4.96593800
Si      -1.54981130       3.69715344       2.15020524
Si       0.13111319       0.03751712      10.82255309
Si       0.16261271       0.62823531       1.74906780
Si      -0.64498967       0.42831748       8.56863556
Si      -1.93049703       2.61760156      11.33394118
Si      -1.78478517       3.80891355       4.55625974
Si       1.03698514      -2.10589499       8.35906756
Si      -1.24641824       5.96340323      -0.22681963
Si      -0.74363185       3.03422537       8.95503749
Si       2.38025130       1.04587289      -0.93156812
Si      -1.63620219       2.66685589       6.70064700
Si      -0.54106522       0.41759358       6.08126168
Si      -1.56818754      -1.94925861      11.09432216
16
Lattice="2.668249107021189 -0.2741559851136911 -0.34778446086163245 -1.4057950204765284 7.59370296866828 -2.835108688752464 -2.598205929903171 -5.663525236798543 17.478963025671394" Properties=species:S:1:pos:R:3 unique_starting_index=140 config_type=initial n_minim_iter=12 stress="0.0021603627403833994 -0.00013559020119333857 -0.00019223844533593063 -0.00013559020119333857 0.0006557149456853061 2.2381855056356128e-05 -0.00019223844533593063 2.2381855056356128e-05 4.2838927207649275e-05" pbc="T T T"
Si      -0.01254506       3.67328021      -0.32051788
Si      -0.79431408       1.51709068       3.80870162
Si       0.47577986      -1.53081389       4.95104543
Si      -1.56474127       3.70540801       2.15787732
Si       0.14700982       0.06528003      10.81585553
Si       0.17360207       0.64345729       1.74223317
Si      -0.61283613       0.44553912       8.55871250
Si      -1.90920737       2.64056675      11.32091135
Si      -1.82608885       3.82188944       4.56791050
Si       1.05831074      -2.09518959       8.34831112
Si      -1.24299010       5.96700851      -0.22478547
Si      -0.71724884       3.04160918       8.96003796
Si       2.37374953       1.04945365      -0.93037190
Si      -1.62599990       2.68503218       6.70959031
Si      -0.53302981       0.42463797       6.09109295
Si      -1.53973710      -1.92678826      11.07878358
16
Lattice="2.667284061588127 -0.2725774150152982 -0.34748871504835427 -1.4012041242302655 7.579594510151162 -2.824582131412246 -2.5982757313916873 -5.637269179893807 17.460216051382517" Properties=species:S:1:pos:R:3 unique_starting_index=140 config_type=initial n_minim_iter=13 stress="0.0005342711430098334 -9.84550848026879e-05 -2.5218574413546003e-05 -9.84550848026879e-05 -0.00031058318282820534 0.00013246396900702876 -2.5218574413546003e-05 0.00013246396900702876 -0.00021151729306678036" pbc="T T T"
Si      -0.01484937       3.67265613      -0.30800026
Si      -0.77439067       1.52137508       3.79833856
Si       0.48169724      -1.51951086       4.93776277
Si      -1.58740966       3.70952507       2.17810964
Si       0.14605346       0.07731482      10.81886367
Si       0.19396821       0.66356935       1.73436204
Si      -0.58619649       0.44122758       8.55177302
Si      -1.88311258       2.64458303      11.30532234
Si      -1.90096755       3.82759670       4.58866657
Si       1.05640102      -2.09220136       8.32993675
Si      -1.22446453       5.96813384      -0.22833040
Si      -0.68277447       3.04530895       8.95120880
Si       2.35677726       1.06313858      -0.92995771
Si      -1.62922741       2.67436529       6.71650102
Si      -0.53432102       0.41799232       6.09572052
Si      -1.53716151      -1.92173948      11.06275439
16
Lattice="2.6553048439946814 -0.2748019697052437 -0.3451605882934858 -1.4036732759286181 7.589818411745968 -2.83348812692012 -2.5636335268751718 -5.646171214515128 17.49183910939654" Properties=species:S:1:pos:R:3 unique_starting_index=140 config_type=initial n_minim_iter=14 stress="-0.0012215363930239058 0.00015946408544412582 0.00021939551989406462 0.00015946408544412582 0.0005053628480652063 0.000274213700684396 0.00021939551989406462 0.000274213700684396 -8.191066940462514e-05" pbc="T T T"
Si      -0.01365396       3.67164618      -0.30941064
Si      -0.77092755       1.51457114       3.80325211
Si       0.47896563      -1.51707463       4.94007546
Si      -1.58390728       3.71370495       2.18107469
Si       0.15118844       0.07510722      10.83345380
Si       0.19419062       0.67023790       1.72722074
Si      -0.56515659       0.44217384       8.56684387
Si      -1.87196348       2.64888849      11.31999838
Si      -1.90651345       3.82791762       4.59145359
Si       1.06878198      -2.09918210       8.35375315
Si      -1.21656827       5.97454086      -0.24227260
Si      -0.67402955       3.03061038       8.98086666
Si       2.34230991       1.06276438      -0.93618214
Si      -1.60786094       2.69180709       6.73669448
Si      -0.52753981       0.42181716       6.11824842
Si      -1.50400319      -1.92625870      11.08779637
16
Lattice="2.662861153212354 -0.2726934202031916 -0.3473791057684138 -1.4027780037299284 7.568878880993672 -2.8430593295974576 -2.5897496633252803 -5.654017909037124 17.50156358923181" Properties=species:S:1:pos:R:3 unique_starting_index=140 config_type=initial n_minim_iter=15 stress="-0.0011981366599511294 9.154170973023674e-05 8.9453139454837e-05 9.154170973023674e-05 -0.00025019494316244525 -0.0001271817008208114 8.9453139454837e-05 -0.0001271817008208114 0.00043372928028433404" pbc="T T T"
Si      -0.00963664       3.68024137      -0.30618612
Si      -0.76306061       1.50826982       3.80332842
Si       0.47628861      -1.51746988       4.93112345
Si      -1.61279609       3.70192521       2.19832537
Si       0.14076973       0.04776971      10.84119440
Si       0.21023378       0.68060928       1.71686634
Si      -0.55530205       0.41521401       8.56787877
Si      -1.87258713       2.62449401      11.30871352
Si      -1.97934454       3.80617963       4.60167390
Si       1.06470083      -2.11060804       8.34864654
Si      -1.20812661       5.95651394      -0.26403721
Si      -0.66165627       3.00298655       8.97138131
Si       2.33493759       1.06546071      -0.94174105
Si      -1.62235000       2.66469920       6.73603768
Si      -0.53784826       0.41152631       6.11783666
Si      -1.51565806      -1.94355864      11.08859781
16
Lattice="2.666362117128996 -0.27512033026529575 -0.3470235394066405 -1.4136011944197908 7.566850748321056 -2.8525512474732158 -2.5853429509445296 -5.666194558641749 17.511800036187363" Properties=species:S:1:pos:R:3 unique_starting_index=140 config_type=initial n_minim_iter=16 stress="-0.0002143667786724291 -6.546076738065419e-05 3.122428715257351e-06 -6.546076738065419e-05 -3.0574035240447756e-05 7.365643274347085e-05 3.122428715257351e-06 7.365643274347085e-05 0.0002513222608176377" pbc="T T T"
Si      -0.00643160       3.68075526      -0.31209305
Si      -0.77495505       1.49989171       3.80976044
Si       0.47150120      -1.52098475       4.93167568
Si      -1.61300298       3.69288344       2.19288914
Si       0.14234333       0.02980314      10.83798808
Si       0.20341120       0.67362216       1.71612559
Si      -0.56193164       0.41051240       8.57094659
Si      -1.89088820       2.61640906      11.30986345
Si      -1.96225363       3.79045112       4.58945799
Si       1.07391904      -2.11574009       8.36029335
Si      -1.22067833       5.94523899      -0.27541129
Si      -0.68001654       2.98403237       8.97680982
Si       2.34131774       1.05529589      -0.94386457
Si      -1.62067435       2.67013296       6.73123399
Si      -0.53908091       0.41796169       6.11526578
Si      -1.50843072      -1.95081144      11.09920722
16
Lattice="2.673358355519558 -0.27102006338724366 -0.3440203713611183 -1.411134089986104 7.558293769920502 -2.863375386778737 -2.5849008628232646 -5.69009862786243 17.49931394273624" Properties=species:S:1:pos:R:3 unique_starting_index=140 config_type=initial n_minim_iter=17 stress="0.0009418345460149134 0.00023530529885057333 -7.77832212937654e-05 0.00023530529885057333 3.589439906771528e-05 -0.0003070643993249905 -7.77832212937654e-05 -0.0003070643993249905 -0.000570141738733448" pbc="T T T"
Si       0.00136432       3.67792529      -0.31424446
Si      -0.76960193       1.48515865       3.80441467
Si       0.47157332      -1.52262207       4.92204331
Si      -1.62201433       3.68483578       2.18837689
Si       0.15364335       0.00875697      10.82742964
Si       0.21166365       0.67572898       1.70764963
Si      -0.54701237       0.38985307       8.56028215
Si      -1.88306936       2.59158297      11.28983315
Si      -1.98221790       3.77662044       4.58277643
Si       1.08385493      -2.12951630       8.35544594
Si      -1.21134342       5.93865230      -0.29417346
Si      -0.66554541       2.95664806       8.96414097
Si       2.34262694       1.05983433      -0.94652136
Si      -1.61544547       2.65598702       6.71959974
Si      -0.53745303       0.40629994       6.10694511
Si      -1.49983186      -1.97170930      11.08785664
16
Lattice="2.669594669866225 -0.27991877323876235 -0.34543401635452825 -1.4311376954961585 7.568108256781334 -2.853881091533437 -2.5687181018606724 -5.6660390172980994 17.499730240593276" Properties=species:S:1:pos:R:3 unique_starting_index=140 config_type=initial n_minim_iter=18 stress="0.0005618331419981933 -0.0003930807554199168 -0.00014940278537960866 -0.0003930807554199168 -0.0003595484586096108 0.00023589088141001972 -0.00014940278537960866 0.00023589088141001972 -0.0003778929810127365" pbc="T T T"
Si      -0.00236964       3.67855630      -0.30589880
Si      -0.77634716       1.48716564       3.81476186
Si       0.46747447      -1.51294390       4.91648863
Si      -1.64306257       3.69924264       2.20266032
Si       0.16016864       0.02099790      10.83447264
Si       0.21390580       0.68151819       1.71078634
Si      -0.54705155       0.39532234       8.56590697
Si      -1.89628569       2.61489259      11.29977263
Si      -1.99752382       3.79436837       4.59563956
Si       1.08972888      -2.12542871       8.35709195
Si      -1.22497402       5.95365614      -0.29498760
Si      -0.67874618       2.97169941       8.97176928
Si       2.33235419       1.05996171      -0.94387054
Si      -1.62331694       2.67790197       6.72169645
Si      -0.54288635       0.42015636       6.09699052
Si      -1.48960336      -1.96294509      11.08937156
16
Lattice="2.666037525394843 -0.276684495344382 -0.3443492802991246 -1.4213874551785706 7.571473028243919 -2.8601802804071177 -2.5650730830537665 -5.680368352324383 17.513252908524876" Properties=species:S:1:pos:R:3 unique_starting_index=140 config_type=initial n_minim_iter=19 stress="0.00010463247491437201 -1.2604115864882006e-05 7.008820776694114e-05 -1.2604115864882006e-05 6.674761134881263e-05 8.264651232762079e-05 7.008820776694114e-05 8.264651232762079e-05 3.349601485549761e-05" pbc="T T T"
Si       0.00374896       3.68080731      -0.30760625
Si      -0.77276141       1.48295719       3.81811159
Si       0.46512243      -1.51555681       4.91943393
Si      -1.63697490       3.70022160       2.20108491
Si       0.16779735       0.01546179      10.84192260
Si       0.21495509       0.68081386       1.71152862
Si      -0.54263088       0.38970412       8.57087582
Si      -1.88781856       2.60817045      11.30769014
Si      -1.98528193       3.79408614       4.59660732
Si       1.08983498      -2.12955406       8.36491170
Si      -1.21606241       5.95614070      -0.29870293
Si      -0.67212505       2.96721699       8.97674585
Si       2.33046794       1.06295743      -0.94474344
Si      -1.61514631       2.67473866       6.72342405
Si      -0.53966619       0.41656178       6.09873903
Si      -1.48447411      -1.97118226      11.09667912
16
Lattice="2.6605010396293434 -0.27323527715176466 -0.34581648798704456 -1.4075873383099775 7.576535831992821 -2.871642499389392 -2.5764232034183228 -5.706054253902439 17.5424387443149" Properties=species:S:1:pos:R:3 unique_starting_index=140 config_type=initial n_minim_iter=20 stress="-0.000882386032012356 0.0003324737724958792 0.00016419055550014595 0.0003324737724958792 0.00025434916841719573 -0.00038719677454696126 0.00016419055550014595 -0.00038719677454696126 0.0003626504442688339" pbc="T T T"
Si       0.01359901       3.68626416      -0.31088894
Si      -0.77032417       1.47489409       3.82440039
Si       0.45347449      -1.52201716       4.92019270
Si      -1.64089897       3.70523372       2.20629433
Si       0.17104374       0.00057840      10.85601264
Si       0.21786368       0.68378328       1.71159577
Si      -0.54168342       0.37364306       8.57926029
Si      -1.88922801       2.59232275      11.32310479
Si      -1.98522636       3.79330661       4.60113652
Si       1.08237612      -2.13974746       8.37750160
Si      -1.20281502       5.95946476      -0.30862188
Si      -0.67233388       2.95391564       8.98424234
Si       2.32429580       1.06923628      -0.94842771
Si      -1.61327245       2.66524432       6.72934999
Si      -0.54379080       0.40821381       6.10356080
Si      -1.48577670      -1.98958920      11.11158914
16
Lattice="2.6634805584703907 -0.276048876084464 -0.3505167862830822 -1.4108671746703882 7.572834075154924 -2.8576323468471547 -2.601287793437153 -5.675144643806484 17.541214838602993" Properties=species:S:1:pos:R:3 unique_starting_index=140 config_type=initial n_minim_iter=21 stress="0.00015582937502661836 -5.171379194308061e-05 -9.862733267218601e-05 -5.171379194308061e-05 4.7998594169930925e-05 0.00010206158724730457 -9.862733267218601e-05 0.00010206158724730457 -0.00013833438421306487" pbc="T T T"
Si       0.01779884       3.68708425      -0.30772419
Si      -0.77832522       1.48092411       3.82804105
Si       0.43785590      -1.51755354       4.91000522
Si      -1.66301637       3.72041786       2.22489006
Si       0.16869786       0.01559789      10.85555700
Si       0.21666962       0.69323731       1.71676958
Si      -0.55266902       0.38409688       8.57762832
Si      -1.91771701       2.60803609      11.33714157
Si      -1.99401981       3.80461719       4.60830823
Si       1.07483776      -2.12504288       8.37645141
Si      -1.20677898       5.95821929      -0.30018436
Si      -0.69558929       2.96391948       8.99017355
Si       2.32601193       1.07166004      -0.94547227
Si      -1.62885549       2.67520143       6.73871977
Si      -0.55738481       0.41773249       6.10914587
Si      -1.49661439      -1.97438305      11.11329830
