16
Lattice="6.985808097328232 3.1632319639780064 1.6461544451428147 3.5727854483791677 7.6982169296309975 -0.7369533568180571 -2.6390610288508416 -3.779700075255658 7.162000913753243" Properties=species:S:1:pos:R:3 unique_starting_index=152 config_type=initial n_minim_iter=1 energy=-2604.86199236385 free_energy=-2604.86199236385 pbc="T T T"
Si       3.67441638       4.04329177       5.52129850
Si       3.66193845       0.43536467       7.22989255
Si       6.21609708       7.74625719       1.57010918
Si       5.95578973       1.69967057       3.19409986
Si      -0.44849422      -1.14090209       3.90217479
Si       3.98344133       4.33378723       3.19163118
Si       7.87113397       4.84994662       4.08606468
Si       2.60378877       1.90305812       5.68390599
Si       7.51298055       8.54401351       3.32126003
Si      -1.20549906      -1.66796795       6.25349394
Si       4.79714815       2.94108161       1.38527201
Si       6.22767964       5.44107066       2.35205849
Si       2.82504620       3.95890589      -0.05812482
Si       1.58588749       3.83403210       3.11595722
Si       5.27254328       4.58547700       7.15016896
Si       0.49624993       0.91268156       4.71043937
