6
Lattice="3.669875982368858 1.7381516076292292e-32 6.610067999625224e-32 -2.487137966640012e-32 4.996921657445147 -1.3823460925968869e-15 -4.58604212216256e-32 2.8038453036373383e-15 5.633713302061466" Properties=species:S:1:pos:R:3 unique_starting_index=136 config_type=initial n_minim_iter=12 energy=-975.741757397703 free_energy=-975.741757397703 pbc="T T T"
Si       1.83493799       0.00000000       5.17172228
Si      -0.00000000       2.49846083       0.90918326
Si       1.83493799       0.00000000       1.90767339
Si      -0.00000000       2.49846083       3.27884767
Si       1.83493799       2.49846083      -0.69797894
Si      -0.00000000       0.00000000       3.51483560
