18
Lattice="6.700548876728949 1.470193100705266 0.35438837221434244 -1.9551873008226885 6.575413722458576 -0.3543883722143389 -2.8033901430104464 -3.7687676789398714 7.088233248212438" Properties=species:S:1:pos:R:3 unique_starting_index=64 config_type=initial n_minim_iter=14 energy=-2931.938473481048 free_energy=-2931.938473481048 pbc="T T T"
Si       0.87439671       3.35534716       4.87713311
Si       2.23852670       0.23085539       1.51021067
Si      -1.15465769      -0.47777923       2.06429881
Si       1.80807107       0.09239093       5.78560962
Si       3.62668686      -1.04210554       4.91757007
Si       5.46345994       6.52512419       1.19625926
Si      -2.22614545       2.66816347       3.30063084
Si       1.33982648       3.27682338      -0.06629160
Si      -0.59509115       2.82264108       1.41655467
Si      -0.80962236      -1.99413011       5.13786548
Si      -1.81105555       1.30760446       5.35220215
Si       2.73137266       3.57181437       1.98527971
Si       2.03508069       5.83705684       2.31364105
Si      -4.13040272       0.82100943       5.68056349
Si       4.59319412       2.66702842       0.83356842
Si      -0.11843108       0.11595051       4.20049086
Si      -1.22911057       3.48175537       6.21311485
Si       1.11018134       2.01061904       2.84619241
