10
Lattice="5.307443193401131 0.0 0.0 0.0 6.288520368506041 0.0 0.0 0.0 9.709944266666703" Properties=species:S:1:pos:R:3 unique_starting_index=142 config_type=initial n_minim_iter=1 energy=-1624.5997516426778 free_energy=-1624.5997516426778 pbc="T T T"
Si       1.48811072       1.17367039       3.90119181
Si       3.81933248       5.11484998       3.90119181
Si       3.81933248       1.17367039       3.90119181
Si       1.48811072       5.11484998       3.90119181
Si       4.05765138       1.92324775       1.60412472
Si       1.24979182       4.36527262       1.60412472
Si       1.24979182       1.92324775       1.60412472
Si       4.05765138       4.36527262       1.60412472
Si       0.00000000       4.35175241       5.60799383
Si       0.00000000       1.93676796       5.60799383
10
Lattice="5.311426151009122 0.0 0.0 0.0 6.245732229088565 0.0 0.0 0.0 9.501440959536438" Properties=species:S:1:pos:R:3 unique_starting_index=142 config_type=initial n_minim_iter=2 stress="-0.003318625150823002 -4.6281035525492365e-18 -2.9355818633595856e-17 -4.6281035525492365e-18 -0.0026807451472600397 -1.5542145332838018e-17 -2.9355818633595856e-17 -1.5542145332838018e-17 -0.0015713405311533733" pbc="T T T"
Si       1.48540386       1.16996654       3.81707858
Si       3.82602229       5.07576569       3.81707858
Si       3.82602229       1.16996654       3.81707858
Si       1.48540386       5.07576569       3.81707858
Si       4.05785362       1.90993484       1.57111308
Si       1.25357253       4.33579739       1.57111308
Si       1.25357253       1.90993484       1.57111308
Si       4.05785362       4.33579739       1.57111308
Si       0.00000000       4.32389498       5.48538892
Si       0.00000000       1.92183725       5.48538892
10
Lattice="5.364046274926055 0.0 0.0 0.0 6.277405599147702 0.0 0.0 0.0 9.463945280744433" Properties=species:S:1:pos:R:3 unique_starting_index=142 config_type=initial n_minim_iter=3 stress="0.004261379747088451 3.532513663542208e-18 -6.987833151131897e-17 3.532513663542208e-18 0.003210485657382321 -1.968401787787501e-17 -6.987833151131897e-17 -1.968401787787501e-17 -0.0023906107259457185" pbc="T T T"
Si       1.49506916       1.18346877       3.80257424
Si       3.86897712       5.09393682       3.80257424
Si       3.86897712       1.18346877       3.80257424
Si       1.49506916       5.09393682       3.80257424
Si       4.09313463       1.91903920       1.56476468
Si       1.27091164       4.35836640       1.56476468
Si       1.27091164       1.91903920       1.56476468
Si       4.09313463       4.35836640       1.56476468
Si       0.00000000       4.34824979       5.46292034
Si       0.00000000       1.92915581       5.46292034
10
Lattice="5.268405185373123 0.0 0.0 0.0 6.133937747353164 0.0 0.0 0.0 9.640940817551426" Properties=species:S:1:pos:R:3 unique_starting_index=142 config_type=initial n_minim_iter=4 stress="-0.0018945548549460618 -2.3661833121145368e-17 -6.73428429186408e-17 -2.3661833121145368e-17 -0.0026611813376766057 -6.747751677266661e-17 -6.73428429186408e-17 -6.747751677266661e-17 -0.0024797427955318037" pbc="T T T"
Si       1.44128740       1.20576924       3.88023987
Si       3.82711779       4.92816851       3.88023987
Si       3.82711779       1.20576924       3.88023987
Si       1.44128740       4.92816851       3.88023987
Si       3.98665289       1.87416502       1.58869111
Si       1.28175229       4.25977272       1.58869111
Si       1.28175229       1.87416502       1.58869111
Si       3.98665289       4.25977272       1.58869111
Si       0.00000000       4.26102171       5.56266513
Si       0.00000000       1.87291604       5.56266513
10
Lattice="5.261648424879876 0.0 0.0 0.0 6.161593998942592 0.0 0.0 0.0 9.759834232123001" Properties=species:S:1:pos:R:3 unique_starting_index=142 config_type=initial n_minim_iter=5 stress="0.00040474930029819195 -1.3427601400356358e-17 -1.2522584355481084e-16 -1.3427601400356358e-17 0.006227306819854902 -4.470371518037449e-17 -1.2522584355481084e-16 -4.470371518037449e-17 0.00393139005272055" pbc="T T T"
Si       1.44467669       1.22010709       3.92040237
Si       3.81697173       4.94148691       3.92040237
Si       3.81697173       1.22010709       3.92040237
Si       1.44467669       4.94148691       3.92040237
Si       3.96787338       1.87007149       1.61024354
Si       1.29377504       4.29152251       1.61024354
Si       1.29377504       1.87007149       1.61024354
Si       3.96787338       4.29152251       1.61024354
Si       0.00000000       4.28780947       5.64272204
Si       0.00000000       1.87378453       5.64272204
10
Lattice="5.293268851972256 0.0 0.0 0.0 6.070382540091746 0.0 0.0 0.0 9.813657847880588" Properties=species:S:1:pos:R:3 unique_starting_index=142 config_type=initial n_minim_iter=6 stress="0.004842458205611282 2.382159236780303e-17 -6.618453852557343e-17 2.382159236780303e-17 0.00044358554224219546 -8.559904574338297e-18 -6.618453852557343e-17 -8.559904574338297e-18 0.0053597390670365305" pbc="T T T"
Si       1.45518282       1.21262982       3.93539430
Si       3.83808603       4.85775272       3.93539430
Si       3.83808603       1.21262982       3.93539430
Si       1.45518282       4.85775272       3.93539430
Si       3.97710605       1.83130500       1.62099615
Si       1.31616280       4.23907754       1.62099615
Si       1.31616280       1.83130500       1.62099615
Si       3.97710605       4.23907754       1.62099615
Si       0.00000000       4.23276474       5.68335241
Si       0.00000000       1.83761780       5.68335241
10
Lattice="5.254536749210692 0.0 0.0 0.0 6.014041566544472 0.0 0.0 0.0 9.781580085573943" Properties=species:S:1:pos:R:3 unique_starting_index=142 config_type=initial n_minim_iter=7 stress="-0.0015524868194931878 -5.166498838869147e-18 -2.5654015627813916e-17 -5.166498838869147e-18 -0.0004029094084567652 -3.1158019090100705e-17 -2.5654015627813916e-17 -3.1158019090100705e-17 -0.001188321170723297" pbc="T T T"
Si       1.44626484       1.21925357       3.91333394
Si       3.80827191       4.79478799       3.91333394
Si       3.80827191       1.21925357       3.91333394
Si       1.44626484       4.79478799       3.91333394
Si       3.92625024       1.79591573       1.61885910
Si       1.32828651       4.21812584       1.61885910
Si       1.32828651       1.79591573       1.61885910
Si       3.92625024       4.21812584       1.61885910
Si       0.00000000       4.21036972       5.67684594
Si       0.00000000       1.80367185       5.67684594
10
Lattice="5.282951964801987 0.0 0.0 0.0 6.025223278239274 0.0 0.0 0.0 9.772534106690314" Properties=species:S:1:pos:R:3 unique_starting_index=142 config_type=initial n_minim_iter=8 stress="0.002121508497306959 2.938979983760334e-17 4.816829946005127e-18 2.938979983760334e-17 0.0007070550740656071 -1.651803218531657e-17 4.816829946005127e-18 -1.651803218531657e-17 0.00014155181643398605" pbc="T T T"
Si       1.45606576       1.21174783       3.91327333
Si       3.82688621       4.81347545       3.91327333
Si       3.82688621       1.21174783       3.91327333
Si       1.45606576       4.81347545       3.91327333
Si       3.95991071       1.79872062       1.61607053
Si       1.32304125       4.22650265       1.61607053
Si       1.32304125       1.79872062       1.61607053
Si       3.95991071       4.22650265       1.61607053
Si       0.00000000       4.22398031       5.66706204
Si       0.00000000       1.80124297       5.66706204
10
Lattice="5.258151604954363 0.0 0.0 0.0 5.9354766379245625 0.0 0.0 0.0 9.878422584774984" Properties=species:S:1:pos:R:3 unique_starting_index=142 config_type=initial n_minim_iter=9 stress="0.00019253650905781949 1.716169632462127e-18 3.3616030602919414e-18 1.716169632462127e-18 -0.0004162096379368824 2.025612891231466e-18 3.3616030602919414e-18 2.025612891231466e-18 0.0019148519552638652" pbc="T T T"
Si       1.44656549       1.20871846       3.95643074
Si       3.81158611       4.72675817       3.95643074
Si       3.81158611       1.20871846       3.95643074
Si       1.44656549       4.72675817       3.95643074
Si       3.93544118       1.74875007       1.63130902
Si       1.32271042       4.18672657       1.63130902
Si       1.32271042       1.74875007       1.63130902
Si       3.93544118       4.18672657       1.63130902
Si       0.00000000       4.19757123       5.73149900
Si       0.00000000       1.73790541       5.73149900
10
Lattice="5.259059867422054 0.0 0.0 0.0 5.926588525805853 0.0 0.0 0.0 9.855118371060486" Properties=species:S:1:pos:R:3 unique_starting_index=142 config_type=initial n_minim_iter=10 stress="-0.0001539088754970794 1.0689688333620266e-17 8.288610239665377e-17 1.0689688333620266e-17 -8.973027860710148e-05 3.711530852296141e-17 8.288610239665377e-17 3.711530852296141e-17 -7.84548896410096e-05" pbc="T T T"
Si       1.44729980       1.20946880       3.94621077
Si       3.81176007       4.71711972       3.94621077
Si       3.81176007       1.20946880       3.94621077
Si       1.44729980       4.71711972       3.94621077
Si       3.93772608       1.74133950       1.62775865
Si       1.32133378       4.18524902       1.62775865
Si       1.32133378       1.74133950       1.62775865
Si       3.93772608       4.18524902       1.62775865
Si       0.00000000       4.19714542       5.71915439
Si       0.00000000       1.72944311       5.71915439
10
Lattice="5.257738200240486 0.0 0.0 0.0 5.882049150618265 0.0 0.0 0.0 9.854411069526444" Properties=species:S:1:pos:R:3 unique_starting_index=142 config_type=initial n_minim_iter=11 stress="-0.00033485875183168957 3.187232075793531e-17 -7.154249183638925e-18 3.187232075793531e-17 0.0006653301874237573 3.654323600911936e-17 -7.154249183638925e-18 3.654323600911936e-17 -0.002528488466231195" pbc="T T T"
Si       1.44697766       1.21496796       3.94268503
Si       3.81076054       4.66708119       3.94268503
Si       3.81076054       1.21496796       3.94268503
Si       1.44697766       4.66708119       3.94268503
Si       3.94472967       1.71194625       1.62808479
Si       1.31300853       4.17010290       1.62808479
Si       1.31300853       1.71194625       1.62808479
Si       3.94472967       4.17010290       1.62808479
Si       0.00000000       4.18360975       5.72434304
Si       0.00000000       1.69843940       5.72434304
10
Lattice="5.251060411261829 0.0 0.0 0.0 5.8455683877156055 0.0 0.0 0.0 9.92163828161165" Properties=species:S:1:pos:R:3 unique_starting_index=142 config_type=initial n_minim_iter=12 stress="7.212018426495575e-05 -1.8979848953731185e-17 7.061755814818727e-17 -1.8979848953731185e-17 3.717993718703982e-05 3.785588840252387e-17 7.061755814818727e-17 3.785588840252387e-17 0.00030559210766075275" pbc="T T T"
Si       1.44395285       1.21909071       3.96797542
Si       3.80710756       4.62647767       3.96797542
Si       3.80710756       1.21909071       3.96797542
Si       1.44395285       4.62647767       3.96797542
Si       3.94733811       1.69398769       1.63884440
Si       1.30372230       4.15158070       1.63884440
Si       1.30372230       1.69398769       1.63884440
Si       3.94733811       4.15158070       1.63884440
Si       0.00000000       4.16392625       5.76730280
Si       0.00000000       1.68164214       5.76730280
10
Lattice="5.251386999688297 0.0 0.0 0.0 5.850099152915666 0.0 0.0 0.0 9.914334789557163" Properties=species:S:1:pos:R:3 unique_starting_index=142 config_type=initial n_minim_iter=13 stress="3.6223895673384276e-06 -2.2309109894970088e-17 8.586096148969183e-17 -2.2309109894970088e-17 -9.934566621904275e-06 7.472454151413158e-18 8.586096148969183e-17 7.472454151413158e-18 2.9508892965193863e-05" pbc="T T T"
Si       1.44417497       1.21970916       3.96482484
Si       3.80721203       4.63039000       3.96482484
Si       3.80721203       1.21970916       3.96482484
Si       1.44417497       4.63039000       3.96482484
Si       3.94838633       1.69676780       1.63781802
Si       1.30300067       4.15333135       1.63781802
Si       1.30300067       1.69676780       1.63781802
Si       3.94838633       4.15333135       1.63781802
Si       0.00000000       4.16452545       5.76315676
Si       0.00000000       1.68557371       5.76315676
