8
Lattice="4.609449612586528 7.398725156420665e-17 1.8423147546232341e-16 4.8051763040022716e-17 2.527980908248666 0.8201295813100402 -1.1605230526464339e-17 1.9973753447764582 11.06767302124582" Properties=species:S:1:pos:R:3 unique_starting_index=34 config_type=initial n_minim_iter=18 energy=-1302.6917013391283 free_energy=-1302.6917013391283 pbc="T T T"
Si       1.15146058       1.87421046       7.12032271
Si       1.15146058       2.65114579       4.76747989
Si       1.15410469       3.64166346      10.29879368
Si       1.15410469       0.88369280       1.58900892
Si       3.45798903       2.38584301       9.89125161
Si       3.45798903       2.13951325       1.99655099
Si       3.45534492       3.14637092       7.53291022
Si       3.45534492       1.37898533       4.35489238
