20
Lattice="10.995927626445024 -2.267689711520449 8.75212842187646 -4.649423389076226 7.623947987776554 -2.6704811558538912 3.4643346461142404 -2.819055972201918 8.180931926602007" Properties=species:S:1:pos:R:3 unique_starting_index=76 config_type=initial n_minim_iter=1 energy=-3259.101279503393 free_energy=-3259.101279503393 pbc="T T T"
Si      10.44037532      -1.44845826      12.35551790
Si       2.20578812      -0.87758494       7.77717471
Si       5.96926427      -0.67674222       4.91422661
Si       1.33772590       1.22104241       2.27565930
Si       7.87497765       2.32373037       6.47083733
Si       9.44351010       0.72372367      11.78095364
Si       0.11202825       3.70960092       4.53537014
Si       1.75624004      -0.24551285       5.52133043
Si       7.88573784      -1.80224690       8.44802392
Si       4.31076337      -1.80046045       8.16632932
Si       6.13962939      -0.65346113       7.26244973
Si       3.81665190       3.91137441       4.44323466
Si       3.90379832       2.13748243       5.98204282
Si       2.01095678       2.56124107       7.41643248
Si      -0.81924556       3.86563238       0.94170267
Si       1.94627526       3.41333171       3.05064477
Si       3.84413189       0.25301144       4.54003502
Si       5.79766226       1.67609599       7.36623457
Si       4.83444503       1.99459283       9.46495448
Si       2.17875263       4.88879978       7.76781578
20
Lattice="11.000196394901252 -2.2686454371601283 8.752227994972378 -4.6516206198891386 7.627947846810101 -2.66981487134029 3.4659122293081617 -2.8198944188614803 8.180823262721416" Properties=species:S:1:pos:R:3 unique_starting_index=76 config_type=initial n_minim_iter=2 stress="0.0003824367473170382 -3.6285693887098796e-05 -6.2867676577646475e-06 -3.6285693887098796e-05 0.0004673976155728049 7.153051508237191e-05 -6.2867676577646475e-06 7.153051508237191e-05 0.0002725767342445765" pbc="T T T"
Si      10.44431682      -1.44846628      12.35571679
Si       2.20702481      -0.87742077       7.77721216
Si       5.97138325      -0.67679753       4.91434118
Si       1.33823644       1.22176218       2.27621749
Si       7.87757130       2.32512002       6.47111802
Si       9.44703637       0.72467175      11.78127826
Si       0.11167180       3.71209082       4.53580060
Si       1.75665138      -0.24534068       5.52148278
Si       7.88885081      -1.80267658       8.44805432
Si       4.31302631      -1.80101884       8.16642797
Si       6.14208018      -0.65350865       7.26253424
Si       3.81791694       3.91365902       4.44393166
Si       3.90518391       2.13885667       5.98267114
Si       2.01155686       2.56310979       7.41662029
Si      -0.81962069       3.86782965       0.94208249
Si       1.94687772       3.41538193       3.05091986
Si       3.84569572       0.25332151       4.54023084
Si       5.79987388       1.67734096       7.36639042
Si       4.83619130       1.99645068       9.46561232
Si       2.17948896       4.89232786       7.76845388
20
Lattice="11.000342074220606 -2.2693710490402785 8.73985738898954 -4.652542753453772 7.6306450285869785 -2.664892388336998 3.4671006256052834 -2.819763253382169 8.168092309207598" Properties=species:S:1:pos:R:3 unique_starting_index=76 config_type=initial n_minim_iter=3 stress="-0.000245756249347399 -9.149439118195669e-05 4.903917735361814e-05 -9.149439118195669e-05 0.0003463485427062664 0.00038222781519023786 4.903917735361814e-05 0.00038222781519023786 -0.0012920666487742467" pbc="T T T"
Si      10.44382736      -1.44724262      12.33762275
Si       2.21000615      -0.87694494       7.76515669
Si       5.97006277      -0.67576446       4.90742429
Si       1.33874537       1.22185777       2.27605944
Si       7.87537496       2.32581712       6.46108336
Si       9.44696299       0.72515658      11.76381604
Si       0.10979938       3.71481130       4.52929216
Si       1.75462609      -0.24581409       5.51362631
Si       7.88933182      -1.80188915       8.43528308
Si       4.31737982      -1.80224113       8.15467468
Si       6.14288195      -0.65383020       7.25154996
Si       3.81782273       3.91529277       4.43958170
Si       3.90519015       2.13911024       5.97623174
Si       2.01117946       2.56420858       7.40413946
Si      -0.81880712       3.86956914       0.94101094
Si       1.94694633       3.41728061       3.04594259
Si       3.84664252       0.25330734       4.53413374
Si       5.80058476       1.67801978       7.35433129
Si       4.83622335       1.99925416       9.45373828
Si       2.18036356       4.89734370       7.75744924
20
Lattice="11.001938945625389 -2.2722002391898015 8.749197830789091 -4.652801965013734 7.627478002484878 -2.671550101954215 3.46768402855382 -2.822395107374369 8.176951637166441" Properties=species:S:1:pos:R:3 unique_starting_index=76 config_type=initial n_minim_iter=4 stress="8.385008702073398e-06 3.2112960790760374e-05 3.510644325228793e-05 3.2112960790760374e-05 -3.99183662526723e-05 -9.154549219455007e-05 3.510644325228793e-05 -9.154549219455007e-05 -0.0002524261872715375" pbc="T T T"
Si      10.44451617      -1.45177365      12.34951021
Si       2.21230398      -0.88094676       7.77255248
Si       5.96986363      -0.67671626       4.91217871
Si       1.33958111       1.21959872       2.27994484
Si       7.87532339       2.32132565       6.46440941
Si       9.44822609       0.71836932      11.77353302
Si       0.10854981       3.71077365       4.53108644
Si       1.75279276      -0.24956460       5.51900807
Si       7.89065358      -1.80417636       8.44353726
Si       4.32092532      -1.80670253       8.16352185
Si       6.14432962      -0.65744704       7.25816232
Si       3.81898880       3.91091930       4.44253156
Si       3.90601291       2.13399381       5.98195942
Si       2.01110959       2.55823483       7.40793002
Si      -0.81767076       3.86694314       0.93945478
Si       1.94785355       3.41412873       3.04595316
Si       3.84793177       0.25062495       4.53850240
Si       5.80218567       1.67297547       7.35871338
Si       4.83695063       1.99422703       9.46250823
Si       2.18179492       4.89219018       7.76150195
20
Lattice="10.995074322794473 -2.2688591574277446 8.752801805643996 -4.651354131256378 7.625776231214354 -2.6683525871525133 3.464944424773331 -2.81788097854362 8.181138613452378" Properties=species:S:1:pos:R:3 unique_starting_index=76 config_type=initial n_minim_iter=5 stress="-0.00037753909166850355 -4.544076330530626e-05 -6.12611943689257e-05 -4.544076330530626e-05 5.78475633249597e-05 0.00030458188001233 -6.12611943689257e-05 0.00030458188001233 0.00034795378469323657" pbc="T T T"
Si      10.43670304      -1.44620470      12.35648586
Si       2.21087253      -0.87706968       7.77788975
Si       5.96590105      -0.67463505       4.91449377
Si       1.33837202       1.22050585       2.28266549
Si       7.86938050       2.32339824       6.46889709
Si       9.44079999       0.72331821      11.78127889
Si       0.10686172       3.71270808       4.53645919
Si       1.75057181      -0.24700985       5.52278173
Si       7.88568881      -1.80005607       8.44763345
Si       4.31783545      -1.80249592       8.16865503
Si       6.14030022      -0.65419702       7.26231064
Si       3.81541291       3.91199464       4.44793753
Si       3.90252314       2.13638908       5.98727479
Si       2.00794324       2.56206093       7.41481896
Si      -0.81795784       3.86729542       0.94241503
Si       1.94571015       3.41517623       3.05033404
Si       3.84453056       0.25246234       4.54178165
Si       5.79717312       1.67582995       7.36496980
Si       4.83251957       1.99884843       9.46984669
Si       2.17856617       4.89559725       7.77010797
20
Lattice="11.003165523638746 -2.2716373020607175 8.752966733150807 -4.656115651931248 7.623489319649757 -2.669731560694279 3.4673884541504494 -2.8188637202547953 8.182065097792247" Properties=species:S:1:pos:R:3 unique_starting_index=76 config_type=initial n_minim_iter=6 stress="0.00048567538257709297 -0.00010494017954642469 -0.00013772380378019846 -0.00010494017954642469 -0.0002072107924216922 6.090438835348855e-05 -0.00013772380378019846 6.090438835348855e-05 0.0004992311799012718" pbc="T T T"
Si      10.44280238      -1.44977347      12.35668008
Si       2.21446331      -0.87953391       7.77876375
Si       5.97009034      -0.67601507       4.91436225
Si       1.33920771       1.21922746       2.28328361
Si       7.87400675       2.31967928       6.46683738
Si       9.44616797       0.71869175      11.78046367
Si       0.10575527       3.70937562       4.53497755
Si       1.75069314      -0.24929726       5.52279202
Si       7.89225783      -1.80147161       8.44770105
Si       4.32121742      -1.80410704       8.17079365
Si       6.14543083      -0.65621735       7.26208890
Si       3.81702641       3.90780920       4.44784486
Si       3.90456945       2.13312266       5.98684232
Si       2.00757675       2.55956597       7.41453710
Si      -0.81908525       3.86568157       0.94119445
Si       1.94642812       3.41271825       3.05074354
Si       3.84535957       0.25062538       4.54229804
Si       5.79956908       1.67206544       7.36638617
Si       4.83564408       1.99569397       9.46823543
Si       2.17930962       4.89068137       7.76960864
20
Lattice="11.000641635128183 -2.275211860224874 8.757348066034286 -4.653407558558044 7.628222743605045 -2.675017354715696 3.4679065637277726 -2.823940260971115 8.184346549305305" Properties=species:S:1:pos:R:3 unique_starting_index=76 config_type=initial n_minim_iter=7 stress="0.00012550358950807244 9.9370486033379e-06 0.0001533801696831402 9.9370486033379e-06 0.0002520562601916952 -0.00028619031904078237 0.0001533801696831402 -0.00028619031904078237 0.0005699516010267726" pbc="T T T"
Si      10.44072739      -1.45441355      12.36012080
Si       2.21828603      -0.88433423       7.77983979
Si       5.96845804      -0.67712099       4.91634066
Si       1.33992601       1.21887657       2.28430413
Si       7.87229586       2.31930118       6.46657171
Si       9.44512428       0.71483593      11.78192330
Si       0.10745058       3.70891815       4.53197646
Si       1.75045915      -0.25296234       5.52314321
Si       7.89195191      -1.80427877       8.45055991
Si       4.32270093      -1.80877166       8.17422639
Si       6.14578680      -0.65895309       7.26376392
Si       3.81747918       3.90804078       4.44773433
Si       3.90508965       2.13160011       5.98716532
Si       2.00876900       2.55796446       7.41310453
Si      -0.81717821       3.86751796       0.93837923
Si       1.94736467       3.41381754       3.05019290
Si       3.84387946       0.24900542       4.54379626
Si       5.79900207       1.67010160       7.36813596
Si       4.83736341       1.99372256       9.46761755
Si       2.18247477       4.88997945       7.76761570
20
Lattice="10.997798921181705 -2.2697641113595455 8.74687741128222 -4.65060325900481 7.6252055280466555 -2.669871859227575 3.4638206747109863 -2.820882039997782 8.177605092125678" Properties=species:S:1:pos:R:3 unique_starting_index=76 config_type=initial n_minim_iter=8 stress="0.00019074108371971104 0.0003270595983557682 -0.000295467748732694 0.0003270595983557682 5.239548963072908e-05 -0.00010879971342490682 -0.000295467748732694 -0.00010879971342490682 -3.0094343750626122e-05" pbc="T T T"
Si      10.43388205      -1.44741673      12.34748479
Si       2.21987036      -0.88333702       7.77432298
Si       5.96559942      -0.67267345       4.91040702
Si       1.34038488       1.21916392       2.28613765
Si       7.86929261       2.32262083       6.45675445
Si       9.44001979       0.71956936      11.76918108
Si       0.10483358       3.70929297       4.52836648
Si       1.74486467      -0.25382632       5.51931288
Si       7.89052094      -1.79789733       8.44115571
Si       4.32289248      -1.80701198       8.16996187
Si       6.14503746      -0.65555009       7.25591929
Si       3.81733282       3.90886803       4.44624177
Si       3.90346010       2.13255966       5.98383036
Si       2.00467742       2.55984076       7.40689936
Si      -0.81534114       3.86760093       0.93777835
Si       1.94776139       3.41558665       3.04860041
Si       3.84056211       0.25041485       4.54058973
Si       5.79650873       1.67242497       7.36219343
Si       4.83497228       1.99850318       9.46039389
Si       2.18231549       4.89256906       7.76319555
20
Lattice="11.00290790037298 -2.2735927237671 8.749545127922636 -4.655858146680308 7.6253036925844375 -2.670107466481905 3.468571720076545 -2.820724335438773 8.177425954962429" Properties=species:S:1:pos:R:3 unique_starting_index=76 config_type=initial n_minim_iter=9 stress="0.00014722411627346552 1.3305707407653584e-05 5.853052012741306e-05 1.3305707407653584e-05 -0.00013242323549795577 6.8639301724330755e-06 5.853052012741306e-05 6.8639301724330755e-06 -0.00020890051020448723" pbc="T T T"
Si      10.43884510      -1.45014328      12.34928128
Si       2.22547168      -0.88356646       7.77396915
Si       5.96751771      -0.67422389       4.91178645
Si       1.34105820       1.21837357       2.28806985
Si       7.86998516       2.31879833       6.45807932
Si       9.44392360       0.71616930      11.77042193
Si       0.10389023       3.70906682       4.52764009
Si       1.74579135      -0.25498392       5.51931673
Si       7.89594760      -1.79944216       8.44257863
Si       4.32900433      -1.80823087       8.17135553
Si       6.14915420      -0.65750816       7.25692098
Si       3.81720777       3.90633285       4.44859679
Si       3.90466367       2.13043241       5.98546830
Si       2.00547125       2.55934213       7.40637767
Si      -0.81657346       3.86750429       0.93739424
Si       1.94736446       3.41467637       3.04956233
Si       3.84141918       0.24871352       4.54198516
Si       5.79866628       1.66984900       7.36379488
Si       4.83795309       1.99762496       9.46150405
Si       2.18351742       4.89182720       7.76374301
20
Lattice="10.997429789041888 -2.278431042046925 8.747850990901043 -4.655957258571819 7.628323124085305 -2.669988170476009 3.466060350881879 -2.823174938831523 8.177752673811108" Properties=species:S:1:pos:R:3 unique_starting_index=76 config_type=initial n_minim_iter=10 stress="-0.00010381145972385673 -0.00017429930218852867 -8.854852782450728e-05 -0.00017429930218852867 2.103915408428914e-05 -3.905625887540724e-05 -8.854852782450728e-05 -3.905625887540724e-05 -0.00012745724658559264" pbc="T T T"
Si      10.43208884      -1.45499028      12.34771734
Si       2.22335405      -0.88511271       7.77412000
Si       5.96408127      -0.67676489       4.91079911
Si       1.33973555       1.21797776       2.28795937
Si       7.86457752       2.31563016       6.45658478
Si       9.43688775       0.71228190      11.76867204
Si       0.10144702       3.70928664       4.52739135
Si       1.74361342      -0.25673490       5.51969042
Si       7.89222504      -1.80310469       8.44183450
Si       4.32650320      -1.81101658       8.17165796
Si       6.14548849      -0.66032886       7.25629370
Si       3.81333946       3.90537454       4.44782371
Si       3.90077071       2.12885714       5.98489720
Si       2.00169763       2.55837326       7.40639328
Si      -0.81793713       3.86847714       0.93691934
Si       1.94468009       3.41468169       3.04911064
Si       3.83797919       0.24671291       4.54163988
Si       5.79435533       1.66757400       7.36287189
Si       4.83313444       1.99535125       9.46153369
Si       2.17929642       4.89087514       7.76358954
20
Lattice="10.992651217215412 -2.271875686940159 8.753015899793327 -4.651300860781319 7.626026820544593 -2.6697603651914874 3.4645545915231333 -2.8196085555635255 8.181393383041264" Properties=species:S:1:pos:R:3 unique_starting_index=76 config_type=initial n_minim_iter=11 stress="-0.00040819456870731113 -2.1159137375386046e-05 0.0001275282935989031 -2.1159137375386046e-05 0.00016449793413904893 0.00019407762354675984 0.0001275282935989031 0.00019407762354675984 0.000244082957919792" pbc="T T T"
Si      10.42775286      -1.44745280      12.35349326
Si       2.22449309      -0.88140315       7.77699428
Si       5.96096802      -0.67326915       4.91380266
Si       1.34042030       1.21950344       2.28961437
Si       7.86232917       2.31931080       6.46210832
Si       9.43323754       0.72030232      11.77416659
Si       0.10379849       3.71114129       4.52963805
Si       1.74321521      -0.25629497       5.52310497
Si       7.89155748      -1.79780299       8.44741290
Si       4.32667418      -1.80772080       8.17654304
Si       6.14415459      -0.65574449       7.26102567
Si       3.81345200       3.90864178       4.45207131
Si       3.89969482       2.13221479       5.98874737
Si       2.00211848       2.56155147       7.41113779
Si      -0.81681371       3.86918366       0.93706674
Si       1.94503083       3.41775419       3.05219346
Si       3.83415711       0.24828359       4.54504602
Si       5.79409394       1.67232606       7.36782569
Si       4.83332057       1.99960611       9.46880281
Si       2.18175580       4.89313547       7.76922094
20
Lattice="10.993646749394594 -2.275552378124762 8.747274601529234 -4.652527906415703 7.625942529033965 -2.6702203865645555 3.463202821427281 -2.8224421894279654 8.178569229825545" Properties=species:S:1:pos:R:3 unique_starting_index=76 config_type=initial n_minim_iter=12 stress="2.006603380612054e-05 -4.156436364507562e-05 -8.303749606390496e-05 -4.156436364507562e-05 9.326044544052342e-06 -5.842210448021456e-05 -8.303749606390496e-05 -5.842210448021456e-05 -4.4168981433242206e-05" pbc="T T T"
Si      10.42569112      -1.45203935      12.34483833
Si       2.22615387      -0.88425458       7.77325606
Si       5.96007569      -0.67482211       4.91052595
Si       1.34092661       1.21865744       2.28924857
Si       7.86199239       2.31489520       6.45561765
Si       9.43099114       0.71611422      11.76446884
Si       0.10162063       3.70866710       4.52516495
Si       1.74029871      -0.26130281       5.52127008
Si       7.89459928      -1.80048867       8.44348065
Si       4.32840189      -1.81175187       8.17458396
Si       6.14550530      -0.65865021       7.25704336
Si       3.81281934       3.90620787       4.44886974
Si       3.89799438       2.12888864       5.98482042
Si       1.99877871       2.55844074       7.40642246
Si      -0.81800811       3.86904634       0.93397462
Si       1.94434309       3.41713058       3.04997591
Si       3.83063590       0.24483115       4.54323250
Si       5.79347242       1.66900100       7.36349617
Si       4.83212703       1.99566477       9.46384031
Si       2.18074074       4.88866367       7.76415866
20
Lattice="10.99865297804027 -2.2695603711184407 8.750575267659919 -4.651814677733307 7.6213009100776254 -2.6707660887978797 3.465654138738615 -2.8191760279147955 8.179472565090714" Properties=species:S:1:pos:R:3 unique_starting_index=76 config_type=initial n_minim_iter=13 stress="0.0002644394718567023 0.0001588706786341538 0.0001478438975025642 0.0001588706786341538 -0.0001321800549957438 2.0610784541612513e-05 0.0001478438975025642 2.0610784541612513e-05 1.4332329159494774e-05" pbc="T T T"
Si      10.43131163      -1.44573383      12.34620924
Si       2.23048181      -0.88153936       7.77368179
Si       5.96162844      -0.67112798       4.91335459
Si       1.34330293       1.21979260       2.29003689
Si       7.86806850       2.31720850       6.45810617
Si       9.43736574       0.72255448      11.76653811
Si       0.10390114       3.70685436       4.52597120
Si       1.74093897      -0.26225836       5.52210343
Si       7.90066753      -1.79598513       8.44796603
Si       4.33253290      -1.80853557       8.17480081
Si       6.15088455      -0.65538624       7.26006001
Si       3.81701053       3.90789912       4.45053855
Si       3.90107217       2.13035655       5.98605352
Si       2.00207876       2.55920350       7.40695234
Si      -0.81718586       3.86837368       0.93375587
Si       1.94729638       3.41693180       3.05178523
Si       3.83195068       0.24515772       4.54548695
Si       5.79725144       1.67221281       7.36616990
Si       4.83669453       1.99773115       9.46533985
Si       2.18602428       4.88896835       7.76562493
20
Lattice="10.992667333051601 -2.2746773941767144 8.747410737106508 -4.651915256833761 7.623880366688264 -2.670283455672127 3.462919831901974 -2.8216335600227964 8.178592025893803" Properties=species:S:1:pos:R:3 unique_starting_index=76 config_type=initial n_minim_iter=14 stress="-7.585943742190006e-05 -3.672126426265306e-05 -2.9720390446934096e-05 -3.672126426265306e-05 3.0983099626179164e-05 -1.7654404701143736e-07 -2.9720390446934096e-05 -1.7654404701143736e-07 -3.922036839015436e-07" pbc="T T T"
Si      10.42314187      -1.45047989      12.34058203
Si       2.22974121      -0.88279428       7.77267284
Si       5.95652314      -0.67318566       4.91270567
Si       1.34261060       1.21982457       2.28962034
Si       7.86286308       2.31272893       6.45481633
Si       9.42978901       0.71973404      11.76211672
Si       0.10032007       3.70520947       4.52552845
Si       1.73653389      -0.26680748       5.52154157
Si       7.89806986      -1.79973753       8.44808418
Si       4.33092663      -1.81144171       8.17253894
Si       6.14885402      -0.65865176       7.25937849
Si       3.81328599       3.90754602       4.44885721
Si       3.89639424       2.12824544       5.98413815
Si       1.99758125       2.55780244       7.40486170
Si      -0.81903875       3.86998211       0.93291456
Si       1.94467538       3.41624142       3.05129076
Si       3.82746264       0.24135124       4.54543643
Si       5.79174995       1.67014988       7.36395717
Si       4.83046292       1.99504582       9.46357111
Si       2.18177835       4.88804380       7.76447992
20
Lattice="10.993886934811552 -2.274056601065156 8.747185317294772 -4.651930108380727 7.623010745427609 -2.6705284584579276 3.4635337122408587 -2.8214340850461634 8.177944535113895" Properties=species:S:1:pos:R:3 unique_starting_index=76 config_type=initial n_minim_iter=15 stress="-4.845213948525248e-06 -1.8193735293474718e-05 -1.7150615809727962e-05 -1.8193735293474718e-05 1.1772368720833912e-05 7.81439748419149e-06 -1.7150615809727962e-05 7.81439748419149e-06 8.355153276130363e-06" pbc="T T T"
Si      10.42330870      -1.44974701      12.33792358
Si       2.23163396      -0.88298646       7.77250070
Si       5.95725160      -0.67291988       4.91350669
Si       1.34302728       1.21971328       2.28808755
Si       7.86345222       2.31131980       6.45393400
Si       9.43145396       0.72094706      11.76152635
Si       0.10050934       3.70330558       4.52527373
Si       1.73480369      -0.26986277       5.51991440
Si       7.90032935      -1.79852295       8.44948933
Si       4.33255813      -1.81109450       8.17148509
Si       6.15224704      -0.65791627       7.25997169
Si       3.81482206       3.90807394       4.44850452
Si       3.89735607       2.12816126       5.98251035
Si       1.99844440       2.55821802       7.40315487
Si      -0.81887797       3.87077507       0.93253702
Si       1.94522639       3.41639366       3.05117549
Si       3.82669084       0.24030489       4.54631673
Si       5.79254889       1.67044298       7.36272226
Si       4.83044382       1.99563356       9.46312331
Si       2.18292413       4.88763878       7.76482211
20
Lattice="10.994030483955802 -2.2736017628671776 8.74698106179949 -4.651479631359773 7.622486381982036 -2.670848015451258 3.463646645839008 -2.821459856342099 8.17751536369858" Properties=species:S:1:pos:R:3 unique_starting_index=76 config_type=initial n_minim_iter=16 stress="1.0213809902711364e-05 -1.517598360343827e-08 6.852745241743206e-07 -1.517598360343827e-08 -4.446197412657081e-06 -9.765437435018739e-07 6.852745241743206e-07 -9.765437435018739e-07 -3.4269859294068465e-06" pbc="T T T"
Si      10.42273899      -1.44943541      12.33593564
Si       2.23261751      -0.88311608       7.77222176
Si       5.95750180      -0.67262461       4.91397189
Si       1.34313935       1.21966220       2.28702934
Si       7.86353352       2.31030303       6.45333227
Si       9.43201278       0.72174460      11.76092109
Si       0.10088354       3.70218204       4.52504229
Si       1.73342137      -0.27229605       5.51882280
Si       7.90145496      -1.79780012       8.45046716
Si       4.33357379      -1.81107158       8.17062966
Si       6.15406842      -0.65739019       7.26034416
Si       3.81562232       3.90860320       4.44814706
Si       3.89787106       2.12817397       5.98124614
Si       1.99897515       2.55833901       7.40182862
Si      -0.81873311       3.87136444       0.93211232
Si       1.94552552       3.41662677       3.05088853
Si       3.82589557       0.23949768       4.54704176
Si       5.79272521       1.67064073       7.36187658
Si       4.83032449       1.99590578       9.46271261
Si       2.18362742       4.88727737       7.76490628
20
Lattice="10.993087534313979 -2.2728479895362113 8.746391537822374 -4.650286320537542 7.6217749578075065 -2.6711941752778765 3.4632019248509027 -2.821515341013794 8.1768926374533" Properties=species:S:1:pos:R:3 unique_starting_index=76 config_type=initial n_minim_iter=17 stress="2.719819148784498e-05 2.360590875625195e-05 2.530166505652636e-05 2.360590875625195e-05 -1.545260011145191e-05 -5.100038567338103e-06 2.530166505652636e-05 -5.100038567338103e-06 -2.2092833555845985e-06" pbc="T T T"
Si      10.42033399      -1.44918734      12.33248065
Si       2.23358482      -0.88312574       7.77171181
Si       5.95770772      -0.67176887       4.91447454
Si       1.34272766       1.21964112       2.28561835
Si       7.86291353       2.30852956       6.45222870
Si       9.43171137       0.72297545      11.75985243
Si       0.10170338       3.70090037       4.52499280
Si       1.73035494      -0.27697578       5.51707751
Si       7.90231308      -1.79661224       8.45198241
Si       4.33502631      -1.81116200       8.16902785
Si       6.15601114      -0.65632554       7.26078508
Si       3.81614117       3.90977666       4.44765844
Si       3.89843799       2.12847747       5.97912019
Si       1.99943631       2.55847188       7.39954493
Si      -0.81855328       3.87246917       0.93143859
Si       1.94570210       3.41719646       3.05018957
Si       3.82420140       0.23810806       4.54873175
Si       5.79190197       1.67094930       7.36088334
Si       4.82979187       1.99656481       9.46187622
Si       2.18414503       4.88691529       7.76531769
20
Lattice="10.990468425081929 -2.273387523235022 8.745319786777202 -4.649494084145684 7.622304429704103 -2.670803942683643 3.4617515649826767 -2.8218633674781057 8.176759917578236" Properties=species:S:1:pos:R:3 unique_starting_index=76 config_type=initial n_minim_iter=18 stress="-7.475504550245129e-06 -2.479828195764309e-06 -2.274222103780544e-06 -2.479828195764309e-06 1.1668344875044418e-06 2.1756230259659652e-06 -2.274222103780544e-06 2.1756230259659652e-06 -9.538797411308317e-08" pbc="T T T"
Si      10.41719013      -1.45037747      12.33163096
Si       2.23186219      -0.88297100       7.77125910
Si       5.95731174      -0.67141269       4.91353555
Si       1.34133756       1.21972347       2.28617368
Si       7.86118102       2.30805899       6.45156219
Si       9.42888009       0.72219234      11.75914637
Si       0.10205341       3.70190915       4.52541908
Si       1.72873189      -0.27846129       5.51694154
Si       7.89977382      -1.79716765       8.45126846
Si       4.33398872      -1.81157889       8.16823267
Si       6.15338021      -0.65630888       7.25988387
Si       3.81423509       3.91018819       4.44734091
Si       3.89763285       2.12891370       5.97870476
Si       1.99842767       2.55800694       7.39904027
Si      -0.81880511       3.87261508       0.93146173
Si       1.94486472       3.41728989       3.04938042
Si       3.82345371       0.23780993       4.54942814
Si       5.78954877       1.67060456       7.36121801
Si       4.82883609       1.99663756       9.46106875
Si       2.18235579       4.88709588       7.76541974
20
Lattice="10.990045047827875 -2.2737427532232104 8.744659778948659 -4.649321151347526 7.622180346789681 -2.67093650409072 3.461389325877774 -2.8222087090174734 8.17645544777012" Properties=species:S:1:pos:R:3 unique_starting_index=76 config_type=initial n_minim_iter=19 stress="5.6960521522058236e-06 -6.405351383572781e-07 -3.2150167852941e-06 -6.405351383572781e-07 9.973591828520925e-06 -3.105296972171686e-06 -3.2150167852941e-06 -3.105296972171686e-06 3.114640655195996e-06" pbc="T T T"
Si      10.41632494      -1.45084945      12.33042938
Si       2.23210138      -0.88331689       7.77065398
Si       5.95754090      -0.67150136       4.91315130
Si       1.34106140       1.21983087       2.28627257
Si       7.86089907       2.30721758       6.45056933
Si       9.42820932       0.72202050      11.75824297
Si       0.10245202       3.70109956       4.52497305
Si       1.72728788      -0.28094825       5.51625036
Si       7.89933011      -1.79734536       8.45148170
Si       4.33355543      -1.81150955       8.16770910
Si       6.15319634      -0.65645570       7.25922973
Si       3.81403265       3.91041182       4.44653454
Si       3.89746438       2.12907766       5.97807727
Si       1.99833069       2.55738942       7.39808393
Si      -0.81885474       3.87263615       0.93112913
Si       1.94477245       3.41688997       3.04866016
Si       3.82278659       0.23683111       4.55006341
Si       5.78968533       1.67051254       7.36066362
Si       4.82864391       1.99663700       9.46063848
Si       2.18185160       4.88650668       7.76534789
