24
Lattice="5.860248664549173 -1.2466941292624052 0.9518578161521111 1.3980807007821352 8.651375304047448 -0.9261176603517486 2.452886198487609 1.7809096206359134 8.949824484131542" Properties=species:S:1:pos:R:3 unique_starting_index=94 config_type=initial n_minim_iter=1 energy=-3906.404448320632 free_energy=-3906.404448320632 pbc="T T T"
Si       7.88213977       6.69193475       8.52988166
Si       0.92024500       2.26786935       1.88448565
Si       1.38604871       7.65753305      -0.50486176
Si       6.44897493       8.74212177       6.00133314
Si       4.70254778       1.97356786       1.82933198
Si       5.22137566       3.67111700       9.29076072
Si       3.78335085       0.90000707       3.77936002
Si       3.33608147      -0.82984466       2.22542239
Si       7.91528656       0.54847656       6.05871022
Si       8.36817754       7.23717105       6.18951996
Si       4.59293673       5.96313422       8.10007601
Si       5.88897333       1.34751114       5.04649785
Si       3.79588689       5.96082181       2.47031363
Si       2.34300769       5.21384453       7.62108938
Si       5.34162194       3.64279771       5.27946323
Si       6.45508329       4.74942930       7.14993946
Si       4.09719729       1.93970093       8.08262456
Si       3.37292390       6.24213020       0.03624020
Si       7.58580649       3.65449512       2.47518685
Si       3.28555279       3.33795128       6.39681860
Si       7.71675390       5.85198673       4.32853429
Si       0.88931398      -0.08719545       2.44629225
Si       4.48791190       7.53198575       6.28518494
Si       5.21041971       4.06936781       2.90798433
24
Lattice="5.826219969765457 -1.2453329593341125 0.9633230728271757 1.3906502904474962 8.641217782990731 -0.9424397576229173 2.452070875943928 1.759988115642237 8.950100696747363" Properties=species:S:1:pos:R:3 unique_starting_index=94 config_type=initial n_minim_iter=2 stress="-0.0005746131292908851 0.00013327820195926528 -0.000594052715796608 0.00013327820195926528 -0.0022097534770577918 0.0005898738311754432 -0.000594052715796608 0.0005898738311754432 -0.0027217353838433628" pbc="T T T"
Si       7.84945185       6.66667777       8.52772093
Si       0.91821283       2.26087247       1.88098519
Si       1.37916654       7.64761472      -0.51919497
Si       6.42143925       8.71866623       5.99275163
Si       4.67718797       1.96869795       1.83228916
Si       5.20516292       3.64760557       9.29115611
Si       3.76705247       0.89202587       3.78322291
Si       3.31895151      -0.83230635       2.23210606
Si       7.87708062       0.53687983       6.06978964
Si       8.32922054       7.21565012       6.18713741
Si       4.57938771       5.93816571       8.09445490
Si       5.86168514       1.33645880       5.05238568
Si       3.77828260       5.94797574       2.46357320
Si       2.34191998       5.19072720       7.61381767
Si       5.31839485       3.62744693       5.28017813
Si       6.42812570       4.72890950       7.14941696
Si       4.08510007       1.92054854       8.08553049
Si       3.35432175       6.23368997       0.02788295
Si       7.54511806       3.64575024       2.47915421
Si       3.27619470       3.32030786       6.39496389
Si       7.67859791       5.83653990       4.32798827
Si       0.88771554      -0.09207967       2.44768793
Si       4.47256705       7.50915774       6.27607760
Si       5.18508360       4.05900244       2.90753716
24
Lattice="5.818044813965929 -1.249982181723297 0.9764253869727745 1.3865851421362874 8.66177121651853 -0.9575043552037347 2.4599334827428883 1.749570484054556 8.981477661442176" Properties=species:S:1:pos:R:3 unique_starting_index=94 config_type=initial n_minim_iter=3 stress="-2.3917961049294956e-05 0.00027243336112575054 0.00013559037750165016 0.00027243336112575054 0.0001495796620519838 -0.00042886302029815105 0.00013559037750165016 -0.00042886302029815105 0.0007636693498834973" pbc="T T T"
Si       7.84755635       6.66803299       8.55692577
Si       0.91920814       2.26292799       1.88489770
Si       1.37577250       7.66491300      -0.53144870
Si       6.41818483       8.72843893       6.00825320
Si       4.67109359       1.97077885       1.84180972
Si       5.20920961       3.64085026       9.32432949
Si       3.76672870       0.88823522       3.79973364
Si       3.31631836      -0.83765192       2.24527932
Si       7.87219759       0.52788776       6.10074301
Si       8.32338803       7.22103477       6.20852879
Si       4.58274691       5.93767924       8.11880532
Si       5.85889452       1.33105243       5.07513175
Si       3.77494052       5.95699781       2.46789820
Si       2.34805612       5.18998194       7.63495785
Si       5.31651076       3.62639075       5.30002011
Si       6.42662196       4.72727636       7.17447788
Si       4.08878263       1.91147931       8.11663059
Si       3.34828253       6.24686942       0.02237571
Si       7.53610200       3.64892700       2.49247400
Si       3.27886089       3.31708167       6.41641005
Si       7.67133188       5.84239553       4.34421564
Si       0.88955690      -0.09627166       2.45719473
Si       4.47323747       7.51571272       6.29171206
Si       5.18081433       4.06357136       2.91862253
24
Lattice="5.801192390014601 -1.2833175976545947 0.98414709330742 1.3360489903429524 8.69839668102307 -0.9336502502923648 2.4588068328434067 1.7673181620284042 8.978464448657093" Properties=species:S:1:pos:R:3 unique_starting_index=94 config_type=initial n_minim_iter=4 stress="-0.0016995988213211856 -0.002686050962460532 0.0009715494506984903 -0.002686050962460532 0.00174934821121611 0.0011954060224045506 0.0009715494506984903 0.0011954060224045506 -0.0005924256662801519" pbc="T T T"
Si       7.79782110       6.69131497       8.57357027
Si       0.90860669       2.27586335       1.88663616
Si       1.33152141       7.69268419      -0.51257483
Si       6.35841576       8.76230487       6.03252834
Si       4.63459354       1.97415074       1.85478597
Si       5.19287562       3.65809188       9.32880988
Si       3.76596377       0.88869885       3.80035536
Si       3.30757168      -0.85113070       2.24391801
Si       7.84584906       0.50430899       6.11521981
Si       8.26413845       7.22869096       6.23752892
Si       4.55540985       5.95917833       8.12637636
Si       5.83888913       1.31973904       5.07751431
Si       3.73439261       5.97544469       2.48546282
Si       2.32748992       5.22292108       7.64058441
Si       5.28765496       3.62608954       5.31324585
Si       6.38818690       4.73053907       7.17939919
Si       4.07269783       1.91864889       8.12711094
Si       3.29980425       6.25831555       0.04127946
Si       7.49584903       3.62898458       2.51736271
Si       3.25643666       3.32720145       6.42878810
Si       7.61602045       5.85058565       4.37017500
Si       0.89036112      -0.09692325       2.45251627
Si       4.42873113       7.54727888       6.30982764
Si       5.15088935       4.07264099       2.94359133
24
Lattice="5.789254181215583 -1.2582701777600303 0.9809909083848802 1.3773868317732978 8.714465834124582 -0.9539155269944356 2.4563117889077013 1.7611051014124959 8.972111203633203" Properties=species:S:1:pos:R:3 unique_starting_index=94 config_type=initial n_minim_iter=5 stress="-0.0014396403080344745 -0.00035511770271745466 -0.0003710972400134494 -0.00035511770271745466 0.001028853464767077 2.669772492316144e-05 -0.0003710972400134494 2.669772492316144e-05 -0.0006366211386548439" pbc="T T T"
Si       7.81361906       6.73447247       8.54376365
Si       0.91822716       2.28121962       1.87340229
Si       1.36831593       7.69453517      -0.53425327
Si       6.38668945       8.80355028       6.00622381
Si       4.61327223       2.02523941       1.84957204
Si       5.20925340       3.67144054       9.30976661
Si       3.79195544       0.91319554       3.78489860
Si       3.29059426      -0.83442234       2.23451828
Si       7.83065323       0.52610746       6.11871548
Si       8.28364461       7.25334322       6.22250858
Si       4.58572121       5.95466116       8.09740723
Si       5.83929810       1.33762869       5.05482689
Si       3.75759332       5.99305983       2.46825256
Si       2.34185168       5.22040977       7.62383164
Si       5.29899437       3.62900712       5.30273150
Si       6.39420515       4.73451710       7.13982402
Si       4.05838403       1.91938451       8.13852047
Si       3.31814892       6.26772391       0.01853593
Si       7.51713270       3.64408662       2.51274023
Si       3.25025755       3.31682123       6.43646641
Si       7.62768004       5.89681095       4.35721530
Si       0.88455278      -0.10110577       2.44389788
Si       4.45173856       7.55970167       6.28967132
Si       5.17885039       4.11218315       2.95123727
24
Lattice="5.808872360934714 -1.2500615395364498 1.0037484171154827 1.381635880549396 8.67482855290315 -0.9507095549995102 2.4960946376451116 1.75374917055379 8.997438234079313" Properties=species:S:1:pos:R:3 unique_starting_index=94 config_type=initial n_minim_iter=6 stress="0.0005156817658500393 -0.00020964709974611784 0.0014786986812221365 -0.00020964709974611784 -0.001243457228962755 0.0002098266646780502 0.0014786986812221365 0.0002098266646780502 0.00014251640247139616" pbc="T T T"
Si       7.86904943       6.71399995       8.58484980
Si       0.92876476       2.27217172       1.87537105
Si       1.37308417       7.65339147      -0.53071880
Si       6.42889406       8.77276220       6.03965456
Si       4.62472595       2.03423619       1.87182806
Si       5.26321590       3.65792774       9.34150046
Si       3.82679432       0.91593365       3.80191680
Si       3.30324864      -0.82652605       2.24753690
Si       7.87380409       0.52273355       6.16319883
Si       8.33106006       7.22092483       6.26698366
Si       4.63605759       5.92298336       8.12374793
Si       5.87770862       1.33328347       5.08055863
Si       3.77985053       5.96843984       2.48602419
Si       2.37686502       5.19721899       7.64486709
Si       5.33408273       3.60623341       5.33426446
Si       6.44016466       4.70748690       7.16527566
Si       4.09596537       1.91177167       8.17682304
Si       3.32592884       6.23407381       0.02869276
Si       7.55573733       3.62072559       2.54889324
Si       3.27905740       3.29586981       6.46855669
Si       7.66518927       5.87925492       4.39558862
Si       0.89423069      -0.10112270       2.44811451
Si       4.49028914       7.52555698       6.31778435
Si       5.21363960       4.10369780       2.98465112
24
Lattice="5.79661478819326 -1.247686232039558 0.9846121311790872 1.391235332230424 8.690075608252199 -0.9676361443906856 2.461412469136433 1.7475214597924518 8.995735729597186" Properties=species:S:1:pos:R:3 unique_starting_index=94 config_type=initial n_minim_iter=7 stress="0.0008668144665437902 -0.00030193657441533934 -0.0012891330569229954 -0.00030193657441533934 -0.0010588817573532433 -0.0008937734806121312 -0.0012891330569229954 -0.0008937734806121312 0.0009948566571591371" pbc="T T T"
Si       7.83334875       6.73164832       8.55262792
Si       0.92207972       2.27618325       1.86144380
Si       1.37810933       7.65578553      -0.54411055
Si       6.40423360       8.79563548       6.00969581
Si       4.60161982       2.06862274       1.85743973
Si       5.23124890       3.65816288       9.31915589
Si       3.82154057       0.92385193       3.78583151
Si       3.28182912      -0.82278355       2.23418386
Si       7.84019199       0.51476486       6.14635684
Si       8.30017634       7.22924976       6.23777310
Si       4.61401149       5.91697670       8.09980024
Si       5.85959520       1.33209733       5.05660300
Si       3.77092991       5.98168079       2.46629958
Si       2.34761257       5.19999952       7.63584111
Si       5.30698105       3.59654915       5.32132563
Si       6.41309102       4.69794207       7.12511978
Si       4.05801514       1.90996071       8.18141172
Si       3.31968978       6.23598265       0.00681811
Si       7.55081922       3.61346867       2.52544251
Si       3.24759646       3.28431193       6.47333506
Si       7.64069650       5.90034645       4.36871887
Si       0.88099013      -0.10454509       2.44159683
Si       4.46992425       7.53152357       6.29925150
Si       5.21294670       4.12555967       2.97790571
24
Lattice="5.7725742466565455 -1.214728937541521 0.9865392967158535 1.4452101336398875 8.766289682661839 -0.9377573060981238 2.4795988154859576 1.8043789448479552 8.976069372754075" Properties=species:S:1:pos:R:3 unique_starting_index=94 config_type=initial n_minim_iter=8 stress="0.0004125300747664949 0.003346768302907306 -0.0004609875865056039 0.003346768302907306 0.0016425335555010588 0.0014976221166235013 -0.0004609875865056039 0.0014976221166235013 0.0004796810176148638" pbc="T T T"
Si       7.86928665       6.87514549       8.55305049
Si       0.93553872       2.30875942       1.84927483
Si       1.42205279       7.71136942      -0.51364022
Si       6.45227962       8.94105118       6.02288247
Si       4.59549303       2.16108357       1.86890890
Si       5.25966489       3.75142959       9.29608018
Si       3.83138988       0.97613581       3.77799978
Si       3.25875285      -0.79452700       2.22525733
Si       7.83023917       0.57655111       6.14561416
Si       8.32865758       7.36203078       6.25480381
Si       4.66242060       6.00908239       8.08852037
Si       5.87000179       1.39317690       5.04904148
Si       3.80373269       6.07020889       2.48020516
Si       2.38298421       5.28492043       7.62801420
Si       5.31456641       3.65965598       5.33101935
Si       6.44484949       4.78330944       7.10392419
Si       4.06898939       1.98003628       8.18177037
Si       3.34301821       6.29496774       0.02916230
Si       7.57041950       3.68051255       2.54561100
Si       3.26444739       3.33802583       6.48391829
Si       7.66108289       6.02557536       4.38655659
Si       0.87662170      -0.09268172       2.42820718
Si       4.52210469       7.63856576       6.30829657
Si       5.24753069       4.22275665       3.00480680
24
Lattice="5.787198133620227 -1.2382672694151056 0.9941810069753803 1.4250266915630048 8.796478103238695 -0.9738498558434323 2.4889300935751475 1.7607727077449649 8.927003015816922" Properties=species:S:1:pos:R:3 unique_starting_index=94 config_type=initial n_minim_iter=9 stress="0.002006863391941941 0.0007470170550338963 -0.0005976429467466557 0.0007470170550338963 0.0018397979056662798 -0.0016323961990924436 -0.0005976429467466557 -0.0016323961990924436 -0.0012546748791006372" pbc="T T T"
Si       7.87632867       6.84080158       8.48787476
Si       0.92864210       2.30678071       1.81478524
Si       1.40000036       7.72518320      -0.53790637
Si       6.44535499       8.93535686       5.95550761
Si       4.60195468       2.18486489       1.85953032
Si       5.26941306       3.70373267       9.22587683
Si       3.83561289       0.95257006       3.75810002
Si       3.25806571      -0.81146714       2.22067720
Si       7.85417240       0.51196893       6.12399171
Si       8.32462172       7.33961155       6.19767817
Si       4.66963323       5.97175693       8.01930628
Si       5.89523426       1.35272817       5.02642425
Si       3.79682120       6.07991488       2.44256770
Si       2.37703168       5.26785339       7.56719883
Si       5.30588866       3.61549875       5.30349159
Si       6.46518531       4.73483239       7.03602107
Si       4.08410960       1.94110213       8.14749046
Si       3.32503749       6.29477007       0.00611259
Si       7.58910907       3.64216519       2.52681123
Si       3.26587997       3.29930182       6.45219747
Si       7.66182286       6.01512861       4.34609715
Si       0.87468477      -0.10435542       2.41308749
Si       4.52615223       7.62066440       6.24642552
Si       5.26444174       4.22623078       2.98637130
24
Lattice="5.769250782148912 -1.2429281704157544 0.9875653495800488 1.402700557864015 8.756319955921473 -0.9512796820822618 2.4650814114447663 1.7791265951780069 8.980696397075013" Properties=species:S:1:pos:R:3 unique_starting_index=94 config_type=initial n_minim_iter=10 stress="4.291062385622021e-05 -0.0006497983412613495 -0.001023839992687153 -0.0006497983412613495 -0.0003702274878700324 -0.00021151714025459737 -0.001023839992687153 -0.00021151714025459737 0.0011970758982631972" pbc="T T T"
Si       7.82518400       6.82341159       8.55177201
Si       0.91314030       2.30223310       1.82162693
Si       1.37655622       7.68649247      -0.50976391
Si       6.39516825       8.90947734       6.00961307
Si       4.58709077       2.19184881       1.87467027
Si       5.22987299       3.70739968       9.27619381
Si       3.80588876       0.94980153       3.77766984
Si       3.23949507      -0.80617425       2.22697099
Si       7.82389075       0.50303892       6.14927860
Si       8.26825072       7.32056801       6.24360199
Si       4.63135425       5.96424490       8.07618173
Si       5.87417708       1.34784965       5.05598083
Si       3.76729503       6.06475571       2.47299114
Si       2.34556829       5.27489697       7.62479146
Si       5.26191247       3.59812109       5.34459174
Si       6.43479096       4.72157460       7.07545780
Si       4.06111322       1.95446558       8.19823124
Si       3.29629181       6.25722227       0.02722651
Si       7.55744253       3.61088460       2.54243974
Si       3.23855107       3.29766769       6.49988254
Si       7.61670146       5.99354671       4.37965019
Si       0.86432644      -0.09348829       2.42445403
Si       4.49368800       7.60294487       6.30139921
Si       5.24090620       4.21806058       3.01281220
24
Lattice="5.770955903707174 -1.2373829126074782 1.0039478533572808 1.414223897070019 8.79385481661783 -0.9360980709573133 2.503135333582559 1.7948746898613144 8.935843286723815" Properties=species:S:1:pos:R:3 unique_starting_index=94 config_type=initial n_minim_iter=11 stress="-0.0006708619509476779 -6.534511112998177e-05 0.0017140949959661735 -6.534511112998177e-05 -0.000164936284436078 0.00022393398499293457 0.0017140949959661735 0.00022393398499293457 -0.0015949106310898158" pbc="T T T"
Si       7.87174894       6.85846994       8.53886544
Si       0.91301318       2.31385826       1.80242643
Si       1.38849615       7.71984879      -0.49036627
Si       6.43175940       8.95999059       6.00117538
Si       4.61096623       2.22798488       1.88804671
Si       5.27467783       3.73741308       9.23588666
Si       3.80855523       0.95346658       3.76600066
Si       3.23849389      -0.80008047       2.22647906
Si       7.85964204       0.51366440       6.14501034
Si       8.29870911       7.37547678       6.23817617
Si       4.67551427       5.99595164       8.04269410
Si       5.90446450       1.35996850       5.05115294
Si       3.78676680       6.10744767       2.48066309
Si       2.38564878       5.31294058       7.58998546
Si       5.27587341       3.61276192       5.33686367
Si       6.48162757       4.75648487       7.04715715
Si       4.10301872       1.96471655       8.16831659
Si       3.30332643       6.28041242       0.05039635
Si       7.57660096       3.62964440       2.55642514
Si       3.26134314       3.31634763       6.47479878
Si       7.64300033       6.03494101       4.38303332
Si       0.86450709      -0.08025146       2.41448693
Si       4.54007804       7.64569127       6.28018913
Si       5.26949865       4.26081659       3.02068380
24
Lattice="5.752646487098091 -1.2237727134762553 0.9868647230897417 1.436653326052007 8.822150607712572 -0.923697003822778 2.479970243757853 1.823374842848438 8.933448771382496" Properties=species:S:1:pos:R:3 unique_starting_index=94 config_type=initial n_minim_iter=12 stress="0.000354413457946778 0.0005864265232263474 0.0004131394915272408 0.0005864265232263474 0.0005941945488928779 0.0004933700241351517 0.0004131394915272408 0.0004933700241351517 0.0007502482257491194" pbc="T T T"
Si       7.85459840       6.90978360       8.53781559
Si       0.89127443       2.32754575       1.77868021
Si       1.41165710       7.73785788      -0.47380114
Si       6.42113841       9.02445588       6.00003526
Si       4.60162860       2.29994748       1.89542450
Si       5.26974964       3.78971293       9.22111428
Si       3.80046715       0.96829168       3.73752436
Si       3.20182153      -0.78093530       2.20922909
Si       7.84158309       0.53914101       6.14496691
Si       8.27238799       7.43555170       6.23581421
Si       4.67878437       6.02001878       8.02267398
Si       5.89577411       1.37846977       5.02575031
Si       3.78811302       6.15596015       2.49607121
Si       2.38187830       5.36185965       7.59274738
Si       5.24744140       3.61679104       5.33358927
Si       6.47180212       4.79731390       6.99396714
Si       4.07749477       1.97310485       8.18554343
Si       3.29994277       6.28454785       0.06156793
Si       7.57583115       3.63443718       2.55013742
Si       3.21564704       3.32922448       6.48970137
Si       7.62354728       6.09380163       4.37911469
Si       0.83686746      -0.05172504       2.41227259
Si       4.54378137       7.69352767       6.27483541
Si       5.29122456       4.33530891       3.04093834
24
Lattice="5.7529179230079786 -1.2341486800404617 0.9714275197274576 1.4225299128248836 8.808378463766152 -0.933670302631659 2.4544762908534326 1.807352402647202 8.90555879020948" Properties=species:S:1:pos:R:3 unique_starting_index=94 config_type=initial n_minim_iter=13 stress="-0.00040473811897409715 -0.0007298927848929042 -0.0009492295028474139 -0.0007298927848929042 -0.000908816306210804 -0.000633012878365522 -0.0009492295028474139 -0.000633012878365522 -0.0009076591469110119" pbc="T T T"
Si       7.82607442       6.86306010       8.50207713
Si       0.87161213       2.31902841       1.76431911
Si       1.40089537       7.72750864      -0.48105280
Si       6.39207164       8.98592820       5.95979217
Si       4.60248332       2.28448980       1.88185926
Si       5.24619145       3.76752227       9.18857397
Si       3.78410113       0.94691930       3.71167079
Si       3.19039638      -0.78844660       2.19360781
Si       7.83048046       0.52103800       6.11225611
Si       8.24067312       7.40581520       6.19553881
Si       4.65307366       5.99280345       7.98177420
Si       5.87966599       1.35477054       4.99445778
Si       3.76934622       6.14170347       2.48602242
Si       2.35900359       5.34729690       7.56356404
Si       5.22536184       3.59308414       5.30149269
Si       6.44863372       4.78685261       6.94203299
Si       4.05985463       1.94702521       8.15522342
Si       3.28914513       6.26331757       0.05389700
Si       7.55959105       3.61290925       2.52060541
Si       3.18705194       3.31638762       6.46597051
Si       7.59865800       6.06177552       4.34639388
Si       0.82060518      -0.03974253       2.41390383
Si       4.51337032       7.66889910       6.23468603
Si       5.28125043       4.32533249       3.01913930
24
Lattice="5.743719709143833 -1.234111965574707 0.9765346746807377 1.4237638411026214 8.82960094772855 -0.9316166570868746 2.461410749453266 1.8117285877342875 8.89298282189063" Properties=species:S:1:pos:R:3 unique_starting_index=94 config_type=initial n_minim_iter=14 stress="-8.362008360625311e-05 -0.0004939883890672656 -0.0007265679521880126 -0.0004939883890672656 0.0002527879837136425 -0.0005540775908871563 -0.0007265679521880126 -0.0005540775908871563 0.00012581174333670204" pbc="T T T"
Si       7.83835365       6.87598704       8.51011691
Si       0.85951603       2.32398861       1.73778132
Si       1.39947167       7.72910555      -0.46872225
Si       6.39798080       9.00967789       5.94609836
Si       4.59878493       2.32983568       1.89203890
Si       5.26120401       3.77822862       9.17555712
Si       3.78632955       0.94899005       3.69842271
Si       3.15849376      -0.78586976       2.17821001
Si       7.82443533       0.51495756       6.11165707
Si       8.22880252       7.42562219       6.20336394
Si       4.67861170       5.99668607       7.95318377
Si       5.88119785       1.34605314       4.98134948
Si       3.76387093       6.16937005       2.50186023
Si       2.36704120       5.37292178       7.54461301
Si       5.21179990       3.58055407       5.30259390
Si       6.46387899       4.81038682       6.88281820
Si       4.07446935       1.95766400       8.15972081
Si       3.28004280       6.25187105       0.06601816
Si       7.56041737       3.60737426       2.53110390
Si       3.18694769       3.32142062       6.48575539
Si       7.58128833       6.08346920       4.35912488
Si       0.79992537      -0.01781713       2.42239260
Si       4.51369460       7.68391396       6.21590395
Si       5.30378642       4.36881227       3.04119135
24
Lattice="5.743874490800084 -1.2304528795817475 0.9879304730021629 1.4240124045549691 8.822019018886397 -0.9206804821983813 2.4834542903017653 1.8163559149669286 8.877722968151609" Properties=species:S:1:pos:R:3 unique_starting_index=94 config_type=initial n_minim_iter=15 stress="-0.00022534806039895737 4.408788380764282e-05 0.0003661270896693633 4.408788380764282e-05 0.00012484705950285355 0.00028748315060729703 0.0003661270896693633 0.00028748315060729703 6.637698000949542e-05" pbc="T T T"
Si       7.87860452       6.86418609       8.53785106
Si       0.84929331       2.32206325       1.71050698
Si       1.40278358       7.70557058      -0.44483981
Si       6.42191658       8.99924523       5.94002328
Si       4.60735576       2.35772563       1.90622536
Si       5.29639984       3.78329908       9.17463711
Si       3.79616368       0.94732206       3.68737933
Si       3.12451518      -0.78264142       2.15735583
Si       7.83433050       0.51783628       6.11234534
Si       8.23621255       7.42205427       6.22792592
Si       4.72558165       5.98825918       7.92528482
Si       5.88943867       1.33265612       4.96959119
Si       3.76242208       6.17604179       2.53292188
Si       2.38742358       5.39140290       7.52071771
Si       5.21433552       3.56291327       5.30466818
Si       6.50373621       4.84176803       6.81439705
Si       4.11335564       1.96907517       8.16086584
Si       3.27831658       6.21471699       0.08971563
Si       7.56932694       3.60035309       2.55369547
Si       3.20633759       3.32748901       6.50865833
Si       7.57244141       6.07797657       4.39115812
Si       0.77530274       0.01067455       2.44211125
Si       4.52012291       7.67629615       6.19618335
Si       5.33572008       4.39892471       3.07126180
24
Lattice="5.749572476948859 -1.224185668522277 0.9960964611989893 1.429455457259121 8.809423039087697 -0.9133027026153623 2.5042280995267423 1.8170312683436707 8.853900377068781" Properties=species:S:1:pos:R:3 unique_starting_index=94 config_type=initial n_minim_iter=16 stress="7.699968660820439e-05 0.0005034621341022889 0.0012690489097443292 0.0005034621341022889 0.0003434322474602618 0.0007614525821555049 0.0012690489097443292 0.0007614525821555049 -0.00026046978480288407" pbc="T T T"
Si       7.93203578       6.84443428       8.56453391
Si       0.83912120       2.32111868       1.66986730
Si       1.42285585       7.67488614      -0.41481996
Si       6.44809198       8.98136849       5.92270210
Si       4.62240759       2.39377949       1.91386057
Si       5.33598004       3.78938992       9.16861758
Si       3.80591356       0.94422632       3.66839697
Si       3.07440026      -0.77701454       2.12502516
Si       7.85103362       0.52533340       6.10498666
Si       8.25105233       7.41313632       6.24754451
Si       4.78473203       5.96838464       7.87943174
Si       5.89973733       1.31494255       4.94628743
Si       3.76151467       6.17910087       2.56260007
Si       2.40403119       5.41711532       7.47842179
Si       5.21946975       3.53848755       5.29858979
Si       6.56960026       4.88229807       6.70432823
Si       4.16078351       1.97123085       8.15754459
Si       3.28217195       6.16246975       0.11085628
Si       7.58787005       3.59272731       2.57541539
Si       3.22896499       3.32720011       6.52515005
Si       7.56074064       6.06174819       4.42741674
Si       0.73747120       0.03507057       2.46967190
Si       4.53020234       7.65988123       6.15919948
Si       5.37670567       4.43468399       3.10036991
24
Lattice="5.760389697417221 -1.21647083877846 0.9987287730643302 1.4358491050166706 8.777711453380148 -0.9107535921469979 2.51564885512956 1.8120626165815934 8.84413914791626" Properties=species:S:1:pos:R:3 unique_starting_index=94 config_type=initial n_minim_iter=17 stress="0.00010869263810008333 0.0007061093146600992 0.0018798439603684937 0.0007061093146600992 5.31954685861627e-05 0.0012662360620445696 0.0018798439603684937 0.0012662360620445696 -0.0006812766840559787" pbc="T T T"
Si       7.97979894       6.81158583       8.59739332
Si       0.83650212       2.31762119       1.63760109
Si       1.45406552       7.63337656      -0.38734976
Si       6.46528332       8.94135595       5.91225210
Si       4.63854456       2.40835381       1.91185053
Si       5.36128380       3.78860350       9.17918862
Si       3.81135407       0.94017581       3.65645598
Si       3.02683187      -0.77049717       2.09553737
Si       7.86669930       0.53775595       6.09789191
Si       8.27037842       7.38643418       6.26825964
Si       4.83319510       5.93474191       7.84757192
Si       5.90455564       1.29777421       4.92811053
Si       3.75871511       6.16037073       2.58456156
Si       2.40821466       5.43187510       7.44303024
Si       5.22976449       3.51653141       5.29402754
Si       6.63955240       4.91309980       6.60349082
Si       4.20085416       1.96321855       8.16043114
Si       3.29240337       6.10250082       0.12200069