12
Lattice="5.3059530535280715 9.17837160983617e-28 -1.7247583084569647e-18 -1.3352858114727711e-27 10.930967570617955 1.3816281843867665e-14 1.1911229340945986e-18 -4.574159116474833e-15 3.688591967831857" Properties=species:S:1:pos:R:3 unique_starting_index=60 config_type=initial n_minim_iter=19 energy=-1952.7939865439082 free_energy=-1952.7939865439082 pbc="T T T"
Si       2.91086023       4.27207409       0.00004953
Si       2.91086023       6.65889348       3.68854244
Si       0.25788370       1.19340970       1.84434552
Si       0.25788370       9.73755787       1.84424645
Si       4.34793718       7.28755473       1.84425361
Si       4.34793718       3.64341285       1.84433836
Si       1.69496065       9.10889663       3.68854959
Si       1.69496065       1.82207094       0.00004238
Si       0.47921776       4.27213477       3.68865312
Si       0.47921776       6.65883280      -0.00006115
Si       3.13219429       1.19334902       1.84435713
Si       3.13219429       9.73761855       1.84423483
