20
Lattice="5.257257539859486 -1.766007365846004e-12 5.900063946289683e-14 -2.628628769928213 4.552918583756477 -4.0479032221125883e-14 -2.714459152931541e-13 5.832400954719084e-14 24.187213864631392" Properties=species:S:1:pos:R:3 unique_starting_index=168 config_type=initial n_minim_iter=1 energy=-3252.4129863949242 free_energy=-3252.4129863949242 pbc="T T T"
Si       1.25114968       0.79758335      22.54865251
Si       3.94095526       0.68473572      22.54865251
Si       2.69378138       3.07059950      22.54865251
Si       4.08775884       1.54997353      16.67682802
Si       1.87106167       2.76511623      16.67682802
Si       1.92706581       0.23782882      16.67682802
Si       2.73553911       3.08513698      11.21919539
Si       1.21768099       0.82647787      11.21919539
Si       3.93266622       0.64130374      11.21919539
Si       4.05295730       1.28970497      20.24505123
Si       2.11386162       2.86511149      20.24505123
Si       1.71906740       0.39810212      20.24505123
Si      -1.46993100       3.35991573      18.51349339
Si       0.45382190       1.59996313      18.51349339
Si       1.01610911       4.14595830      18.51349339
Si       3.25403518       2.79471246      13.53587988
Si       1.20994797       1.42072090      13.53587988
Si       3.42190317       0.33748522      13.53587988
Si       0.00000000      -0.00000000      15.09403049
Si       0.00000000       3.03527905      14.91524878
