20
Lattice="9.769284633520591 5.322428200987494e-13 1.6864493237973917e-14 4.884642316759836 8.460448669430047 -2.8311812826484806e-14 4.884642316760133 2.820149556476879 5.083362693484474" Properties=species:S:1:pos:R:3 unique_starting_index=8 config_type=initial n_minim_iter=8 energy=-3257.6754786594406 free_energy=-3257.6754786594406 pbc="T T T"
Si      12.27675309       5.22070546       1.79737087
Si       8.87892917       8.02162732       1.79737087
Si       8.15217165       3.67856456       1.79737087
Si       7.62787116       5.22230774       4.02935814
Si      11.20198252       3.99477633       4.02935814
Si      10.47800023       7.70381327       4.02935814
Si       9.05968203       3.53014595       4.82947510
Si      11.95153218       6.08084181       4.82947510
Si       8.29663970       7.30990958       4.82947510
Si       6.46372320       6.85437579      -0.27523009
Si      10.37064412       2.17056060      -0.27523009
Si      12.47348660       7.89596096      -0.27523009
Si      13.81552222       6.25504417       3.42074327
Si      16.98306565       8.83707112       3.42074327
Si      13.16319300      10.28923072       3.42074327
Si      10.51343218       3.55571624       1.68856556
Si      11.20251259       7.32704122       1.68856556
Si       7.59190915       6.03813988       1.68856556
Si      14.65392695       8.46044867       0.42020710
Si      14.65392695       8.46044867       2.80225510
