12
Lattice="7.383502099950285 1.619344651788387 -1.193267743427356 4.294080498991001 6.64816542750734 1.1485587356203728 1.9633310812642737 1.6363414330523776 5.342079152885652" Properties=species:S:1:pos:R:3 unique_starting_index=78 config_type=initial n_minim_iter=1 energy=-1950.5162630125687 free_energy=-1950.5162630125687 pbc="T T T"
Si       3.23881566       3.82111991       2.83684379
Si       8.37469998       4.54098129       1.84635827
Si      11.82865129       8.84403153       2.74161377
Si       5.58620965       3.47653384       2.21056412
Si       6.40275245       5.82059193       2.34347753
Si       8.26292600       8.61994848       5.64362462
Si       7.10019881       2.42252144      -0.76339853
Si       8.01968124       6.27924137       4.90431774
Si       5.02907102       0.93359681      -0.68006014
Si       9.08452171       3.95152660      -0.40274368
Si       4.87638014       4.90685546       4.19218754
Si       5.84872126       6.86919109       5.72743004
12
Lattice="7.124182640970357 1.4326545653119107 -1.2598792378132342 3.980763972382641 6.665750873619659 1.2711599631408914 1.7677000690565474 1.7791914199459762 5.306331874483939" Properties=species:S:1:pos:R:3 unique_starting_index=78 config_type=initial n_minim_iter=2 stress="-0.013535298200392785 -0.0058426482051134815 0.0053175306466301175 -0.0058426482051134815 -0.0075978292593252734 0.002503118948051421 0.0053175306466301175 0.002503118948051421 -0.01305922145357513" pbc="T T T"
Si       2.97175378       3.90185670       2.84637940
Si       7.98902450       4.44815622       1.82692150
Si      11.15486363       8.81121884       2.74540652
Si       5.27739337       3.49434793       2.18300396
Si       6.05278076       5.79920185       2.44628700
Si       7.70890001       8.70275041       5.69068299
Si       6.81022895       2.27860358      -0.85169399
Si       7.52210144       6.30057041       4.91769881
Si       4.81826579       0.79091089      -0.74831127
Si       8.69391877       3.79489394      -0.43996700
Si       4.55518867       4.98369160       4.25664973
Si       5.42555262       6.95661450       5.86210982
12
Lattice="7.117144558743858 1.3786086662016965 -1.4110512761708756 3.8840595925327457 6.804959998683245 1.3336511313685746 1.6264372878789803 1.9140244546003191 5.377695352420526" Properties=species:S:1:pos:R:3 unique_starting_index=78 config_type=initial n_minim_iter=3 stress="0.007899686458263493 -0.007779943172932509 0.004558623906107362 -0.007779943172932509 0.012186821970462811 0.003710155570042926 0.004558623906107362 0.003710155570042926 0.007181574474032215" pbc="T T T"
Si       2.84877870       4.04198864       2.87712456
Si       7.90206446       4.50471178       1.76343979
Si      10.95410408       9.00468651       2.68130300
Si       5.17663346       3.59801562       2.14974517
Si       5.96019414       5.91224552       2.50794295
Si       7.49582117       8.93783363       5.75058632
Si       6.77597069       2.26451178      -1.01640296
Si       7.33288634       6.45682881       4.94475951
Si       4.78245638       0.73711369      -0.86674237
Si       8.63424478       3.81142155      -0.56961253
Si       4.42376831       5.14420918       4.34372242
Si       5.23565001       7.15216410       6.02920833
12
Lattice="7.043278030715899 1.401197335919675 -1.6054232328072096 3.8189438241908125 6.835688824953786 1.2994939702241064 1.4501806088213438 1.9927395472955316 5.354638796911496" Properties=species:S:1:pos:R:3 unique_starting_index=78 config_type=initial n_minim_iter=4 stress="0.002841789983132783 -0.006832302586625617 0.0012308222129136094 -0.006832302586625617 0.004917757926592814 0.0049407892807587315 0.0012308222129136094 0.0049407892807587315 -0.0006012260660067278" pbc="T T T"
Si       2.72818864       4.11615060       2.82147828
Si       7.75116663       4.55607011       1.58704690
Si      10.71088233       9.12768699       2.44396034
Si       5.04254832       3.67414632       2.02447811
Si       5.84982233       5.95829568       2.44971566
Si       7.26475196       9.03403235       5.61378694
Si       6.69123788       2.29715309      -1.23759448
Si       7.09958924       6.53613243       4.80427532
Si       4.69985586       0.73710767      -1.01500035
Si       8.51049158       3.86671348      -0.77843998
Si       4.27046520       5.22562454       4.30281993
Si       5.02339142       7.22190225       6.02816353
12
Lattice="7.003566033106121 1.5325425180861392 -1.7232111716837977 3.8755152349956283 6.858489524999247 1.2049851753956318 1.3885915342612944 1.9771242351433729 5.364900613531683" Properties=species:S:1:pos:R:3 unique_starting_index=78 config_type=initial n_minim_iter=5 stress="0.00017114586046480343 -0.0015129666479255025 -0.0012317866307344134 -0.0015129666479255025 0.0003863573373783256 0.0036588296102641206 -0.0012317866307344134 0.0036588296102641206 -0.0010523636706575056" pbc="T T T"
Si       2.72583146       4.14568850       2.76686109
Si       7.71263398       4.65414327       1.46545805
Si      10.68819125       9.27332851       2.24271454
Si       5.01792058       3.73700210       1.93565591
Si       5.86468259       6.01184639       2.37298633
Si       7.26545894       9.07212801       5.47956765
Si       6.66115133       2.41412413      -1.38506780
Si       7.06037754       6.59345160       4.69327172
Si       4.65246542       0.81947975      -1.10205440
Si       8.47260874       4.01655565      -0.92548023
Si       4.25985209       5.25441173       4.25691979
Si       5.00668512       7.22416560       5.98988979
12
Lattice="6.992657574203235 1.6414428165847543 -1.7487785428197442 3.946820844539813 6.8430126949400165 1.0823329237184727 1.4097976218137431 1.8841682310604297 5.353041707666731" Properties=species:S:1:pos:R:3 unique_starting_index=78 config_type=initial n_minim_iter=6 stress="-0.0024206396865815907 0.0010259655261765422 -0.00025385128111746663 0.0010259655261765422 -0.0021248902033751166 -0.0004813567958132608 -0.00025385128111746663 -0.0004813567958132608 -0.0003515875341509141" pbc="T T T"
Si       2.77379241       4.11782896       2.70412672
Si       7.73607374       4.68686281       1.39624540
Si      10.75632053       9.30435339       2.08948639
Si       5.04843567       3.73024737       1.88008188
Si       5.92103292       6.00854206       2.28767138
Si       7.36011219       8.99628280       5.33641147
Si       6.66164082       2.49833166      -1.44011855
Si       7.12047753       6.56133991       4.58843864
Si       4.63596845       0.89736821      -1.12233692
Si       8.47687345       4.12034612      -0.99117488
Si       4.31503941       5.20310164       4.18750904
Si       5.07649578       7.13408620       5.89133888
12
Lattice="6.973978796627109 1.7906561794249822 -1.8760188953839927 4.01060023302799 6.8879061469278495 0.8962634450361825 1.3556945841166943 1.8070332310529051 5.309345403102294" Properties=species:S:1:pos:R:3 unique_starting_index=78 config_type=initial n_minim_iter=7 stress="-0.004406768627429873 0.0035744924795856506 -0.002327985047700657 0.0035744924795856506 -0.0022914741179473255 -0.0022214485260284404 -0.002327985047700657 -0.0022214485260284404 -0.004273763062244053" pbc="T T T"
Si       2.78704663       4.16685891       2.58676948
Si       7.73045580       4.75456049       1.20897441
Si      10.75786795       9.43849657       1.73937018
Si       5.03647160       3.76647827       1.74699595
Si       5.95458402       6.07576575       2.16151942
Si       7.40179530       8.97889717       5.05561754
Si       6.65077598       2.60796923      -1.64152196
Si       7.11239989       6.61109814       4.34300451
Si       4.57878713       1.00558786      -1.23459879
Si       8.43914655       4.30927710      -1.18492233
Si       4.33077411       5.21454913       4.07928938
Si       5.06592917       7.08529273       5.75800586
12
Lattice="7.058516266603746 1.8446442522366349 -1.8338643419429264 4.121082667705593 6.797042099812665 0.8109998972094299 1.4503705509719012 1.6845614583883612 5.327116155929626" Properties=species:S:1:pos:R:3 unique_starting_index=78 config_type=initial n_minim_iter=8 stress="0.005402647462787856 0.0005118155842571134 0.0008894426885948978 0.0005118155842571134 -0.0028050071117271046 -0.006905245486823013 0.0008894426885948978 -0.006905245486823013 0.00448612601188477" pbc="T T T"
Si       2.89416422       4.11095633       2.57732005
Si       7.89266323       4.68105923       1.21742068
Si      10.99546661       9.28263696       1.67214621
Si       5.14597116       3.67929427       1.78272111
Si       6.09700614       6.01281663       2.15756081
Si       7.64739352       8.76094658       5.00916150
Si       6.74468490       2.59726336      -1.64179308
Si       7.32106415       6.52601161       4.28910792
Si       4.60391070       1.07575488      -1.23038640
Si       8.53255271       4.34422320      -1.17737105
Si       4.48776847       5.10657332       4.08434342
Si       5.23697212       6.90345753       5.71748280
12
Lattice="6.943445924561873 1.8261811383146842 -1.7790425073865639 4.047708191303026 6.931782401058468 1.004025676480067 1.4287748003639908 1.8538284820357829 5.392415781921386" Properties=species:S:1:pos:R:3 unique_starting_index=78 config_type=initial n_minim_iter=9 stress="0.008034660660670176 0.0007524253485887054 0.0008164497670405961 0.0007524253485887054 0.008231286195624528 0.0023088614439227204 0.0008164497670405961 0.0023088614439227204 0.0037771743285349314" pbc="T T T"
Si       2.83302526       4.29068505       2.72453671
Si       7.79432115       4.75738415       1.35479489
Si      10.81651169       9.43724774       1.88311822
Si       5.04995835       3.78376147       1.93726283
Si       6.00161453       6.19416670       2.38198597
Si       7.55272675       9.01264560       5.28035551
Si       6.64207068       2.56169251      -1.60262311
Si       7.21040936       6.78696099       4.45061372
Si       4.47188989       1.08572025      -1.22845150
Si       8.35034564       4.41387878      -1.06765946
Si       4.43652518       5.31475334       4.29319976
Si       5.14888043       7.13770457       5.95820545
12
Lattice="6.796790838503645 1.7892721369840596 -1.7763704300482759 3.95182060073293 6.847916645562368 1.0277111109962556 1.3948210210013676 1.837574329506291 5.440213011244634" Properties=species:S:1:pos:R:3 unique_starting_index=78 config_type=initial n_minim_iter=10 stress="-0.007648105689895305 -0.005268798369526143 -4.2319612839537526e-05 -0.005268798369526143 -0.007046770143916132 0.002234522497054376 -4.2319612839537526e-05 0.002234522497054376 -0.005929242006705735" pbc="T T T"
Si       2.74519676       4.27762738       2.81264842
Si       7.65300926       4.65761621       1.37590535
Si      10.59589393       9.25596352       1.87232068
Si       4.94066878       3.71893501       2.01952263
Si       5.86335861       6.14357856       2.42923525
Si       7.40771593       8.88750358       5.37450060
Si       6.52039034       2.48076274      -1.60515726
Si       7.06225098       6.75579526       4.45990616
Si       4.32432939       1.10288858      -1.24740147
Si       8.12488708       4.36772161      -1.07404990
Si       4.34610785       5.25553490       4.38338021
Si       5.02682884       7.03275921       6.00378619
12
Lattice="6.841778444620245 1.9698590662506974 -1.7363072701214857 4.117258842551415 6.966306157052613 1.005469626425865 1.4729262649078716 1.8478943560150556 5.436487024917494" Properties=species:S:1:pos:R:3 unique_starting_index=78 config_type=initial n_minim_iter=11 stress="-0.0015255026168900746 -0.0016052001230063397 0.0018381309984631423 -0.0016052001230063397 0.0014125301856672003 0.0032153800614830507 0.0018381309984631423 0.0032153800614830507 -0.003986645441445455" pbc="T T T"
Si       2.83138333       4.34514955       2.86254360
Si       7.79233285       4.84509238       1.38901260
Si      10.86265643       9.51631585       1.86055785
Si       5.06838040       3.83420337       2.05646829
Si       6.01468867       6.30139373       2.36206149
Si       7.64870073       9.09854852       5.41295376
Si       6.60910598       2.65732952      -1.52318201
Si       7.25968473       6.95422672       4.43906984
Si       4.34131555       1.25008237      -1.20152514
Si       8.21641470       4.58264283      -1.05913751
Si       4.48246836       5.32455157       4.38219355
Si       5.23426167       7.13720356       5.91363892
12
Lattice="6.852535105483847 2.2343405080991103 -1.914018477475533 4.281743221016297 7.040542494413122 0.7827956978592091 1.4334716122871651 1.7538030981001076 5.479869427893542" Properties=species:S:1:pos:R:3 unique_starting_index=78 config_type=initial n_minim_iter=12 stress="-0.0069106399818095465 0.004890257598458748 -0.0017062547197632457 0.004890257598458748 0.0009148927466842547 -0.0006014615216689099 -0.0017062547197632457 -0.0006014615216689099 -0.0012842462774233089" pbc="T T T"
Si       2.85852444       4.39217848       2.81803598
Si       7.86177068       5.00702012       1.17672657
Si      11.01984757       9.78413219       1.44234859
Si       5.12937560       3.93789402       1.94743681
Si       6.13120735       6.41105068       2.15621184
Si       7.79537024       9.17432903       5.21079905
Si       6.66373806       2.89489202      -1.72879651
Si       7.34695702       7.07980818       4.19322649
Si       4.29711817       1.44930708      -1.31667945
Si       8.24165302       4.88421773      -1.33043535
Si       4.54188775       5.30650678       4.32884528
Si       5.32569506       7.07960929       5.77314394
12
Lattice="6.897193913576646 2.1828298129966917 -1.9661589259744947 4.263495184491995 6.9729830718115196 0.7546654371863972 1.4042672325839978 1.7259565300252195 5.491956967961246" Properties=species:S:1:pos:R:3 unique_starting_index=78 config_type=initial n_minim_iter=13 stress="-0.0023403777040633383 0.0013855666687617423 -0.002316341614284633 0.0013855666687617423 0.0018438202283218212 -0.0006904184121624717 -0.002316341614284633 -0.0006904184121624717 0.0038566577234324106" pbc="T T T"
Si       2.82318202       4.33474777       2.79796064
Si       7.87978474       4.93423508       1.12650039
Si      11.02286680       9.69592133       1.38280151
Si       5.14107082       3.90493382       1.89619066
Si       6.12993536       6.30991569       2.10453262
Si       7.75368946       9.08689540       5.17805457
Si       6.70307138       2.86650783      -1.77572349
Si       7.32175102       6.95881619       4.17318090
Si       4.33481597       1.39885247      -1.32973499
Si       8.29266144       4.80329572      -1.38859371
Si       4.50630234       5.22187828       4.31455433
Si       5.29968361       6.98774881       5.76418041
12
Lattice="7.040528068926185 2.1637513815506666 -1.9507329611927944 4.354664373752744 6.85326927909058 0.7319719139932631 1.4566245417710901 1.6753996671878282 5.468585027761669" Properties=species:S:1:pos:R:3 unique_starting_index=78 config_type=initial n_minim_iter=14 stress="0.0024352511269223683 -0.0017198576170216109 -0.0033061205327846455 -0.0017198576170216109 -0.003408807342456692 -0.0007608768344690427 -0.0033061205327846455 -0.0007608768344690427 0.0024529511543600474" pbc="T T T"
Si       2.84935396       4.28659994       2.78773163
Si       8.09389473       4.82213211       1.10054760
Si      11.25975150       9.57029056       1.31699446
Si       5.27741136       3.88123580       1.89071482
Si       6.29040384       6.16789869       2.07388437
Si       7.93879259       8.94247439       5.16992802
Si       6.86128915       2.84849988      -1.79140437
Si       7.48516485       6.81866628       4.10988943
Si       4.38813371       1.37779346      -1.30616313
Si       8.46097710       4.76566570      -1.40131358
Si       4.60010716       5.08095078       4.36380154
Si       5.45804718       6.79282075       5.74989861
12
Lattice="7.077637421066782 2.1787561995771583 -1.766820009919641 4.429836284643164 6.872301198927387 0.8287744258927057 1.5965092796810492 1.6925154980782855 5.45238346057672" Properties=species:S:1:pos:R:3 unique_starting_index=78 config_type=initial n_minim_iter=15 stress="0.0040516388235172845 -0.0032912635498417676 0.002290160634631548 -0.0032912635498417676 0.001519696085417074 0.002280502479460438 0.002290160634631548 0.002280502479460438 -0.0008248210493734625" pbc="T T T"
Si       2.93050523       4.35469463       2.83381748
Si       8.25989017       4.81162832       1.26085461
Si      11.42374478       9.60806064       1.52872114
Si       5.38611678       3.93012538       2.02768044
Si       6.43568589       6.18067900       2.20980501
Si       8.15883377       8.98727802       5.34069820
Si       6.91508436       2.85196038      -1.65874077
Si       7.65978142       6.85799444       4.20242840
Si       4.36895254       1.37738850      -1.19825769
Si       8.52106493       4.82680702      -1.20982480
Si       4.73389044       5.09422901       4.51496675
Si       5.67317950       6.78367471       5.85649835
12
Lattice="7.088371969311599 2.274516074726967 -1.7783348004694755 4.502532484485693 6.908085733554631 0.7660918856388841 1.620368343926029 1.6567299749018638 5.454022618595917" Properties=species:S:1:pos:R:3 unique_starting_index=78 config_type=initial n_minim_iter=16 stress="0.0034162676638945315 0.0003239504279185418 0.0022551046337429795 0.0003239504279185418 0.0010745627427761297 -0.00011736864567670394 0.0022551046337429795 -0.00011736864567670394 0.0001769070555938459" pbc="T T T"
Si       2.97996734       4.38267821       2.80689624
Si       8.32070462       4.87191633       1.22385585
Si      11.51736024       9.70236445       1.44475100
Si       5.42663871       3.97266449       2.02134343
Si       6.50844815       6.22876371       2.16279696
Si       8.25518856       9.01613481       5.29450834
Si       6.93875990       2.93304910      -1.69923268
Si       7.72802836       6.90656573       4.13554615
Si       4.35998413       1.43475348      -1.21182459
Si       8.54958960       4.94506145      -1.25251995
Si       4.77984634       5.10262302       4.51320854
Si       5.75488096       6.77559484       5.82113655
12
Lattice="7.046795331925718 2.3440409632790953 -1.7971681783689766 4.518443600492073 6.958089866501053 0.7127973852604019 1.6156987577069637 1.634271954213588 5.4520335166233" Properties=species:S:1:pos:R:3 unique_starting_index=78 config_type=initial n_minim_iter=17 stress="-0.0006821288260849879 0.0014168175575652875 0.0019469909160227954 0.0014168175575652875 0.0023664510333357754 -0.0007768361421731299 0.0019469909160227954 -0.0007768361421731299 -0.0008159648484919719" pbc="T T T"
Si       3.00756788       4.42314493       2.77274374
Si       8.30825097       4.92615400       1.17699374
Si      11.50077372       9.77687487       1.38303211
Si       5.40328366       4.01260012       2.02285930
Si       6.50841004       6.28751673       2.10830539
Si       8.23979128       9.05726688       5.25497157
Si       6.90150054       2.98577350      -1.74628192
Si       7.70384214       6.95928833       4.07564852
Si       4.33300024       1.46138336      -1.23211318
Si       8.51144035       5.03980550      -1.29354874
Si       4.75235172       5.14314583       4.49815389
Si       5.76211968       6.80880344       5.78292926
12
Lattice="7.073901510636015 2.4520513802802006 -1.8646807524722666 4.604711248873899 6.956045137793847 0.6094854211523447 1.6119182302690096 1.5771764723472745 5.460687396322021" Properties=species:S:1:pos:R:3 unique_starting_index=78 config_type=initial n_minim_iter=18 stress="-0.004589777992172194 0.0036600039255787835 0.0014491121829428137 0.0036600039255787835 -0.003490216501037212 -0.0021612658287358264 0.0014491121829428137 -0.0021612658287358264 -0.0011987077859481115" pbc="T T T"
Si       3.06864249       4.42927074       2.72288111
Si       8.40772550       4.97725712       1.05293058
Si      11.62999174       9.81387708       1.24030184
Si       5.44313803       4.06499750       2.00981728
Si       6.58871208       6.29990810       1.95155584
Si       8.29306576       9.04594301       5.19774375
Si       6.93888217       3.07434380      -1.83504432
Si       7.74063747       6.95603778       3.96036708
Si       4.35127669       1.48900674      -1.26336921
Si       8.56979945       5.14935768      -1.40344248
Si       4.72972728       5.12790605       4.47224305
Si       5.84860318       6.78108160       5.69224525
12
Lattice="7.080094172170854 2.411496617390332 -1.9030858151653836 4.567121031152671 6.949006953666961 0.607967537478204 1.5729971160085021 1.5894420359565777 5.453860868619044" Properties=species:S:1:pos:R:3 unique_starting_index=78 config_type=initial n_minim_iter=19 stress="-0.0009398686109222631 0.0003726269737194601 -0.0021849329850410814 0.0003726269737194601 -0.00028799916178962265 -0.0002084169106534585 -0.0021849329850410814 -0.0002084169106534585 -0.0010485805095763038" pbc="T T T"
Si       3.03718761       4.42886495       2.71400203
Si       8.39320659       4.94739710       1.00737467
Si      11.58421037       9.77293730       1.20939240
Si       5.41524973       4.05779766       1.98940807
Si       6.55106036       6.28095519       1.92755124
Si       8.21902510       9.04053104       5.17631776
Si       6.93056425       3.03720636      -1.86364863
Si       7.68107025       6.93462342       3.94122879
Si       4.35791406       1.45267014      -1.28599862
Si       8.55809923       5.10290121      -1.43380604
Si       4.67480822       5.13866005       4.45164378
Si       5.78929171       6.79037780       5.67751265
12
Lattice="7.0839551663841815 2.373125361630305 -1.8679783738810385 4.55522976281781 6.926863441426898 0.6704337318378427 1.5946086338309748 1.6083417824713855 5.502328805912576" Properties=species:S:1:pos:R:3 unique_starting_index=78 config_type=initial n_minim_iter=20 stress="0.0020894789839401664 -0.00444094328031273 -0.0008239736320337435 -0.00444094328031273 0.0021691085741815945 0.003040293408024022 -0.0008239736320337435 0.003040293408024022 0.0028988251731297703" pbc="T T T"
Si       3.02681517       4.43272920       2.77453795
Si       8.46113199       4.90340722       1.04035393
Si      11.60011626       9.72476686       1.31712904
Si       5.44433486       4.08684687       2.06226477
Si       6.56740745       6.23493667       1.96689643
Si       8.22590180       9.05303731       5.32000160
Si       6.91012672       3.00827369      -1.79991485
Si       7.66898034       6.90078719       4.02752124
Si       4.33455608       1.39960832      -1.25206024
Si       8.53741204       5.05342393      -1.36868300
Si       4.65579693       5.14185913       4.54545053
Si       5.83493632       6.78007756       5.76088050
12
Lattice="7.13174748450126 2.476949992028635 -1.8662212259355502 4.6554000219720715 6.975620421417183 0.6042927554973787 1.6344952695792854 1.575595139314837 5.475816269785344" Properties=species:S:1:pos:R:3 unique_starting_index=78 config_type=initial n_minim_iter=21 stress="0.00535387728069298 -0.0011174469600637722 -0.0022939625007835085 -0.0011174469600637722 0.0023330162603078025 0.00015028026709278518 -0.0022939625007835085 0.00015028026709278518 0.0007592250357865256" pbc="T T T"
Si       3.10506930       4.45183728       2.73220443
Si       8.61312579       4.98334835       0.97220000
Si      11.77728074       9.83002233       1.24964673
Si       5.53470008       4.15774676       2.04848263
Si       6.68806424       6.28863940       1.89052822
Si       8.37807951       9.11540071       5.25020590
Si       6.92306105       3.09983161      -1.77060323
Si       7.76743711       6.95527350       3.94806517
Si       4.33508438       1.44231252      -1.25263953
Si       8.58408625       5.15633880      -1.37913743
Si       4.72601585       5.18854148       4.48709307
Si       5.98026296       6.80568853       5.66822386
