20
Lattice="10.148413202806278 2.1316282072803006e-14 1.0931784458481288e-14 5.0742066014031195 8.788783641731646 -3.30307845255089e-14 5.074206601403129 2.9295945472439096 4.564405513378153" Properties=species:S:1:pos:R:3 unique_starting_index=8 config_type=initial n_minim_iter=1 energy=-3255.340381488481 free_energy=-3255.340381488481 pbc="T T T"
Si      11.81989375       5.10430087       1.23805121
Si       9.96642531       7.68417782       1.23805121
Si       8.65892055       4.78908859       1.23805121
Si       7.93238169       5.25001664       3.63280204
Si      11.78398779       4.24463573       3.63280204
Si      10.72887015       8.08291491       3.63280204
Si       9.62035299       3.72308031       4.44508043
Si      12.26236779       6.46992992       4.44508043
Si       8.56251885       7.38455705       4.44508043
Si       6.67569594       7.19972786      -0.34155360
Si      10.72383121       2.18145834      -0.34155360
Si      13.04571246       8.19638108      -0.34155360
Si      14.33256825       6.73861456       3.24390493
Si      17.44314410       9.04306092       3.24390493
Si      13.89214708      10.58467545       3.24390493
Si      10.29898216       3.21064060       1.74368283
Si      12.36683901       7.31385988       1.74368283
Si       7.77941845       7.05306680       1.74368283
Si      15.22261981       8.78878364       0.16918391
Si      15.22261981       8.78878364       2.56506567
20
Lattice="10.152850247636284 2.3442507695296236e-14 1.095063130309429e-14 5.076425123818121 8.792626235272158 -3.3043375028630314e-14 5.076425123818131 2.9308754117574147 4.565594638514553" Properties=species:S:1:pos:R:3 unique_starting_index=8 config_type=initial n_minim_iter=2 stress="0.00023809688947970759 -8.507721605438774e-17 6.639350569067042e-17 -8.507721605438774e-17 0.0002380968894795681 1.7855060656784664e-17 6.639350569067042e-17 1.7855060656784664e-17 0.00015408317552181261" pbc="T T T"
Si      11.82514254       5.10650878       1.23840207
Si       9.97076291       7.68761945       1.23840207
Si       8.66264531       4.79112425       1.23840207
Si       7.93582147       5.25227566       3.63370374
Si      11.78918562       4.24648516       3.63370374
Si      10.73354367       8.08649165       3.63370374
Si       9.62462545       3.72477449       4.44619015
Si      12.26763844       6.47278290       4.44619015
Si       8.56628686       7.38769509       4.44619015
Si       6.67855251       7.20294287      -0.34158409
Si      10.72849274       2.18232470      -0.34158409
Si      13.05150550       8.19998490      -0.34158409
Si      14.33877627       6.74139197       3.24469697
Si      17.45094592       9.04704852       3.24469697
Si      13.89810394      10.58943822       3.24469697
Si      10.30351240       3.21201949       1.74411988
Si      12.37225382       7.31709374       1.74411988
Si       7.78278453       7.05613924       1.74411988
Si      15.22927538       8.79262624       0.16946729
Si      15.22927538       8.79262624       2.56572411
20
Lattice="10.15280870966921 3.814493050307119e-14 1.0944454129997947e-14 5.076404354834572 8.792590262337457 -3.3045915439160626e-14 5.076404354834591 2.9308634207791866 4.563961947829167" Properties=species:S:1:pos:R:3 unique_starting_index=8 config_type=initial n_minim_iter=3 stress="0.00028666813126589644 -1.5909777997255712e-16 1.1879292829088402e-17 -1.5909777997255712e-16 0.00028666813126554765 4.792605232394461e-17 1.1879292829088402e-17 4.792605232394461e-17 -0.000545892346716949" pbc="T T T"
Si      11.82894460       5.10563590       1.23926493
Si       9.96953474       7.69134857       1.23926493
Si       8.65994680       4.78819606       1.23926493
Si       7.93454664       5.25091993       3.63046241
Si      11.79091405       4.24605899       3.63046241
Si      10.73296545       8.08820160       3.63046241
Si       9.62760100       3.72722821       4.44226796
Si      12.26394261       6.47413293       4.44226796
Si       8.56688253       7.38381938       4.44226796
Si       6.67580920       7.20577513      -0.33870359
Si      10.72732851       2.17853279      -0.33870359
Si      13.05528843       8.20087261      -0.33870359
Si      14.33605686       6.73444078       3.24133851
Si      17.45820090       9.04816904       3.24133851
Si      13.89338144      10.59516097       3.24133851
Si      10.30439782       3.21132820       1.74255268
Si      12.37232672       7.31820619       1.74255268
Si       7.78170160       7.05564615       1.74255268
Si      15.22921307       8.79259026       0.17957465
Si      15.22921307       8.79259026       2.56469357
20
Lattice="10.13270484602415 6.83531560879407e-14 1.0939671985341317e-14 5.066352423012015 8.775179805706632 -3.2964383084136565e-14 5.066352423012052 2.925059935235589 4.590929779046483" Properties=species:S:1:pos:R:3 unique_starting_index=8 config_type=initial n_minim_iter=4 stress="-0.00030502289824500334 -1.5105782826161555e-16 4.1779121813660625e-17 -1.5105782826161555e-16 -0.0003050228982457692 2.4043065148005257e-16 4.1779121813660625e-17 2.4043065148005257e-16 0.0009888584178320695" pbc="T T T"
Si      11.81341578       5.09372557       1.24905411
Si       9.94740607       7.68385538       1.24905411
Si       8.63729271       4.77277866       1.24905411
Si       7.91616332       5.23742688       3.64821183
Si      11.77158332       4.23688509       3.64821183
Si      10.71036792       8.07604765       3.64821183
Si       9.61409628       3.72447203       4.46420056
Si      12.23287417       6.46381560       4.46420056
Si       8.55114410       7.36207199       4.46420056
Si       6.65745747       7.19661887      -0.33567248
Si      10.70422620       2.16721786      -0.33567248
Si      13.03643088       8.18652289      -0.33567248
Si      14.30289519       6.70824053       3.25556590
Si      17.43716024       9.03255032       3.25556590
Si      13.85711639      10.58474857       3.25556590
Si      10.28578372       3.20409556       1.75105835
Si      12.34768969       7.30570222       1.75105835
Si       7.76464114       7.04056184       1.75105835
Si      15.19905727       8.77517981       0.19962710
Si      15.19905727       8.77517981       2.58256377
20
Lattice="10.14631419141542 7.676422497867749e-14 1.095337487998657e-14 5.073157095707641 8.786965844544355 -3.3023208145277386e-14 5.073157095707683 2.928988614848167 4.571544084232199" Properties=species:S:1:pos:R:3 unique_starting_index=8 config_type=initial n_minim_iter=5 stress="0.0002156243666631839 -6.761371503049205e-16 5.677389730247834e-17 -6.761371503049205e-16 0.00021562436666269576 1.2840121195215013e-16 5.677389730247834e-17 1.2840121195215013e-16 -0.001075315189056186" pbc="T T T"
Si      11.83243250       5.09908908       1.24488135
Si       9.96047146       7.69764259       1.24488135
Si       8.64603863       4.77720002       1.24488135
Si       7.92615754       5.24237383       3.63115675
Si      11.78952070       4.24306687       3.63115675
Si      10.72326434       8.08849099       3.63115675
Si       9.62754716       3.72961438       4.44465810
Si      12.24891401       6.47289323       4.44465810
Si       8.56248141       7.37142409       4.44465810
Si       6.66649939       7.20653053      -0.33271402
Si      10.71834018       2.17009256      -0.33271402
Si      13.05410301       8.19730860      -0.33271402
Si      14.32113730       6.71487382       3.23948827
Si      17.46312262       9.04503180       3.23948827
Si      13.87415395      10.60099192       3.23948827
Si      10.30075538       3.20872418       1.74225148
Si      12.36341404       7.31635375       1.74225148
Si       7.77477316       7.04885376       1.74225148
Si      15.21947129       8.78696585       0.20360348
Si      15.21947129       8.78696585       2.57716814
20
Lattice="10.13016507544923 1.8486515475031906e-13 1.0936182214033419e-14 5.065082537724452 8.772980299869028 -3.298087995111367e-14 5.0650825377245585 2.924326766623093 4.608171369070237" Properties=species:S:1:pos:R:3 unique_starting_index=8 config_type=initial n_minim_iter=6 stress="0.0006146094148301939 -4.683697271373331e-16 -1.6178878591351432e-16 -4.683697271373331e-16 0.0006146094148292222 1.0810014094175443e-16 -1.6178878591351432e-16 1.0810014094175443e-16 0.00023470784014512094" pbc="T T T"
Si      11.85436241       5.07418859       1.26913842
Si       9.93877273       7.72908470       1.26913842
Si       8.59736010       4.74268731       1.26913842
Si       7.90468878       5.20934099       3.64305188
Si      11.79656413       4.24099080       3.64305188
Si      10.68924233       8.09562881       3.64305188
Si       9.62023411       3.72697742       4.47111031
Si      12.22255598       6.46787842       4.47111031
Si       8.54770515       7.35110477       4.47111031
Si       6.65377235       7.19877483      -0.32019582
Si      10.69912210       2.16294847      -0.32019582
Si      13.03760079       8.18423730      -0.32019582
Si      14.28720309       6.67537995       3.23482305
Si      17.46584507       9.03539085       3.23482305
Si      13.83269469      10.60817010       3.23482305
Si      10.29657840       3.21185606       1.74072964
Si      12.33049201       7.31117043       1.74072964
Si       7.76342482       7.02293410       1.74072964
Si      15.19524762       8.77298030       0.26089522
Si      15.19524762       8.77298030       2.67112622
20
Lattice="10.103207151325151 3.3541452157325534e-13 1.0946863790243333e-14 5.051603575662285 8.749634052744364 -3.29059435027233e-14 5.051603575662478 2.916544684248256 4.650722938241502" Properties=species:S:1:pos:R:3 unique_starting_index=8 config_type=initial n_minim_iter=7 stress="0.0002372852074753144 -2.6134584675740028e-17 -8.055242430130244e-17 -2.6134584675740028e-17 0.00023728520747455395 2.6633775401383553e-16 -8.055242430130244e-17 2.6633775401383553e-16 1.601499051044863e-06" pbc="T T T"
Si      11.87563860       5.04114423       1.30232318
Si       9.90283604       7.76403260       1.30232318
Si       8.53114683       4.69409128       1.30232318
Si       7.87289670       5.16865538       3.65650680
Si      11.79377910       4.23380085       3.65650680
Si      10.64294567       8.09681188       3.65650680
Si       9.61013190       3.72575373       4.49632642
Si      12.17475097       6.45974149       4.49632642
Si       8.52473859       7.31377288       4.49632642
Si       6.62742656       7.19041686      -0.30342096
Si      10.66561737       2.14431133      -0.30342096
Si      13.01657754       8.16453992      -0.30342096
Si      14.23112841       6.61349754       3.22749650
Si      17.46660038       9.01776996       3.22749650
Si      13.76670340      10.61763467       3.22749650
Si      10.28346380       3.21428703       1.73758540
Si      12.28102819       7.29859737       1.73758540
Si       7.74512948       6.98638371       1.73758540
Si      15.15481073       8.74963405       0.34481719
Si      15.15481073       8.74963405       2.76869508
20
Lattice="10.037794229855896 6.21740399166819e-13 1.111554075390194e-14 5.018897114927411 8.692984801016374 -3.2523608328769095e-14 5.01889711492777 2.8976616003390214 4.75945488050378" Properties=species:S:1:pos:R:3 unique_starting_index=8 config_type=initial n_minim_iter=8 stress="-0.00025115408819057026 -5.0757768837851654e-17 2.2516194109268354e-17 -5.0757768837851654e-17 -0.00025115408819057026 3.8319903980403893e-16 2.2516194109268354e-17 3.8319903980403893e-16 0.002022784506688167" pbc="T T T"
Si      11.91640083       4.96664471       1.39841505
Si       9.81614756       7.83658348       1.39841505
Si       8.38083431       4.58274141       1.39841505
Si       7.80703811       5.08981570       3.71555128
Si      11.76415971       4.21618548       3.71555128
Si      10.54218488       8.07996843       3.71555128
Si       9.57617915       3.71292201       4.56174173
Si      12.07201411       6.43675341       4.56174173
Si       8.46518944       7.23629419       4.56174173
Si       6.56999952       7.16515985      -0.28629936
Si      10.58537825       2.10720656      -0.28629936
Si      12.95800493       8.11360319      -0.28629936
Si      14.10199527       6.49641360       3.22759427
Si      17.43632585       8.96447934       3.22759427
Si      13.63175293      10.61806146       3.22759427
Si      10.24373959       3.23893603       1.73192220
Si      12.14871778       7.25187070       1.73192220
Si       7.72092533       6.89516288       1.73192220
Si      15.05669135       8.69298480       0.51210558
Si      15.05669135       8.69298480       2.96801155
20
Lattice="9.984069541175366 8.183875133740452e-13 1.1383392751867328e-14 4.992034770586974 8.646457855808725 -3.181197462055833e-14 4.9920347705874475 2.882152618603205 4.845128739482176" Properties=species:S:1:pos:R:3 unique_starting_index=8 config_type=initial n_minim_iter=9 stress="-0.0005622603182685781 -2.4600706589486667e-16 -1.930169517302115e-16 -2.4600706589486667e-16 -0.0005622603182690538 3.039573274299801e-16 -1.930169517302115e-16 3.039573274299801e-16 0.0037331356557246953" pbc="T T T"
Si      11.94813503       4.90746022       1.48967567
Si       9.74408635       7.89365835       1.48967567
Si       8.25998725       4.49179714       1.48967567
Si       7.75933901       5.03658491       3.77606424
Si      11.72665911       4.20149225       3.77606424
Si      10.46621052       8.05483856       3.77606424
Si       9.54344285       3.69626713       4.60865549
Si      11.99535643       6.41673038       4.60865549
Si       8.41340935       7.17991820       4.60865549
Si       6.52627238       7.14282570      -0.28632076
Si      10.51913439       2.08050482      -0.28632076
Si      12.90680187       8.06958519      -0.28632076
Si      13.99871504       6.41817688       3.23150555
Si      17.39454689       8.91415441       3.23150555
Si      13.53505102      10.60704228       3.23150555
Si      10.20735544       3.27259389       1.72259383
Si      12.03031193       7.20353217       1.72259383
Si       7.71454127       6.81678966       1.72259383
Si      14.97610432       8.64645786       0.63198069
Si      14.97610432       8.64645786       3.10590987
20
Lattice="9.944403155946546 8.321548760530509e-13 1.1297124536652243e-14 4.97220157797255 8.612105758524276 -3.132762315067862e-14 4.972201577973033 2.870701919508392 4.889923861066989" Properties=species:S:1:pos:R:3 unique_starting_index=8 config_type=initial n_minim_iter=10 stress="-0.0062268964851248205 -7.010644634151254e-16 -9.402187263285173e-17 -7.010644634151254e-16 -0.006226896485125499 2.7757856392692733e-16 -9.402187263285173e-17 2.7757856392692733e-16 0.006120958012798712" pbc="T T T"
Si      11.94990751       4.87611827       1.56886531
Si       9.69101027       7.91086435       1.56886531
Si       8.19229169       4.43722891       1.56886531
Si       7.74282991       5.03394990       3.85109830
Si      11.65786286       4.18851245       3.85109830
Si      10.43251670       8.00174917       3.85109830
Si       9.50363125       3.66719439       4.62785820
Si      11.96110719       6.39678890       4.62785820
Si       8.36847103       7.16022824       4.62785820
Si       6.50420718       7.11967652      -0.32747375
Si      10.47088200       2.07297039      -0.32747375
Si      12.85812030       8.03156461      -0.32747375
Si      13.93480085       6.41604172       3.25651014
Si      17.30935393       8.85987067       3.25651014
Si      13.50565943      10.56040489       3.25651014
Si      10.16633932       3.32514542       1.71177573
Si      11.92597626       7.14173540       1.71177573
Si       7.74089390       6.75733070       1.71177573
Si      14.91660474       8.61210576       0.63470152
Si      14.91660474       8.61210576       3.10171190
20
Lattice="10.004439794514099 8.305186188642574e-13 1.1500446471804238e-14 5.002219897256326 8.664099012681607 -3.146075048459386e-14 5.0022198972568095 2.8880330042274993 4.845942221762441" Properties=species:S:1:pos:R:3 unique_starting_index=8 config_type=initial n_minim_iter=11 stress="-0.0029689735588019103 -6.240413013694996e-16 -2.3080522125083093e-17 -6.240413013694996e-16 -0.0029689735588021133 8.277610519617469e-17 -2.3080522125083093e-17 8.277610519617469e-17 0.0006204656047268444" pbc="T T T"
Si      12.07181905       4.89026845       1.61855185
Si       9.73787336       8.00936774       1.61855185
Si       8.20362698       4.42856184       1.61855185
Si       7.80505590       5.08417326       3.86443396
Si      11.70332845       4.21729006       3.86443396
Si      10.50493505       8.02673471       3.86443396
Si       9.54924899       3.66394993       4.57266366
Si      12.06118138       6.43791725       4.57266366
Si       8.40288902       7.22633085       4.57266366
Si       6.55643831       7.16269207      -0.36633631
Si      10.52758715       2.09669610      -0.36633631
Si      12.92929393       8.06880986      -0.36633631
Si      14.01625803       6.49494121       3.22785674
Si      17.38040629       8.89096491       3.22785674
Si      13.62331477      10.60639092       3.22785674
Si      10.22902935       3.41128843       1.66333150
Si      11.94010248       7.15295506       1.66333150
Si       7.84418756       6.76395454       1.66333150
Si      15.00665970       8.66409901       0.59271425
Si      15.00665970       8.66409901       3.03814650
20
Lattice="10.057795656935875 7.605724001536627e-13 1.1529350955204995e-14 5.028897828467275 8.710306544979655 -3.180002900181249e-14 5.028897828467718 2.9034355149934923 4.822922577884096" Properties=species:S:1:pos:R:3 unique_starting_index=8 config_type=initial n_minim_iter=12 stress="0.0005792785826642615 -6.7579178401406e-16 -1.2873345751528513e-16 -6.7579178401406e-16 0.0005792785826642615 1.316658315226964e-16 -1.2873345751528513e-16 1.316658315226964e-16 -0.0010989319190701555" pbc="T T T"
Si      12.15894854       4.90907563       1.65000265
Si       9.78473285       8.07542050       1.65000265
Si       8.22970560       4.43611696       1.65000265
Si       7.86057604       5.13958413       3.90172497
Si      11.73429288       4.23766647       3.90172497
Si      10.57851806       8.04336249       3.90172497
Si       9.57929019       3.65423882       4.55651050
Si      12.16128257       6.46878924       4.55651050
Si       8.43281422       7.29758502       4.55651050
Si       6.61079351       7.19752965      -0.39971648
Si      10.57695105       2.12635029      -0.39971648
Si      12.98564242       8.09673315      -0.39971648
Si      14.09737093       6.58137929       3.23358894
Si      17.42505985       8.91799171       3.23358894
Si      13.73764968      10.63154864       3.23358894
Si      10.28277275       3.47127800       1.62398014
Si      11.96799001       7.16950342       1.62398014
Si       7.92262422       6.77983167       1.62398014
Si      15.08669349       8.71030655       0.50536767
Si      15.08669349       8.71030655       2.94369248
20
Lattice="10.052438755926481 8.430073035077697e-13 1.1684178853183615e-14 5.026219377962506 8.705667332619997 -3.173177686886887e-14 5.026219377962999 2.9018891108736344 4.874014377564016" Properties=species:S:1:pos:R:3 unique_starting_index=8 config_type=initial n_minim_iter=13 stress="0.007531125436780193 -9.13258195160393e-16 2.344428044391152e-16 -9.13258195160393e-16 0.007531125436779661 8.186412874261727e-17 2.344428044391152e-16 8.186412874261727e-17 0.0006467924293417323" pbc="T T T"
Si      12.24300589       4.87394335       1.74275293
Si       9.76241581       8.16578244       1.74275293
Si       8.15189457       4.37160887       1.74275293
Si       7.85686730       5.13819133       3.98697830
Si      11.72663965       4.23515101       3.98697830
Si      10.57380933       8.03799233       3.98697830
Si       9.56600807       3.62853730       4.59553326
Si      12.17946800       6.47013735       4.59553326
Si       8.41184021       7.31266002       4.59553326
Si       6.62200855       7.20410926      -0.41561377
Si      10.55493161       2.13277300      -0.41561377
Si      12.98037611       8.07445241      -0.41561377
Si      14.07505591       6.58163783       3.25028879
Si      17.41992276       8.89853707       3.25028879
Si      13.74099574      10.63682711       3.25028879
Si      10.29588482       3.52480053       1.57184887
Si      11.90436830       7.15409754       1.57184887
Si       7.95706315       6.73243660       1.57184887
Si      15.07865814       8.70566733       0.50379518
Si      15.07865814       8.70566733       2.94762898
20
Lattice="10.027153918155337 7.558856273175365e-13 1.1638747697214134e-14 5.013576959077009 8.683770020779573 -3.1331788939705875e-14 5.013576959077451 2.894590006926796 4.884046986930443" Properties=species:S:1:pos:R:3 unique_starting_index=8 config_type=initial n_minim_iter=14 stress="0.006093771527039935 -6.722781795838864e-16 4.0342493600389024e-16 -6.722781795838864e-16 0.0060937715270396675 8.624760933313755e-17 4.0342493600389024e-16 8.624760933313755e-17 -0.002989141611476573" pbc="T T T"
Si      12.22168775       4.85844921       1.76059716
Si       9.73592353       8.15506747       1.76059716
Si       8.12385048       4.35402337       1.76059716
Si       7.83605179       5.14542306       4.04206167
Si      11.68021487       4.21350839       4.04206167
Si      10.56519511       8.00860860       4.04206167
Si       9.51875099       3.59691650       4.63645365
Si      12.17991128       6.44502192       4.63645365
Si       8.38279949       7.32560162       4.63645365
Si       6.62814370       7.18646257      -0.41720660
Si      10.51657684       2.14690954      -0.41720660
Si      12.93674122       8.03416794      -0.41720660
Si      14.04607154       6.58938382       3.28715526
Si      17.35185221       8.86956287       3.28715526
Si      13.72426889      10.59236338       3.28715526
Si      10.27571391       3.51116553       1.53007080
Si      11.87569234       7.14344652       1.53007080
Si       7.93005551       6.71292799       1.53007080
Si      15.04073088       8.68377002       0.40217609
Si      15.04073088       8.68377002       2.82529285
20
Lattice="9.911827301712552 7.763144220040205e-13 1.2085760212156227e-14 4.9559136508556 8.583894241207629 -3.044668367947915e-14 4.955913650856055 2.8612980804028214 4.984145913941512" Properties=species:S:1:pos:R:3 unique_starting_index=8 config_type=initial n_minim_iter=15 stress="0.001806957002062829 -3.298821805343597e-16 6.110950482881636e-16 -3.298821805343597e-16 0.001806957002062762 6.050498175824396e-16 6.110950482881636e-16 6.050498175824396e-16 -0.0014112235977594425" pbc="T T T"
Si      12.12192597       4.79213113       1.82488087
Si       9.61258433       8.10183027       1.82488087
Si       8.00097162       4.27382709       1.82488087
Si       7.73201572       5.07990592       4.14304108
Si      11.55831918       4.15616907       4.14304108
Si      10.44514702       7.93171349       4.14304108
Si       9.40012486       3.54827338       4.76044416
Si      12.05069729       6.36661024       4.76044416
Si       8.28465976       7.25290487       4.76044416
Si       6.56840361       7.11145839      -0.39965454
Si      10.38074918       2.13267519      -0.39965454
Si      12.78632912       7.92365490      -0.39965454
Si      13.87705817       6.48864354       3.35259409
Si      17.17762268       8.77356313       3.35259409
Si      13.54854202      10.48947605       3.35259409
Si      10.17308277       3.45928401       1.50199360
Si      11.74128539       7.08050611       1.50199360
Si       7.82111375       6.62799836       1.50199360
Si      14.86774096       8.58389424       0.37766109
Si      14.86774096       8.58389424       2.79584069
20
Lattice="9.803902141740538 8.303337806018351e-13 1.2430045597951374e-14 4.901951070869545 8.490428310964392 -2.95154804747142e-14 4.901951070870031 2.8301427703217605 5.070442909477783" Properties=species:S:1:pos:R:3 unique_starting_index=8 config_type=initial n_minim_iter=16 stress="-0.0036912368661987764 -1.2843948368218046e-16 5.940100275337058e-16 -1.2843948368218046e-16 -0.0036912368661995844 5.244651133773367e-16 5.940100275337058e-16 5.244651133773367e-16 0.0015046761984448742" pbc="T T T"
Si      12.01363009       4.74567230       1.87700157
Si       9.49111648       8.03127270       1.87700157
Si       7.90695987       4.20391163       1.87700157
Si       7.63621423       5.00385769       4.18940784
Si      11.45622930       4.11122667       4.18940784
Si      10.31926291       7.86577227       4.18940784
Si       9.30313995       3.51846086       4.86880704
Si      11.90915782       6.29752510       4.86880704
Si       8.19940866       7.16487066       4.86880704
Si       6.50344609       7.03412508      -0.38732688
Si      10.26435024       2.11508698      -0.38732688
Si      12.64391011       7.83164456      -0.38732688
Si      13.71631269       6.37272015       3.38272109
Si      17.03461254       8.69231516       3.38272109
Si      13.36663441      10.40624963       3.38272109
Si      10.06869053       3.41182887       1.51272489
Si      11.61872854       7.01382735       1.51272489
Si       7.72428736       6.55520040       1.51272489
Si      14.70585322       8.49042831       0.41206693
Si      14.70585322       8.49042831       2.82493749
20
Lattice="9.80600693506161 8.170908696990043e-13 1.3007597146197627e-14 4.903003467530093 8.492251115450154 -2.8825222727452606e-14 4.903003467530575 2.83075037181701 5.07648096005914" Properties=species:S:1:pos:R:3 unique_starting_index=8 config_type=initial n_minim_iter=17 stress="-0.0010885599762753117 -2.251876223106652e-16 8.512943778656044e-16 -2.251876223106652e-16 -0.001088559976275715 5.298218253391465e-16 8.512943778656044e-16 5.298218253391465e-16 0.0015844456534532987" pbc="T T T"
Si      12.03313563       4.76470086       1.92859375
Si       9.46909407       8.03865071       1.92859375
Si       7.91579111       4.18115066       1.92859375
Si       7.64685308       5.01188386       4.19785458
Si      11.44816859       4.11642709       4.19785458
Si      10.32299915       7.85619128       4.19785458
Si       9.30066051       3.50941224       4.90426629
Si      11.92244347       6.29990216       4.90426629
Si       8.19491683       7.17518784       4.90426629
Si       6.52249107       7.02524250      -0.41941343
Si      10.26672987       2.13602171      -0.41941343
Si      12.62879988       7.82323802      -0.41941343
Si      13.71456499       6.37154953       3.37328692
Si      17.04281456       8.69138691       3.37328692
Si      13.36965167      10.41381690       3.37328692
Si      10.06729110       3.44314995       1.51397334
Si      11.59651300       6.99695486       1.51397334
Si       7.75421672       6.54439742       1.51397334
Si      14.70901041       8.49225112       0.37882264
Si      14.70901041       8.49225112       2.75153013
20
Lattice="9.805710344219877 7.706795816331246e-13 1.380881121726633e-14 4.902855172109264 8.49199426024666 -2.908421885096192e-14 4.902855172109721 2.8306647534158302 5.07353538605791" Properties=species:S:1:pos:R:3 unique_starting_index=8 config_type=initial n_minim_iter=18 stress="0.0016948952041788254 -8.525833334109509e-17 8.976116682990775e-16 -8.525833334109509e-17 0.001694895204178018 7.62989180895218e-16 8.976116682990775e-16 7.62989180895218e-16 -0.000497100912394408" pbc="T T T"
Si      12.06133401       4.77685859       1.98742993
Si       9.44387280       8.05699236       1.98742993
Si       7.91192423       4.15013758       1.98742993
Si       7.65988225       5.02253493       4.21801216
Si      11.43183673       4.12238515       4.21801216
Si      10.32541207       7.83906844       4.21801216
Si       9.28274292       3.48302208       4.94271512
Si      11.95366363       6.29758014       4.94271512
Si       8.18072449       7.20338630       4.94271512
Si       6.55496357       7.00574539      -0.45255811
Si      10.26678543       2.17389227      -0.45255811
Si      12.59538205       7.80435086      -0.45255811
Si      13.71063730       6.38901933       3.35733584
Si      17.02875934       8.67925054       3.35733584
Si      13.38629992      10.40771291       3.35733584
Si      10.07372575       3.48329269       1.49210651
Si      11.55793787       6.98245606       1.49210651
Si       7.78546743       6.51823977       1.49210651
Si      14.70856552       8.49199426       0.28967935
Si      14.70856552       8.49199426       2.67243843
20
Lattice="9.77586446797774 7.326642601737921e-13 1.5142862503145205e-14 4.887932233988229 8.46614697322274 -2.8404905576544008e-14 4.887932233988666 2.8220489910745115 5.0902176874662315" Properties=species:S:1:pos:R:3 unique_starting_index=8 config_type=initial n_minim_iter=19 stress="-0.0021796655742222035 -1.7510765291905095e-16 9.912120390611946e-16 -1.7510765291905095e-16 -0.002179665574223485 6.09172627511657e-16 9.912120390611946e-16 6.09172627511657e-16 0.002237595817921338" pbc="T T T"
Si      12.02588236       4.77550815       1.99846960
Si       9.40307639       8.02696556       1.99846960
Si       7.89863466       4.12982025       1.99846960
Si       7.65236918       5.02269998       4.24855591
Si      11.37575857       4.11579612       4.24855591
Si      10.29946566       7.79379785       4.24855591
Si       9.25084169       3.45826377       4.96574446
Si      11.93136382       6.28233202       4.96574446
Si       8.14538791       7.19169816       4.96574446
Si       6.54158448       6.96933975      -0.45329100
Si      10.24531143       2.18050847      -0.45329100
Si      12.54069750       7.78244573      -0.45329100
Si      13.65550558       6.38297187       3.35505235
Si      16.97202483       8.63452880       3.35505235
Si      13.36385970      10.38094025       3.35505235
Si      10.06367143       3.48829728       1.50198749
Si      11.49893917       6.97124648       1.50198749
Si       7.76498281       6.47275020       1.50198749
Si      14.66379671       8.46614697       0.23311600
Si      14.66379671       8.46614697       2.67765048
20