6
Lattice="3.9624034114646127 -0.4311774235543829 0.16633366309776507 -1.415217388267125 5.476265187970783 -0.4906865159127459 -1.148280203768657 -1.3229587503701434 5.273884944334696" Properties=species:S:1:pos:R:3 unique_starting_index=56 config_type=initial n_minim_iter=13 energy=-977.5921730208703 free_energy=-977.5921730208703 pbc="T T T"
Si      -1.25955022       4.61923099       3.02385630
Si       1.44365535       3.69939376       0.16421171
Si      -0.47567913       5.01566550       0.84376347
Si      -0.68257231       2.34761588       3.23594349
Si       2.19877033       0.02652424       4.35999744
Si       0.35986403       1.81069340       1.12141136
