10
Lattice="3.466159556792247 0.17795594005064763 1.5098003456879605 2.2490620587728403 6.292677581071693 3.0567473187891525 3.5928614457311725 8.056565611395303 13.762728188988728" Properties=species:S:1:pos:R:3 unique_starting_index=160 config_type=initial n_minim_iter=17 energy=-1630.2946631488323 free_energy=-1630.2946631488323 pbc="T T T"
Si       6.86685574      12.68780899      16.11077584
Si       8.00577668      12.60353161      14.03992490
Si       3.39533811       1.25854849       4.85178237
Si       4.67320416       4.18735471       7.51807120
Si       3.22121715       5.25065653       5.96772440
Si       4.26077779       4.86355333       9.79923684
Si       4.53429032       5.61313987       3.98161646
Si       5.97939691       9.70032663      14.64408463
Si       3.61043060       2.35148207       2.76806763
Si       3.36183317       7.98595970       8.34790374
