18
Lattice="5.7343895480671385 1.2412863675746193 -0.3751358208724811 4.137129428738492 10.234021320063592 -2.1443978700665687 1.7850488078730748 -0.5599885634949227 7.490569864689892" Properties=species:S:1:pos:R:3 unique_starting_index=194 config_type=initial n_minim_iter=1 energy=-2930.1486991186 free_energy=-2930.1486991186 pbc="T T T"
Si       6.10383504       1.64207759       0.33248002
Si       6.90666132       5.50171052       6.44642293
Si       5.30855226       3.68576378       1.30966866
Si       2.58796465       0.99342662       5.73353126
Si       7.18420043       9.05751293       2.72804018
Si       7.14288511      11.45501786       0.16207533
Si       4.30977218       2.29367005      -1.10860113
Si       2.68406977       2.77349788       4.06547898
Si       4.80607101       7.54573150       0.71632852
Si       5.55674878       9.72311546       0.56037132
Si       2.23886994       1.95701489       0.14455127
Si       6.49368615       5.32821976       4.12520915
Si       7.05498820       5.43469435       0.30307348
Si       3.63036121       4.40719675      -0.21926727
Si       6.47509771       6.82613300       2.27314194
Si       8.69025623       9.92738080       1.17206095
Si       5.79706469       1.54554768       4.05847166
Si       4.87379021       3.66032637       3.63060749
18
Lattice="5.733797314118757 1.2405875972803657 -0.3808412918391723 4.1391084050099645 10.228382021860233 -2.1398266839357913 1.7756483074944995 -0.5536848903803462 7.483430115701706" Properties=species:S:1:pos:R:3 unique_starting_index=194 config_type=initial n_minim_iter=2 stress="-0.00035071157800229156 3.8271000115600536e-05 -3.901108974922172e-06 3.8271000115600536e-05 -0.00024463142084889467 5.2673830568037485e-05 -3.901108974922172e-06 5.2673830568037485e-05 -0.0004355242039768667" pbc="T T T"
Si       6.10220641       1.64182706       0.32634133
Si       6.89768339       5.50501233       6.43856117
Si       5.30607036       3.68549222       1.30546279
Si       2.58069504       0.99780082       5.72784912
Si       7.17961155       9.05649643       2.72480919
Si       7.14160362      11.45077207       0.16231357
Si       4.31048885       2.29177267      -1.11151974
Si       2.67860705       2.77562079       4.06213045
Si       4.80448635       7.54337136       0.71625092
Si       5.55544350       9.72002603       0.56124421
Si       2.23847737       1.95646703       0.14334130
Si       6.48745175       5.32945815       4.11929040
Si       7.05345432       5.43264187       0.29860130
Si       3.63000548       4.40529858      -0.21982988
Si       6.47111493       6.82568182       2.26949383
Si       8.68713870       9.92459174       1.16900600
Si       5.79084316       1.54834499       4.05037117
Si       4.86866039       3.66196344       3.62540227
18
Lattice="5.736784116675237 1.2405371017290254 -0.38295423526286687 4.141423335914808 10.230595542367903 -2.1407561584020773 1.7738105106683757 -0.5526889378064618 7.486535403008221" Properties=species:S:1:pos:R:3 unique_starting_index=194 config_type=initial n_minim_iter=3 stress="0.0003179056572651987 -1.9757442033697362e-05 -0.0002301368996813037 -1.9757442033697362e-05 0.0004198154817116575 0.0001921255200650967 -0.0002301368996813037 0.0001921255200650967 0.0002847518210111906" pbc="T T T"
Si       6.10494596       1.64204155       0.32469166
Si       6.89847506       5.50742243       6.44018102
Si       5.30819721       3.68639517       1.30485982
Si       2.57999078       0.99891348       5.73015115
Si       7.18163591       9.05927445       2.72480652
Si       7.14460151      11.45354944       0.16133381
Si       4.31308303       2.29176366      -1.11357727
Si       2.67820459       2.77678323       4.06377481
Si       4.80618115       7.54517184       0.71610295
Si       5.55781643       9.72265139       0.56128986
Si       2.23972173       1.95701747       0.14288200
Si       6.48878928       5.33103192       4.12004261
Si       7.05674413       5.43339104       0.29689632
Si       3.63156842       4.40618697      -0.22044656
Si       6.47309133       6.82789653       2.26945829
Si       8.69032267       9.92688527       1.16822620
Si       5.79192671       1.54909825       4.05065079
Si       4.86966356       3.66338306       3.62595169
18
Lattice="5.738600476084927 1.238435194720136 -0.3850039613289211 4.141992201660013 10.21834958758951 -2.1469875547296717 1.7727062111324163 -0.5552155737442831 7.490442040742777" Properties=species:S:1:pos:R:3 unique_starting_index=194 config_type=initial n_minim_iter=4 stress="0.0003272792741911607 -0.00011191052551461829 -0.0002658666547269419 -0.00011191052551461829 -0.0005535613175587479 -0.00015178573585178598 -0.0002658666547269419 -0.00015178573585178598 0.00042189258895735976" pbc="T T T"
Si       6.10564925       1.63970118       0.32399270
Si       6.89832117       5.49871665       6.43961844
Si       5.31008265       3.68041203       1.30339599
Si       2.58040975       0.99516620       5.73327349
Si       7.18154208       9.04793359       2.71915246
Si       7.14592004      11.43870454       0.15310779
Si       4.31521600       2.28759118      -1.11786467
Si       2.67712395       2.77058918       4.06467392
Si       4.80606211       7.53428208       0.71227733
Si       5.56022817       9.71107444       0.55799709
Si       2.24205708       1.95513685       0.14136825
Si       6.48850484       5.32055084       4.11956520
Si       7.05911968       5.42304122       0.29231275
Si       3.63150299       4.39979416      -0.22256786
Si       6.47335940       6.81996684       2.26679411
Si       8.69021113       9.91210940       1.16411458
Si       5.79095567       1.54462343       4.05125604
Si       4.87042032       3.65730719       3.62433743
18
Lattice="5.735393427186726 1.2415575123994131 -0.3811579094751836 4.141420428745484 10.231710992387626 -2.139341958323263 1.7755470147674428 -0.5526118206760774 7.48560741512899" Properties=species:S:1:pos:R:3 unique_starting_index=194 config_type=initial n_minim_iter=5 stress="-3.9264193780954474e-05 6.953286413184266e-05 -1.4247059315889043e-05 6.953286413184266e-05 0.00030856532892604375 4.667083255890319e-06 -1.4247059315889043e-05 4.667083255890319e-06 -0.00015552387123026032" pbc="T T T"
Si       6.10121503       1.64442944       0.32965835
Si       6.89906690       5.51229556       6.44017140
Si       5.31009456       3.68688056       1.30757179
Si       2.58391410       0.99955159       5.73252398
Si       7.18036952       9.06543262       2.72136447
Si       7.14604694      11.45574572       0.15784858
Si       4.31402954       2.28927672      -1.11666827
Si       2.67769123       2.77519414       4.06467235
Si       4.80473202       7.54457519       0.71719876
Si       5.56304120       9.72728872       0.56696194
Si       2.24454106       1.95946068       0.14255854
Si       6.48745110       5.32874762       4.12331055
Si       7.05778808       5.42823375       0.29661751
Si       3.62951259       4.40548616      -0.21782242
Si       6.47204103       6.83447945       2.27174394
Si       8.68650159       9.92583380       1.17340619
Si       5.78759761       1.54932651       4.05237369
Si       4.87094317       3.66541386       3.62393838
18
Lattice="5.734792808850608 1.2372027045456966 -0.37796225482209606 4.135994038398191 10.215799221258202 -2.1312470593622503 1.7791671307850496 -0.5465884239313906 7.493423602133378" Properties=species:S:1:pos:R:3 unique_starting_index=194 config_type=initial n_minim_iter=6 stress="-0.0003035565684314724 -0.0003155270212109451 0.0002516835946316042 -0.0003155270212109451 -0.0005194630783022353 0.0003253478407475934 0.0002516835946316042 0.0003253478407475934 0.00047561783275644807" pbc="T T T"
Si       6.09984880       1.64042972       0.33651749
Si       6.89923434       5.50883719       6.45431190
Si       5.31029141       3.68142251       1.31450649
Si       2.58799386       1.00221507       5.74269740
Si       7.17500968       9.05587514       2.73247844
Si       7.14259984      11.43981659       0.16807370
Si       4.31407130       2.28228190      -1.11646569
Si       2.67823350       2.77274502       4.07200472
Si       4.80034605       7.53488513       0.72680100
Si       5.56153534       9.71439768       0.58164007
Si       2.24709445       1.95653620       0.14365752
Si       6.48616245       5.32218728       4.13475914
Si       7.05542966       5.41630389       0.30404063
Si       3.62785299       4.39734192      -0.21218326
Si       6.46962859       6.82705605       2.28359775
Si       8.68195776       9.90988506       1.18677724
Si       5.78582003       1.54720725       4.05949926
Si       4.86995722       3.66176120       3.63156249
18
Lattice="5.745974749013141 1.2405716234552895 -0.3816130827796809 4.151950754130272 10.21080139233399 -2.1399619358777695 1.7780923840776104 -0.5503396483994789 7.489301545507981" Properties=species:S:1:pos:R:3 unique_starting_index=194 config_type=initial n_minim_iter=7 stress="0.00042377687255688585 0.0002804849808016249 -5.8933152268095925e-05 0.0002804849808016249 -0.0011416977472865977 -0.000432456681394074 -5.8933152268095925e-05 -0.000432456681394074 0.00011213601787880617" pbc="T T T"
Si       6.11003773       1.64376556       0.33726732
Si       6.91153961       5.50559443       6.44393924
Si       5.32386018       3.68170191       1.30857681
Si       2.59440857       0.99952666       5.74327676
Si       7.18661546       9.05479226       2.71686123
Si       7.16685178      11.43646479       0.15131736
Si       4.32702348       2.28173950      -1.12471837
Si       2.68290373       2.76659874       4.06563972
Si       4.81118689       7.53295906       0.71961318
Si       5.58284958       9.71016182       0.57908200
Si       2.25907969       1.95633868       0.13710268
Si       6.49787132       5.31815228       4.12532583
Si       7.07042940       5.41215606       0.29592124
Si       3.63886485       4.39352885      -0.21606538
Si       6.48388058       6.82660633       2.27613117
Si       8.70301841       9.90430887       1.17377028
Si       5.78899342       1.54463739       4.05143732
Si       4.87669947       3.65893418       3.62237203
18
Lattice="5.740700404168562 1.2350637247252507 -0.38256119383906656 4.137081819475993 10.21787972229122 -2.1408217738461293 1.776299593153693 -0.5540076505436248 7.485566610834736" Properties=species:S:1:pos:R:3 unique_starting_index=194 config_type=initial n_minim_iter=8 stress="2.7559792107811544e-05 -0.0004598108715158301 -0.00019172943820491123 -0.0004598108715158301 -0.0004153308627204198 -0.0004678381321395559 -0.00019172943820491123 -0.0004678381321395559 -6.544312831119497e-05" pbc="T T T"
Si       6.10384592       1.63807963       0.33936598
Si       6.89861766       5.50292440       6.43985634
Si       5.31672979       3.68056185       1.30627861
Si       2.59307806       0.99745620       5.74429184
Si       7.16513320       9.05815171       2.71133852
Si       7.15036144      11.44256756       0.14671280
Si       4.32405348       2.27843818      -1.12794828
Si       2.67725175       2.76494900       4.06173323
Si       4.79724764       7.53780436       0.71858708
Si       5.56992300       9.71481391       0.58233803
Si       2.25933382       1.95492994       0.13310574
Si       6.48565696       5.31608249       4.12081890
Si       7.05702684       5.40899285       0.29477507
Si       3.63279465       4.39251306      -0.21675859
Si       6.47010977       6.82697575       2.27425206
Si       8.68485775       9.90453561       1.16886929
Si       5.77859226       1.53706323       4.04627587
Si       4.86567413       3.65659426       3.61865856
18
Lattice="5.738419746719564 1.2439204207007386 -0.37484465293917807 4.146992587828653 10.230608532626118 -2.1195617441834504 1.7817445645583492 -0.5390376486870332 7.48832585395327" Properties=species:S:1:pos:R:3 unique_starting_index=194 config_type=initial n_minim_iter=9 stress="-0.0005382485974781961 0.0004892974786818776 7.4381090439830095e-06 0.0004892974786818776 0.0005547272937838104 0.00032051056381269497 7.4381090439830095e-06 0.00032051056381269497 0.000388578306643952" pbc="T T T"
Si       6.10348582       1.64851868       0.35399227
Si       6.90763801       5.52922136       6.45935751
Si       5.32177214       3.69654986       1.31733003
Si       2.60241311       1.01345531       5.75681338
Si       7.16737586       9.08486818       2.73202987
Si       7.16597188      11.46708493       0.17117791
Si       4.32791538       2.28469360      -1.12379554
Si       2.68317889       2.77741764       4.06818944
Si       4.80428269       7.55661503       0.73797553
Si       5.58509528       9.73386798       0.61378335
Si       2.26708507       1.95858994       0.13339847
Si       6.49289406       5.33836144       4.13566950
Si       7.05666371       5.42528121       0.31344672
Si       3.63944328       4.39866110      -0.20549428
Si       6.47672246       6.84692982       2.29433282
Si       8.69409817       9.92837360       1.19095567
Si       5.77485551       1.55195811       4.05190055
Si       4.86698616       3.67285028       3.63018810
18
Lattice="5.748659370989833 1.2377463246264744 -0.37066175227509585 4.144260120029691 10.22189637809741 -2.110739153528568 1.7901299592148419 -0.5381096850561116 7.478113622390314" Properties=species:S:1:pos:R:3 unique_starting_index=194 config_type=initial n_minim_iter=10 stress="0.00028724317779882543 -0.00011626806339711757 0.00014127509540400222 -0.00011626806339711757 0.0004226739000704181 0.0003366487294515302 0.00014127509540400222 0.0003366487294515302 -0.00034797998746756886" pbc="T T T"
Si       6.11531775       1.64184821       0.35921463
Si       6.91945067       5.52272450       6.45574497
Si       5.33063556       3.69109198       1.31962417
Si       2.61108072       1.01304886       5.75195731
Si       7.17206777       9.07593301       2.73371843
Si       7.17008615      11.45616127       0.17783161
Si       4.33567628       2.27943105      -1.12031078
Si       2.68731418       2.77474866       4.06420065
Si       4.80767231       7.54884519       0.74180168
Si       5.58926773       9.72528822       0.62175794
Si       2.27164549       1.95525737       0.13392423
Si       6.50304645       5.33063400       4.13503552
Si       7.06505786       5.41637581       0.31967335
Si       3.64258000       4.39215169      -0.20185638
Si       6.48386691       6.83873412       2.29671346
Si       8.70131747       9.91598923       1.19643841
Si       5.78535088       1.54700672       4.04902417
Si       4.87479465       3.66830317       3.62869742
18
Lattice="5.748158855753074 1.234545254616429 -0.3732121857954454 4.1396125531209025 10.217004705834695 -2.1197000529593604 1.7883728699633539 -0.5441446768618009 7.479814592195105" Properties=species:S:1:pos:R:3 unique_starting_index=194 config_type=initial n_minim_iter=11 stress="0.00018854537477434888 -0.0003721489289093436 -6.654491221267052e-05 -0.0003721489289093436 1.8556790648838436e-05 -0.0001342440397302587 -6.654491221267052e-05 -0.0001342440397302587 -0.00028253557001738956" pbc="T T T"
Si       6.11572390       1.63753659       0.35878655
Si       6.91434796       5.51292894       6.45150988
Si       5.33000248       3.68690940       1.31577201
Si       2.61056431       1.00811484       5.75454617
Si       7.16298448       9.06734338       2.72375164
Si       7.16467891      11.44795824       0.16625147
Si       4.33814209       2.27749589      -1.12523801
Si       2.68267995       2.76932354       4.06202285
Si       4.80508354       7.54107476       0.73469784
Si       5.58751253       9.71905948       0.61700378
Si       2.27311835       1.95295343       0.13051836
Si       6.49903313       5.31994256       4.13112857
Si       7.06120331       5.41010568       0.31528771
Si       3.63987507       4.38647699      -0.20619647
Si       6.47839570       6.83130959       2.28969541
Si       8.69324944       9.90566824       1.18592872
Si       5.78025730       1.54083261       4.04664231
Si       4.87176960       3.66283683       3.62594302
18
Lattice="5.750806861266103 1.2337626515418905 -0.3694449588928766 4.140074594251654 10.212377777520818 -2.1142656235134165 1.7937540502127665 -0.5417801417298971 7.480905143443516" Properties=species:S:1:pos:R:3 unique_starting_index=194 config_type=initial n_minim_iter=12 stress="0.00010532889310305866 -0.0002805602324912956 -8.014766783090659e-05 -0.0002805602324912956 -0.00016887779378554877 -0.0002172999183183017 -8.014766783090659e-05 -0.0002172999183183017 -0.00015178490261414873" pbc="T T T"
Si       6.12231916       1.63596694       0.36910197
Si       6.92023477       5.51293870       6.45776481
Si       5.33696630       3.68852915       1.31955394
Si       2.61942082       1.01177373       5.76333324
Si       7.15771538       9.06654154       2.72596865
Si       7.16987041      11.44530314       0.17059026
Si       4.34755661       2.27726955      -1.12633834
Si       2.68257829       2.76905489       4.06285609
Si       4.80983421       7.53689781       0.73926695
Si       5.59767058       9.71688332       0.63305481
Si       2.28095244       1.95113814       0.12821800
Si       6.50427496       5.31570487       4.13718052
Si       7.06133437       5.40826364       0.32468955
Si       3.64140157       4.37959160      -0.20312669
Si       6.47981464       6.82885339       2.29467890
Si       8.69325897       9.89984005       1.18955166
Si       5.77746464       1.54129121       4.04790894
Si       4.87400556       3.66410035       3.63068546
18
Lattice="5.751937248863679 1.2350288630096795 -0.36580270604233533 4.142378419342387 10.21177845013551 -2.107221407092354 1.797915858142652 -0.5376440568058493 7.481993312497049" Properties=species:S:1:pos:R:3 unique_starting_index=194 config_type=initial n_minim_iter=13 stress="1.7521221526821362e-05 -3.869493133657237e-05 -1.2216729583206108e-05 -3.869493133657237e-05 -0.00011166209234418855 -7.781521851834646e-05 -1.2216729583206108e-05 -7.781521851834646e-05 8.438739187601051e-06" pbc="T T T"
Si       6.12699228       1.63697686       0.37712496
Si       6.92564514       5.51708732       6.46428957
Si       5.34212718       3.69222609       1.32386292
Si       2.62599802       1.01710729       5.76938183
Si       7.15577617       9.07019148       2.73116315
Si       7.17495866      11.44831960       0.17784526
Si       4.35421306       2.27890761      -1.12543523
Si       2.68366995       2.77147253       4.06455587
Si       4.81443245       7.53759599       0.74509442
Si       5.60611728       9.71840571       0.64757030
Si       2.28637414       1.95134105       0.12802149
Si       6.50878704       5.31742891       4.14395502
Si       7.06183277       5.41063757       0.33368332
Si       3.64265038       4.37671603      -0.19936897
Si       6.48182162       6.83006514       2.30127645
Si       8.69539510       9.90015932       1.19531415
Si       5.77549929       1.54476146       4.05012067
Si       4.87588656       3.66815859       3.63606569
18
Lattice="5.751353218701045 1.2373799563532337 -0.3626804940191561 4.145026749149972 10.213676659435375 -2.1003089510359008 1.800673140929938 -0.5331147038805851 7.483074302505548" Properties=species:S:1:pos:R:3 unique_starting_index=194 config_type=initial n_minim_iter=14 stress="-9.677529852873615e-05 0.00029851686395252104 9.435706932997475e-05 0.00029851686395252104 7.877901441471565e-05 0.00018838702555270002 9.435706932997475e-05 0.00018838702555270002 0.00019388419235478492" pbc="T T T"
Si       6.13227738       1.63904676       0.38443703
Si       6.92922802       5.52182542       6.46941395
Si       5.34671559       3.69736643       1.32791504
Si       2.63184882       1.02427459       5.77331230
Si       7.15163935       9.07611483       2.73527179
Si       7.17754392      11.45618495       0.18444732
Si       4.36209701       2.28264210      -1.12417272
Si       2.68411677       2.77532914       4.06589902
Si       4.81852132       7.54089151       0.74992220
Si       5.61394152       9.72137486       0.66312103
Si       2.29186044       1.95390890       0.12904235
Si       6.51102578       5.32194976       4.15143793
Si       7.06094202       5.41570431       0.34250208
Si       3.64157423       4.37472951      -0.19573628
Si       6.48155089       6.83144231       2.30856446
Si       8.69650218       9.90186181       1.19880821
Si       5.77023089       1.54963007       4.05228702
Si       4.87560346       3.67451128       3.64203680
18
Lattice="5.74804852063094 1.2356925456541674 -0.3689695094263423 4.140707532388483 10.215963280305589 -2.112237725695439 1.7929586495747505 -0.5400291347689717 7.4810530040577286" Properties=species:S:1:pos:R:3 unique_starting_index=194 config_type=initial n_minim_iter=15 stress="4.746445622048117e-06 -1.998688402978705e-05 -3.587338226348809e-06 -1.998688402978705e-05 4.653840750858509e-05 3.464123974822662e-05 -3.587338226348809e-06 3.464123974822662e-05 -4.509551886983365e-05" pbc="T T T"
Si       6.13085280       1.63718115       0.37518390
Si       6.91813113       5.51245816       6.45693965
Si       5.34112573       3.69324805       1.32062898
Si       2.62515594       1.01974738       5.76305339
Si       7.14427037       9.07213409       2.72035155
Si       7.16545740      11.45759112       0.16857080
Si       4.36040061       2.28276348      -1.12781987
Si       2.67977835       2.77214308       4.06124839
Si       4.81082026       7.54054278       0.73735426
Si       5.60390144       9.71871782       0.64924760
Si       2.28904911       1.95756018       0.12865005
Si       6.50003192       5.31932570       4.14244484
Si       7.05675277       5.41316779       0.32980407
Si       3.63520178       4.37592436      -0.20175340
Si       6.47252322       6.82614733       2.29976308
Si       8.68853908       9.89709455       1.18214332
Si       5.76281682       1.54377540       4.04734470
Si       4.86773174       3.67101486       3.63431093
18
Lattice="5.749032343674269 1.2346568034565713 -0.3703830249580534 4.139998858147412 10.215069621443167 -2.116701804730128 1.7921766327639284 -0.5430343608779035 7.481151970032486" Properties=species:S:1:pos:R:3 unique_starting_index=194 config_type=initial n_minim_iter=16 stress="5.700545149849111e-05 -0.00017244166290702329 -2.8920723025860165e-05 -0.00017244166290702329 -0.00010011969572743822 -0.000131403066566123 -2.8920723025860165e-05 -0.000131403066566123 -0.0001029938168141083" pbc="T T T"
Si       6.13892950       1.63590092       0.37861767
Si       6.91640060       5.50610086       6.45647408
Si       5.34421370       3.69220874       1.31900094
Si       2.63110293       1.02050925       5.76351964
Si       7.13562267       9.07104250       2.70906904
Si       7.16461498      11.45782972       0.16050087
Si       4.36886444       2.28283512      -1.13252833
Si       2.67720306       2.77061525       4.05907698
Si       4.81029636       7.53699824       0.73056385
Si       5.60831942       9.71716204       0.65595972
Si       2.29631549       1.96041792       0.12369821
Si       6.49732926       5.31512329       4.14087893
Si       7.05513081       5.41025828       0.32846400
Si       3.63483120       4.37223691      -0.20295885
Si       6.46818967       6.82240588       2.29892426
Si       8.68347484       9.89063805       1.17246162
Si       5.75368755       1.53895686       4.04499614
Si       4.86424302       3.66961209       3.63132976
18
Lattice="5.747681733095325 1.2363174722658488 -0.3717332435744278 4.141752019266566 10.217561640745172 -2.1197845728964086 1.7901350574529147 -0.5439653112666543 7.4827300759848345" Properties=species:S:1:pos:R:3 unique_starting_index=194 config_type=initial n_minim_iter=17 stress="3.1077504140038595e-05 -8.976218476314653e-05 -5.486641473298709e-07 -8.976218476314653e-05 -7.30818966136392e-05 -9.99703321907155e-05 -5.486641473298709e-07 -9.99703321907155e-05 1.7566451918779608e-06" pbc="T T T"
Si       6.13961868       1.63781632       0.37536685
Si       6.91462469       5.50575129       6.45666073
Si       5.34213607       3.69268933       1.31796459
Si       2.62922253       1.02029416       5.76091849
Si       7.13798434       9.07193391       2.70739768
Si       7.16392533      11.45992133       0.15910451
Si       4.36717833       2.28506497      -1.13215016
Si       2.67665832       2.77229601       4.05972930
Si       4.81090510       7.53803639       0.72737900
Si       5.60676261       9.71898879       0.65150813
Si       2.29419499       1.96238766       0.12359217
Si       6.49586268       5.31737613       4.14001677
Si       7.05502116       5.41364233       0.32622491
Si       3.63512946       4.37525633      -0.20432731
Si       6.46743399       6.82355778       2.29725587
Si       8.68305280       9.89416564       1.16936288
Si       5.75304371       1.53978752       4.04584496
Si       4.86376236       3.67008865       3.63058277
18
Lattice="5.7469885705947625 1.2384173527065383 -0.3729235353398493 4.144685691786909 10.220654991617506 -2.121150536932749 1.788141998480997 -0.5436632951675022 7.483463446324782" Properties=species:S:1:pos:R:3 unique_starting_index=194 config_type=initial n_minim_iter=18 stress="-2.2508802760165e-05 2.9726171082128447e-05 -3.363271032683774e-06 2.9726171082128447e-05 4.1598692491459975e-06 1.1500452895681803e-05 -3.363271032683774e-06 1.1500452895681803e-05 3.4428495972644535e-05" pbc="T T T"
Si       6.14202169       1.64067049       0.37326208
Si       6.91352654       5.50684191       6.45695676
Si       5.34116451       3.69389349       1.31739974
Si       2.62884673       1.02152462       5.75868503
Si       7.14017262       9.07508200       2.70555965
Si       7.16512742      11.46370868       0.15852427
Si       4.36730922       2.28728689      -1.13231779
Si       2.67635555       2.77493633       4.06019928
Si       4.81171127       7.54079720       0.72553830
Si       5.60727546       9.72202757       0.65069543
Si       2.29409583       1.96484857       0.12244095
Si       6.49477686       5.32095609       4.13974264
Si       7.05572254       5.41737015       0.32516912
Si       3.63674024       4.37832654      -0.20463990
Si       6.46711527       6.82654579       2.29674685
Si       8.68373424       9.89857405       1.16681877
Si       5.75124490       1.54095082       4.04621903
Si       4.86337585       3.67132688       3.62932444
18
Lattice="5.747371527372397 1.2404918181293196 -0.3740547606095994 4.148281646225392 10.2238149117533 -2.12300931128832 1.7866552238773783 -0.5438826807543069 7.483872730627981" Properties=species:S:1:pos:R:3 unique_starting_index=194 config_type=initial n_minim_iter=19 stress="-4.3059058112301235e-05 0.00011090826974362089 1.1545512554245176e-05 0.00011090826974362089 7.970390565264953e-05 0.0001038050289857614 1.1545512554245176e-05 0.0001038050289857614 3.8345846756133594e-05" pbc="T T T"
Si       6.14825263       1.64411658       0.37140658
Si       6.91339932       5.50652721       6.45627299
Si       5.34135977       3.69427299       1.31682123
Si       2.63019526       1.02269830       5.75610238
Si       7.14279332       9.07836768       2.70184032
Si       7.16699797      11.46761612       0.15669547
Si       4.37005699       2.28966074      -1.13302238
Si       2.67599524       2.77800134       4.06028337
Si       4.81258201       7.54425070       0.72355988
Si       5.60909236       9.72502825       0.65145122
Si       2.29590488       1.96761558       0.11986707
Si       6.49397895       5.32383787       4.13983919
Si       7.05787766       5.42087816       0.32513501
Si       3.63965058       4.38097666      -0.20451884
Si       6.46677996       6.83003141       2.29580547
Si       8.68511825       9.90217714       1.16254754
Si       5.74877449       1.54094455       4.04683182
Si       4.86401767       3.67159971       3.62707539
18
Lattice="5.749250383728342 1.2387496266855085 -0.3736488202194615 4.146868579519621 10.221288389157387 -2.123841444136599 1.788215778973005 -0.5454034656315166 7.483048812663103" Properties=species:S:1:pos:R:3 unique_starting_index=194 config_type=initial n_minim_iter=20 stress="2.281962083571282e-05 -4.663198580636195e-05 -3.4359149681179583e-06 -4.663198580636195e-05 -2.899071558136341e-05 -4.528093777421933e-05 -3.4359149681179583e-06 -4.528093777421933e-05 -2.01483600825633e-05" pbc="T T T"
Si       6.15235327       1.64268035       0.37221289
Si       6.91494820       5.50326722       6.45413136
Si       5.34354413       3.69156982       1.31644943
Si       2.63205556       1.02120232       5.75711008
Si       7.14143280       9.07549400       2.69953283
Si       7.16596580      11.46443435       0.15384113
Si       4.37421049       2.28824543      -1.13401822
Si       2.67550330       2.77635581       4.05895263
Si       4.81165378       7.54260205       0.72367771
Si       5.60988880       9.72237383       0.65299555
Si       2.29876975       1.96590519       0.11839462
Si       6.49413382       5.31950857       4.13959214
Si       7.05920828       5.41754321       0.32693301
Si       3.64000815       4.37759278      -0.20404458
Si       6.46610042       6.82805658       2.29460660
Si       8.68480677       9.89730021       1.16044174
Si       5.74858417       1.53778087       4.04680283
Si       4.86557998       3.66852732       3.62632940
18
Lattice="5.74939087514998 1.239711135400141 -0.37394955371104815 4.148503905428386 10.222621388573845 -2.1239320628787124 1.7877002049782507 -0.5450058706961692 7.483254983629899" Properties=species:S:1:pos:R:3 unique_starting_index=194 config_type=initial n_minim_iter=21 stress="-8.06547822157928e-06 -1.8446291226278484e-05 -1.530900123921005e-06 -1.8446291226278484e-05 -1.9235397160340586e-05 -1.135962960900452e-05 -1.530900123921005e-06 -1.135962960900452e-05 8.9181903921978e-06" pbc="T T T"
Si       6.15614444       1.64413174       0.36976358
Si       6.91598714       5.50555950       6.45532562