6
Lattice="3.523490843631277 -6.493221528636943e-16 2.0407431594235033e-16 8.455545883991823e-16 5.109653853648091 0.7806228234151061 1.1501576436241275e-16 0.005511116183095865 6.1503288260112114" Properties=species:S:1:pos:R:3 unique_starting_index=75 config_type=initial n_minim_iter=1 energy=-976.2064004264246 free_energy=-976.2064004264246 pbc="T T T"
Si       0.88252408       3.23495611       3.81938465
Si       2.64426950       3.23220055       0.74422024
Si       2.64426950       1.84699903       4.77214956
Si       0.88252408       1.84424348       1.69698515
Si       2.64426950       0.46769621       0.62055062
Si       0.88252408       0.47045177       3.69571503
