10
Lattice="5.483246197876905 0.0 0.0 0.0 5.852044803675643 0.0 0.0 0.0 10.970661160549259" Properties=species:S:1:pos:R:3 unique_starting_index=142 config_type=initial n_minim_iter=1 energy=-1624.7131099727105 free_energy=-1624.7131099727105 pbc="T T T"
Si       1.53022097       1.20502693       4.34203447
Si       3.95302523       4.64701787       4.34203447
Si       3.95302523       1.20502693       4.34203447
Si       1.53022097       4.64701787       4.34203447
Si       3.98456801       1.73842968       2.00956748
Si       1.49867819       4.11361512       2.00956748
Si       1.49867819       1.73842968       2.00956748
Si       3.98456801       4.11361512       2.00956748
Si       0.00000000       4.14882293       6.07314739
Si       0.00000000       1.70322187       6.07314739
10
Lattice="5.4409094759932035 0.0 0.0 0.0 5.9312553126586005 0.0 0.0 0.0 10.859024037741078" Properties=species:S:1:pos:R:3 unique_starting_index=142 config_type=initial n_minim_iter=2 stress="-0.00010804702719934448 1.4890337220400863e-18 -3.4089442126626604e-17 1.4890337220400863e-18 0.001068352955346661 6.6134458260615904e-18 -3.4089442126626604e-17 6.6134458260615904e-18 0.00011298107539048671" pbc="T T T"
Si       1.51977514       1.22213467       4.29700034
Si       3.92113433       4.70912064       4.29700034
Si       3.92113433       1.22213467       4.29700034
Si       1.51977514       4.70912064       4.29700034
Si       3.95521996       1.75984097       1.99010302
Si       1.48568952       4.17141434       1.99010302
Si       1.48568952       1.75984097       1.99010302
Si       3.95521996       4.17141434       1.99010302
Si       0.00000000       4.20506944       6.01107699
Si       0.00000000       1.72618587       6.01107699
10
Lattice="5.421385301876318 0.0 0.0 0.0 5.896167496789517 0.0 0.0 0.0 10.769549193397117" Properties=species:S:1:pos:R:3 unique_starting_index=142 config_type=initial n_minim_iter=3 stress="-0.002285298429272859 9.617751146988596e-18 -9.012675418272443e-17 9.617751146988596e-18 -0.0041281673805441095 -8.768027300211933e-18 -9.012675418272443e-17 -8.768027300211933e-18 -0.0051878314085003875" pbc="T T T"
Si       1.52439302       1.21346114       4.25686253
Si       3.89699228       4.68270635       4.25686253
Si       3.89699228       1.21346114       4.25686253
Si       1.52439302       4.68270635       4.25686253
Si       3.95678470       1.74206601       1.97622192
Si       1.46460060       4.15410149       1.97622192
Si       1.46460060       1.74206601       1.97622192
Si       3.95678470       4.15410149       1.97622192
Si       0.00000000       4.17081571       5.96597808
Si       0.00000000       1.72535179       5.96597808
10
Lattice="5.4332537523710505 0.0 0.0 0.0 5.9290755918450415 0.0 0.0 0.0 10.825109230337912" Properties=species:S:1:pos:R:3 unique_starting_index=142 config_type=initial n_minim_iter=4 stress="0.0021586822894501725 6.85020493039383e-18 -1.3722704909564572e-16 6.85020493039383e-18 0.0007932535754028615 -4.735740982348101e-18 -1.3722704909564572e-16 -4.735740982348101e-18 -0.0010286036856388325" pbc="T T T"
Si       1.53770205       1.21910810       4.27488785
Si       3.89555171       4.70996749       4.27488785
Si       3.89555171       1.21910810       4.27488785
Si       1.53770205       4.70996749       4.27488785
Si       3.98321015       1.74381521       1.98778128
Si       1.45004360       4.18526039       1.98778128
Si       1.45004360       1.74381521       1.98778128
Si       3.98321015       4.18526039       1.98778128
Si       0.00000000       4.18495716       6.00190003
Si       0.00000000       1.74411844       6.00190003
10
Lattice="5.377445185460646 0.0 0.0 0.0 5.924266388929514 0.0 0.0 0.0 10.897212654143964" Properties=species:S:1:pos:R:3 unique_starting_index=142 config_type=initial n_minim_iter=5 stress="-0.0013143935800177915 -4.2545364028559756e-18 -7.811968383899741e-17 -4.2545364028559756e-18 2.0991803574727992e-05 4.8570270695305264e-18 -7.811968383899741e-17 4.8570270695305264e-18 0.0010452533271880123" pbc="T T T"
Si       1.52300608       1.21818077       4.30396643
Si       3.85443910       4.70608562       4.30396643
Si       3.85443910       1.21818077       4.30396643
Si       1.52300608       4.70608562       4.30396643
Si       3.95257722       1.73977061       2.00034913
Si       1.42486796       4.18449578       2.00034913
Si       1.42486796       1.73977061       2.00034913
Si       3.95257722       4.18449578       2.00034913
Si       0.00000000       4.17939602       6.04201263
Si       0.00000000       1.74487037       6.04201263
10
Lattice="5.2565442634638 0.0 0.0 0.0 5.9073794193320515 0.0 0.0 0.0 11.029285710247033" Properties=species:S:1:pos:R:3 unique_starting_index=142 config_type=initial n_minim_iter=6 stress="-0.005841003110447585 -1.393739989209708e-17 -1.1782172957164837e-16 -1.393739989209708e-17 -0.0006460086264216829 -3.2821821792415857e-18 -1.1782172957164837e-16 -3.2821821792415857e-18 0.003431608844283225" pbc="T T T"
Si       1.47611793       1.21799016       4.36300968
Si       3.78042634       4.68938926       4.36300968
Si       3.78042634       1.21799016       4.36300968
Si       1.47611793       4.68938926       4.36300968
Si       3.92309318       1.72455835       2.02085809
Si       1.33345109       4.18282107       2.02085809
Si       1.33345109       1.72455835       2.02085809
Si       3.92309318       4.18282107       2.02085809
Si       0.00000000       4.16613021       6.10895200
Si       0.00000000       1.74124921       6.10895200
10
Lattice="5.27531951298717 0.0 0.0 0.0 5.899351229519702 0.0 0.0 0.0 10.997532246206015" Properties=species:S:1:pos:R:3 unique_starting_index=142 config_type=initial n_minim_iter=7 stress="-0.0019090346838159231 5.0397821291943915e-18 -3.228146518927514e-17 5.0397821291943915e-18 -0.0007050581451576374 -2.282865743640999e-17 -3.228146518927514e-17 -2.282865743640999e-17 0.0014316149226410143" pbc="T T T"
Si       1.46942495       1.21838601       4.35301043
Si       3.80589456       4.68096522       4.35301043
Si       3.80589456       1.21838601       4.35301043
Si       1.46942495       4.68096522       4.35301043
Si       3.95201959       1.72209076       2.01410504
Si       1.32329993       4.17726046       2.01410504
Si       1.32329993       1.72209076       2.01410504
Si       3.95201959       4.17726046       2.01410504
Si       0.00000000       4.16596216       6.08811037
Si       0.00000000       1.73338907       6.08811037
10
Lattice="5.290690661797923 0.0 0.0 0.0 5.9030355167982895 0.0 0.0 0.0 10.958733462888727" Properties=species:S:1:pos:R:3 unique_starting_index=142 config_type=initial n_minim_iter=8 stress="2.4953717787486512e-05 -1.2148658056256364e-17 -7.754092481528201e-17 -1.2148658056256364e-17 8.583214678722516e-06 7.07566957820268e-18 -7.754092481528201e-17 7.07566957820268e-18 -0.0004145070948507384" pbc="T T T"
Si       1.47093279       1.21939582       4.33403160
Si       3.81975787       4.68363969       4.33403160
Si       3.81975787       1.21939582       4.33403160
Si       1.47093279       4.68363969       4.33403160
Si       3.97279509       1.72149650       2.00874988
Si       1.31789557       4.18153902       2.00874988
Si       1.31789557       1.72149650       2.00874988
Si       3.97279509       4.18153902       2.00874988
Si       0.00000000       4.16989732       6.07037402
Si       0.00000000       1.73313820       6.07037402
10
Lattice="5.289252730225728 0.0 0.0 0.0 5.902203650584628 0.0 0.0 0.0 10.962566980711557" Properties=species:S:1:pos:R:3 unique_starting_index=142 config_type=initial n_minim_iter=9 stress="0.0006541202484332608 1.3034711330704577e-17 -1.3701103035398047e-17 1.3034711330704577e-17 0.0003651431564871725 -2.362084356084162e-18 -1.3701103035398047e-17 -2.362084356084162e-18 -0.0008750299527735475" pbc="T T T"
Si       1.46667772       1.21938077       4.33070125
Si       3.82257501       4.68282288       4.33070125
Si       3.82257501       1.21938077       4.33070125
Si       1.46667772       4.68282288       4.33070125
Si       3.98114709       1.72012009       2.01149229
Si       1.30810564       4.18208356       2.01149229
Si       1.30810564       1.72012009       2.01149229
Si       3.98114709       4.18208356       2.01149229
Si       0.00000000       4.17219795       6.07811099
Si       0.00000000       1.73000570       6.07811099
10
Lattice="5.292702521396739 0.0 0.0 0.0 5.898385725460934 0.0 0.0 0.0 10.982405842943582" Properties=species:S:1:pos:R:3 unique_starting_index=142 config_type=initial n_minim_iter=10 stress="0.002301165741624105 -1.156572850264762e-17 3.1825318442495712e-18 -1.156572850264762e-17 0.00046534556676316324 1.7202874833781465e-17 3.1825318442495712e-18 1.7202874833781465e-17 -0.000818730685905387" pbc="T T T"
Si       1.46249725       1.21844060       4.33031792
Si       3.83020527       4.67994512       4.33031792
Si       3.83020527       1.21844060       4.33031792
Si       1.46249725       4.67994512       4.33031792
Si       3.98407398       1.72064335       2.01853629
Si       1.30862855       4.17774238       2.01853629
Si       1.30862855       1.72064335       2.01853629
Si       3.98407398       4.17774238       2.01853629
Si       0.00000000       4.17666123       6.09874397
Si       0.00000000       1.72172450       6.09874397
10
Lattice="5.261952191889469 0.0 0.0 0.0 5.892287368285451 0.0 0.0 0.0 11.030991734734963" Properties=species:S:1:pos:R:3 unique_starting_index=142 config_type=initial n_minim_iter=11 stress="0.0003834238742205729 5.54282555211864e-18 2.5766094285153698e-18 5.54282555211864e-18 0.0003239079786422236 2.7673191027519402e-17 2.5766094285153698e-18 2.7673191027519402e-17 -0.00028872940360771517" pbc="T T T"
Si       1.44754445       1.21767442       4.34351743
Si       3.81440774       4.67461295       4.34351743
Si       3.81440774       1.21767442       4.34351743
Si       1.44754445       4.67461295       4.34351743
Si       3.96703701       1.71948814       2.02973752
Si       1.29491518       4.17279922       2.02973752
Si       1.29491518       1.71948814       2.02973752
Si       3.96703701       4.17279922       2.02973752
Si       0.00000000       4.17960947       6.13309751
Si       0.00000000       1.71267790       6.13309751
10
Lattice="5.259407707926273 0.0 0.0 0.0 5.890244141457151 0.0 0.0 0.0 11.041990743634285" Properties=species:S:1:pos:R:3 unique_starting_index=142 config_type=initial n_minim_iter=12 stress="0.00042791747080484464 -8.344078781739359e-18 8.540193763982083e-17 -8.344078781739359e-18 8.427826428143046e-05 -2.630950699061135e-17 8.540193763982083e-17 -2.630950699061135e-17 -1.4975587589968741e-05" pbc="T T T"
Si       1.44651162       1.21736003       4.34691748
Si       3.81289609       4.67288411       4.34691748
Si       3.81289609       1.21736003       4.34691748
Si       1.44651162       4.67288411       4.34691748
Si       3.95633090       1.72093877       2.03210314
Si       1.30307681       4.16930538       2.03210314
Si       1.30307681       1.72093877       2.03210314
Si       3.95633090       4.16930538       2.03210314
Si       0.00000000       4.18131826       6.14039106
Si       0.00000000       1.70892588       6.14039106
10
Lattice="5.255861604239424 0.0 0.0 0.0 5.888933514227104 0.0 0.0 0.0 11.044798937705712" Properties=species:S:1:pos:R:3 unique_starting_index=142 config_type=initial n_minim_iter=13 stress="-9.994399014310414e-06 1.1498502024978413e-17 5.033380469527161e-17 1.1498502024978413e-17 3.439944289300868e-05 2.540286584378765e-17 5.033380469527161e-17 2.540286584378765e-17 1.1625596903016285e-05" pbc="T T T"
Si       1.44582842       1.21750303       4.34870064
Si       3.81003318       4.67143048       4.34870064
Si       3.81003318       1.21750303       4.34870064
Si       1.44582842       4.67143048       4.34870064
Si       3.95203012       1.72038992       2.03231343
Si       1.30383149       4.16854359       2.03231343
Si       1.30383149       1.72038992       2.03231343
Si       3.95203012       4.16854359       2.03231343
Si       0.00000000       4.18099303       6.14121040
Si       0.00000000       1.70794048       6.14121040
10
Lattice="5.249646272016242 0.0 0.0 0.0 5.879883072866732 0.0 0.0 0.0 11.055284179449842" Properties=species:S:1:pos:R:3 unique_starting_index=142 config_type=initial n_minim_iter=14 stress="-0.000776437413543281 -2.2799367799833912e-17 7.2198206987478e-17 -2.2799367799833912e-17 -5.633285734372143e-05 1.9612088192761142e-17 7.2198206987478e-17 1.9612088192761142e-17 5.130723276254243e-05" pbc="T T T"
Si       1.44468865       1.21798165       4.35382119
Si       3.80495762       4.66190143       4.35382119
Si       3.80495762       1.21798165       4.35382119
Si       1.44468865       4.66190143       4.35382119
Si       3.94535071       1.71525126       2.03375579
Si       1.30429556       4.16463182       2.03375579
Si       1.30429556       1.71525126       2.03375579
Si       3.94535071       4.16463182       2.03375579
Si       0.00000000       4.17793406       6.14603014
Si       0.00000000       1.70194901       6.14603014
10
Lattice="5.255463339641885 0.0 0.0 0.0 5.812234797271713 0.0 0.0 0.0 11.112675555528703" Properties=species:S:1:pos:R:3 unique_starting_index=142 config_type=initial n_minim_iter=15 stress="0.0002332726570903844 1.2085868289849092e-17 5.67653809022067e-17 1.2085868289849092e-17 8.484108539873241e-05 -7.93138764918411e-18 5.67653809022067e-17 -7.93138764918411e-18 0.00018938780532265186" pbc="T T T"
Si       1.44610655       1.22041998       4.37263499
Si       3.80935679       4.59181482       4.37263499
Si       3.80935679       1.22041998       4.37263499
Si       1.44610655       4.59181482       4.37263499
Si       3.95483218       1.67475210       2.04559119
Si       1.30063116       4.13748270       2.04559119
Si       1.30063116       1.67475210       2.04559119
Si       3.95483218       4.13748270       2.04559119
Si       0.00000000       4.15480675       6.18295740
Si       0.00000000       1.65742805       6.18295740
10
Lattice="5.254245204029457 0.0 0.0 0.0 5.805736530026241 0.0 0.0 0.0 11.115012821528943" Properties=species:S:1:pos:R:3 unique_starting_index=142 config_type=initial n_minim_iter=16 stress="2.499797174174899e-05 -6.263476910343095e-18 4.43848367711513e-17 -6.263476910343095e-18 4.276713028905876e-06 -4.604634228873654e-18 4.43848367711513e-17 -4.604634228873654e-18 2.0519952951216518e-05" pbc="T T T"
Si       1.44600784       1.22083090       4.37382121
Si       3.80823736       4.58490563       4.37382121
Si       3.80823736       1.22083090       4.37382121
Si       1.44600784       4.58490563       4.37382121
Si       3.95276817       1.67128652       2.04589223
Si       1.30147704       4.13445001       2.04589223
Si       1.30147704       1.67128652       2.04589223
Si       3.95276817       4.13445001       2.04589223
Si       0.00000000       4.15258457       6.18398313
Si       0.00000000       1.65315196       6.18398313
10
Lattice="5.253662824555102 0.0 0.0 0.0 5.800009183918148 0.0 0.0 0.0 11.119485258700255" Properties=species:S:1:pos:R:3 unique_starting_index=142 config_type=initial n_minim_iter=17 stress="-2.952554785142198e-05 8.947018191519513e-19 4.685019307107803e-17 8.947018191519513e-19 -6.935836065860384e-06 1.5420897907831272e-17 4.685019307107803e-17 1.5420897907831272e-17 -1.1905965549221572e-05" pbc="T T T"
Si       1.44583948       1.22125701       4.37548208
Si       3.80782335       4.57875217       4.37548208
Si       3.80782335       1.22125701       4.37548208
Si       1.44583948       4.57875217       4.37548208
Si       3.95218198       1.66818021       2.04673082
Si       1.30148084       4.13182897       2.04673082
Si       1.30148084       1.66818021       2.04673082
Si       3.95218198       4.13182897       2.04673082
Si       0.00000000       4.15073361       6.18663881
Si       0.00000000       1.64927557       6.18663881
