20
Lattice="11.148279800569602 -2.244029945199029 8.564551302622386 -4.682056248282192 7.604726305573253 -2.620346907885049 3.60987664385168 -2.7889042660154058 8.128491069455391" Properties=species:S:1:pos:R:3 unique_starting_index=76 config_type=initial n_minim_iter=11 energy=-3259.099125871869 free_energy=-3259.099125871869 pbc="T T T"
Si      10.63414403      -1.40320150      12.15537988
Si       2.37587484      -0.85672434       7.73673877
Si       6.04562491      -0.65556773       4.81391607
Si       1.38071815       1.23030454       2.25884164
Si       8.00274481       2.31697129       6.30273214
Si       9.64984367       0.77070688      11.58780179
Si       0.19503608       3.71326821       4.50687439
Si       1.82736846      -0.29454718       5.48411758
Si       8.05015041      -1.76257468       8.32987783
Si       4.48099408      -1.78347627       8.10542707
Si       6.28281281      -0.63090618       7.15721455
Si       3.90643988       3.92642574       4.36663988
Si       4.02087149       2.15108000       5.90339369
Si       2.14614764       2.58449216       7.35551820
Si      -0.78743113       3.87292086       0.92442751
Si       2.01387521       3.42479915       3.00261384
Si       3.90354781       0.24854302       4.49325600
Si       5.93899198       1.69996204       7.24782339
Si       5.01823792       2.02683886       9.36771694
Si       2.33700803       4.91324454       7.71887881
