16
Lattice="7.33312280696571 0.0 0.0 0.0 9.397559620368197 1.403303155502185e-31 0.0 -8.896441523915391e-32 5.957717639435894" Properties=species:S:1:pos:R:3 unique_starting_index=162 config_type=initial n_minim_iter=1 energy=-2599.8089667198624 free_energy=-2599.8089667198624 pbc="T T T"
Si       2.51166318       3.51451119      -0.04180853
Si       4.82145963       5.88304843      -0.04180853
Si       2.51166318       5.88304843      -0.04180853
Si       4.82145963       3.51451119      -0.04180853
Si       1.12874412       6.72284700       1.53399850
Si       6.20437869       2.67471262       1.53399850
Si       1.12874412       2.67471262       1.53399850
Si       6.20437869       6.72284700       1.53399850
Si       1.49025422       1.24903751       3.48640817
Si       5.84286859       8.14852211       3.48640817
Si       1.49025422       8.14852211       3.48640817
Si       5.84286859       1.24903751       3.48640817
Si       2.45370062       5.92312157       3.36333436
Si       4.87942218       3.47443805       3.36333436
Si       2.45370062       3.47443805       3.36333436
Si       4.87942218       5.92312157       3.36333436
16
Lattice="7.338710176783813 0.0 0.0 0.0 9.645004131819249 1.427124150957578e-31 0.0 -8.82110044568874e-32 5.851559506996029" Properties=species:S:1:pos:R:3 unique_starting_index=162 config_type=initial n_minim_iter=2 stress="0.008058514062926337 -4.288806296462021e-18 1.0722015741155051e-17 -4.288806296462021e-18 0.010468815523902409 5.776485980547284e-17 1.0722015741155051e-17 5.776485980547284e-17 -0.007280057528071859" pbc="T T T"
Si       2.50233875       3.59968562      -0.06107938
Si       4.83637143       6.04531851      -0.06107938
Si       2.50233875       6.04531851      -0.06107938
Si       4.83637143       3.59968562      -0.06107938
Si       1.14193480       6.91043769       1.52327862
Si       6.19677537       2.73456644       1.52327862
Si       1.14193480       2.73456644       1.52327862
Si       6.19677537       6.91043769       1.52327862
Si       1.47031268       1.28079417       3.41406866
Si       5.86839750       8.36420996       3.41406866
Si       1.47031268       8.36420996       3.41406866
Si       5.86839750       1.28079417       3.41406866
Si       2.45163066       6.08175641       3.31702311
Si       4.88707952       3.56324772       3.31702311
Si       2.45163066       3.56324772       3.31702311
Si       4.88707952       6.08175641       3.31702311
16
Lattice="7.117175476940606 0.0 0.0 0.0 9.607994265976787 1.4257455526929146e-31 0.0 -8.819497682471343e-32 5.868021244593052" Properties=species:S:1:pos:R:3 unique_starting_index=162 config_type=initial n_minim_iter=3 stress="-0.01219689971162171 1.9920977266623703e-17 2.047433774625214e-17 1.9920977266623703e-17 -0.000604070189080387 2.5731262302722283e-17 2.047433774625214e-17 2.5731262302722283e-17 -0.02314456601190171" pbc="T T T"
Si       2.40923851       3.57677160      -0.09459354
Si       4.70793697       6.03122267      -0.09459354
Si       2.40923851       6.03122267      -0.09459354
Si       4.70793697       3.57677160      -0.09459354
Si       1.12591053       6.90222990       1.55556979
Si       5.99126494       2.70576437       1.55556979
Si       1.12591053       2.70576437       1.55556979
Si       5.99126494       6.90222990       1.55556979
Si       1.39117217       1.27233082       3.40645613
Si       5.72600331       8.33566344       3.40645613
Si       1.39117217       8.33566344       3.40645613
Si       5.72600331       1.27233082       3.40645613
Si       2.37097713       6.06104050       3.34890819
Si       4.74619835       3.54695377       3.34890819
Si       2.37097713       3.54695377       3.34890819
Si       4.74619835       6.06104050       3.34890819
16
Lattice="6.920867385277587 0.0 0.0 0.0 9.616307751050648 1.4701599257150391e-31 0.0 -8.998272210944459e-32 6.170143962632063" Properties=species:S:1:pos:R:3 unique_starting_index=162 config_type=initial n_minim_iter=4 stress="-0.011114537926033797 -1.297738798221027e-17 -3.7850714948113286e-17 -1.297738798221027e-17 0.007470325858967938 5.2179914178470455e-17 -3.7850714948113286e-17 5.2179914178470455e-17 -0.004077636884128805" pbc="T T T"
Si       2.30729245       3.56229889      -0.16768096
Si       4.61357493       6.05400886      -0.16768096
Si       2.30729245       6.05400886      -0.16768096
Si       4.61357493       3.56229889      -0.16768096
Si       1.13143985       6.94407153       1.69219764
Si       5.78942753       2.67223622       1.69219764
Si       1.13143985       2.67223622       1.69219764
Si       5.78942753       6.94407153       1.69219764
Si       1.28475753       1.26431552       3.54713905
Si       5.63610986       8.35199223       3.54713905
Si       1.28475753       8.35199223       3.54713905
Si       5.63610986       1.26431552       3.54713905
Si       2.29061842       6.07084816       3.56771383
Si       4.63024896       3.54545959       3.56771383
Si       2.29061842       3.54545959       3.56771383
Si       4.63024896       6.07084816       3.56771383
16
Lattice="7.00136301385152 0.0 0.0 0.0 9.388330628992751 1.4509653796709563e-31 0.0 -8.971319011414772e-32 6.214956371265203" Properties=species:S:1:pos:R:3 unique_starting_index=162 config_type=initial n_minim_iter=5 stress="0.0017730307837304157 5.43539573772027e-18 1.3588489344300675e-17 5.43539573772027e-18 -0.003537986189492531 2.717697868860135e-17 1.3588489344300675e-17 2.717697868860135e-17 -0.009516923288426491" pbc="T T T"
Si       2.31964532       3.47342425      -0.18589466
Si       4.68171769       5.91490638      -0.18589466
Si       2.31964532       5.91490638      -0.18589466
Si       4.68171769       3.47342425      -0.18589466
Si       1.15890565       6.78695526       1.71727873
Si       5.84245736       2.60137537       1.71727873
Si       1.15890565       2.60137537       1.71727873
Si       5.84245736       6.78695526       1.71727873
Si       1.27741479       1.22787583       3.56357684
Si       5.72394823       8.16045480       3.56357684
Si       1.27741479       8.16045480       3.56357684
Si       5.72394823       1.22787583       3.56357684
Si       2.30822533       5.92819673       3.60715450
Si       4.69313769       3.46013390       3.60715450
Si       2.30822533       3.46013390       3.60715450
Si       4.69313769       5.92819673       3.60715450
16
Lattice="6.9285190355911785 0.0 0.0 0.0 9.30478327825229 1.4720685350015983e-31 0.0 -8.992715802270972e-32 6.369829543032981" Properties=species:S:1:pos:R:3 unique_starting_index=162 config_type=initial n_minim_iter=6 stress="0.0018129602955726538 -6.488539966432307e-18 -2.541344820185987e-17 -6.488539966432307e-18 -0.0020292999010610015 5.2989743059197176e-17 -2.541344820185987e-17 5.2989743059197176e-17 0.0016366448376384268" pbc="T T T"
Si       2.27890712       3.43742133      -0.19481974
Si       4.64961191       5.86736195      -0.19481974
Si       2.27890712       5.86736195      -0.19481974
Si       4.64961191       3.43742133      -0.19481974
Si       1.15993746       6.72475448       1.75694704
Si       5.76858157       2.58002880       1.75694704
Si       1.15993746       2.58002880       1.75694704
Si       5.76858157       6.72475448       1.75694704
Si       1.23992968       1.20201482       3.64928448
Si       5.68858935       8.10276846       3.64928448
Si       1.23992968       8.10276846       3.64928448
Si       5.68858935       1.20201482       3.64928448
Si       2.27101667       5.87857082       3.70755539
Si       4.65750237       3.42621246       3.70755539
Si       2.27101667       3.42621246       3.70755539
Si       4.65750237       5.87857082       3.70755539
16
Lattice="6.834818731035138 0.0 0.0 0.0 9.27889394744718 1.4981604240318777e-31 0.0 -8.920949102657687e-32 6.44717178963225" Properties=species:S:1:pos:R:3 unique_starting_index=162 config_type=initial n_minim_iter=7 stress="-0.002507056007394367 -4.887539502192222e-18 3.801419612816172e-18 -4.887539502192222e-18 -0.0017781365952641245 1.2191695758246153e-16 3.801419612816172e-18 1.2191695758246153e-16 0.004806281263825167" pbc="T T T"
Si       2.22745740       3.42219198      -0.19496525
Si       4.60736133       5.85670197      -0.19496525
Si       2.22745740       5.85670197      -0.19496525
Si       4.60736133       3.42219198      -0.19496525
Si       1.15940224       6.69867305       1.76524843
Si       5.67541649       2.58022090       1.76524843
Si       1.15940224       2.58022090       1.76524843
Si       5.67541649       6.69867305       1.76524843
Si       1.19228738       1.17833545       3.69080156
Si       5.64253135       8.10055850       3.69080156
Si       1.19228738       8.10055850       3.69080156
Si       5.64253135       1.17833545       3.69080156
Si       2.22018408       5.86904799       3.76617622
Si       4.61463465       3.40984596       3.76617622
Si       2.22018408       3.40984596       3.76617622
Si       4.61463465       5.86904799       3.76617622
16
Lattice="6.860041407470864 0.0 0.0 0.0 9.324215521226543 1.512578887618167e-31 0.0 -8.781972960182907e-32 6.389397233945517" Properties=species:S:1:pos:R:3 unique_starting_index=162 config_type=initial n_minim_iter=8 stress="0.002302132054014393 8.692831837187164e-18 2.7165099491209887e-18 8.692831837187164e-18 9.389541849791214e-05 1.6353389893708352e-16 2.7165099491209887e-18 1.6353389893708352e-16 0.00434378862494006" pbc="T T T"
Si       2.23616604       3.44288565      -0.16698459
Si       4.62387537       5.88132987      -0.16698459
Si       2.23616604       5.88132987      -0.16698459
Si       4.62387537       3.44288565      -0.16698459
Si       1.15903399       6.71420671       1.72077702
Si       5.70100742       2.61000881       1.72077702
Si       1.15903399       2.61000881       1.72077702
Si       5.70100742       6.71420671       1.72077702
Si       1.20171818       1.17662700       3.66610456
Si       5.65832323       8.14758852       3.66610456
Si       1.20171818       8.14758852       3.66610456
Si       5.65832323       1.17662700       3.66610456
Si       2.21930337       5.90253221       3.72646866
Si       4.64073804       3.42168331       3.72646866
Si       2.21930337       3.42168331       3.72646866
Si       4.64073804       5.90253221       3.72646866
16
Lattice="6.834009570194014 0.0 0.0 0.0 9.366645460336214 1.5270710030745436e-31 0.0 -8.685629857704658e-32 6.361830241966801" Properties=species:S:1:pos:R:3 unique_starting_index=162 config_type=initial n_minim_iter=9 stress="-0.0011000270342207356 2.181014113534767e-18 1.2540831152824908e-17 2.181014113534767e-18 0.0007567776931405719 1.4067541032299245e-16 1.2540831152824908e-17 1.4067541032299245e-16 0.000798266655524175" pbc="T T T"
Si       2.22460767       3.45998574      -0.17000217
Si       4.60940190       5.90665972      -0.17000217
Si       2.22460767       5.90665972      -0.17000217
Si       4.60940190       3.45998574      -0.17000217
Si       1.15730787       6.74452901       1.71505243
Si       5.67670170       2.62211645       1.71505243
Si       1.15730787       2.62211645       1.71505243
Si       5.67670170       6.74452901       1.71505243
Si       1.18851690       1.18091684       3.64532640
Si       5.64549267       8.18572863       3.64532640
Si       1.18851690       8.18572863       3.64532640
Si       5.64549267       1.18091684       3.64532640
Si       2.20484396       5.93250485       3.71738998
Si       4.62916561       3.43414061       3.71738998
Si       2.20484396       3.43414061       3.71738998
Si       4.62916561       5.93250485       3.71738998
16
Lattice="6.853129163387189 0.0 0.0 0.0 9.395822280905298 1.5393052204560837e-31 0.0 -8.555369464284242e-32 6.311620074515026" Properties=species:S:1:pos:R:3 unique_starting_index=162 config_type=initial n_minim_iter=10 stress="-0.0009128947234508636 5.463559358895598e-18 -4.3708474871164787e-17 5.463559358895598e-18 -0.00040389580150500997 1.5980911124769627e-16 -4.3708474871164787e-17 1.5980911124769627e-16 -0.0044019327418762366" pbc="T T T"
Si       2.23489356       3.48202870      -0.17121431
Si       4.61823560       5.91379358      -0.17121431
Si       2.23489356       5.91379358      -0.17121431
Si       4.61823560       3.48202870      -0.17121431
Si       1.15700917       6.76249298       1.70399297
Si       5.69611999       2.63332930       1.70399297
Si       1.15700917       2.63332930       1.70399297
Si       5.69611999       6.76249298       1.70399297
Si       1.18767640       1.18715590       3.60620053
Si       5.66545276       8.20866638       3.60620053
Si       1.18767640       8.20866638       3.60620053
Si       5.66545276       1.18715590       3.60620053
Si       2.20215651       5.95702324       3.69848370
Si       4.65097265       3.43879904       3.69848370
Si       2.20215651       3.43879904       3.69848370
Si       4.65097265       5.95702324       3.69848370
16
Lattice="6.870896314973751 0.0 0.0 0.0 9.385094189114305 1.5605039235160097e-31 0.0 -8.480046587943416e-32 6.354879654878252" Properties=species:S:1:pos:R:3 unique_starting_index=162 config_type=initial n_minim_iter=11 stress="0.0018482250695112852 2.817631592232606e-17 -5.743633630320312e-17 2.817631592232606e-17 -0.00031050374547402935 1.3329564840177326e-16 -5.743633630320312e-17 1.3329564840177326e-16 0.0004256584599320331" pbc="T T T"
Si       2.24778024       3.49703753      -0.15995539
Si       4.62311607       5.88805666      -0.15995539
Si       2.24778024       5.88805666      -0.15995539
Si       4.62311607       3.49703753      -0.15995539
Si       1.15220524       6.74085258       1.70584224
Si       5.71869107       2.64424161       1.70584224
Si       1.15220524       2.64424161       1.70584224
Si       5.71869107       6.74085258       1.70584224
Si       1.18949420       1.18335818       3.61625995
Si       5.68140212       8.20173601       3.61625995
Si       1.18949420       8.20173601       3.61625995
Si       5.68140212       1.18335818       3.61625995
Si       2.19474775       5.95984696       3.73588769
Si       4.67614857       3.42524723       3.73588769
Si       2.19474775       3.42524723       3.73588769
Si       4.67614857       5.95984696       3.73588769
16
Lattice="6.829626702803217 0.0 0.0 0.0 9.417190909138945 1.5911322616673516e-31 0.0 -8.385605130352141e-32 6.399641236342245" Properties=species:S:1:pos:R:3 unique_starting_index=162 config_type=initial n_minim_iter=12 stress="-0.0035662624364619588 -5.9341557578014715e-18 -8.038083708294721e-17 -5.9341557578014715e-18 0.0019974826253417502 1.0789374105093584e-16 -8.038083708294721e-17 1.0789374105093584e-16 0.0015013318662323908" pbc="T T T"
Si       2.23619992       3.51560113      -0.16015157
Si       4.59342678       5.90158978      -0.16015157
Si       2.23619992       5.90158978      -0.16015157
Si       4.59342678       3.51560113      -0.16015157
Si       1.14616561       6.75756501       1.72616974
Si       5.68346110       2.65962589       1.72616974
Si       1.14616561       2.65962589       1.72616974
Si       5.68346110       6.75756501       1.72616974
Si       1.17833838       1.18977715       3.61213588
Si       5.65128832       8.22741376       3.61213588
Si       1.17833838       8.22741376       3.61213588
Si       5.65128832       1.18977715       3.61213588
Si       2.18194029       5.98621122       3.78255514
Si       4.64768641       3.43097968       3.78255514
Si       2.18194029       3.43097968       3.78255514
Si       4.64768641       5.98621122       3.78255514
16
Lattice="6.83095488699287 0.0 0.0 0.0 9.341439653940148 1.6330045098645645e-31 0.0 -8.199352337185716e-32 6.488204291625107" Properties=species:S:1:pos:R:3 unique_starting_index=162 config_type=initial n_minim_iter=13 stress="-0.004451278607584909 -2.7352098761805708e-17 -5.953103848157712e-17 -2.7352098761805708e-17 -0.000911043307369091 2.429509948842742e-16 -5.953103848157712e-17 2.429509948842742e-16 -0.00047849664085146615" pbc="T T T"
Si       2.24041209       3.49826469      -0.11911173
Si       4.59054280       5.84317496      -0.11911173
Si       2.24041209       5.84317496      -0.11911173
Si       4.59054280       3.49826469      -0.11911173
Si       1.14935926       6.65498427       1.74876206
Si       5.68159562       2.68645538       1.74876206
Si       1.14935926       2.68645538       1.74876206
Si       5.68159562       6.65498427       1.74876206
Si       1.18451364       1.17867030       3.55663658
Si       5.64644124       8.16276935       3.55663658
Si       1.18451364       8.16276935       3.55663658
Si       5.64644124       1.17867030       3.55663658
Si       2.19228747       5.96136212       3.89842732
Si       4.63866742       3.38007753       3.89842732
Si       2.19228747       3.38007753       3.89842732
Si       4.63866742       5.96136212       3.89842732
16
Lattice="6.849359582887553 0.0 0.0 0.0 9.28754248173943 1.6821547696468558e-31 0.0 -7.984188269230764e-32 6.573337279331839" Properties=species:S:1:pos:R:3 unique_starting_index=162 config_type=initial n_minim_iter=14 stress="-0.001134133880980184 1.646134142510934e-17 -7.221749786499581e-17 1.646134142510934e-17 -2.6108276887376418e-05 2.607264077331834e-16 -7.221749786499581e-17 2.607264077331834e-16 -0.0007373946063879241" pbc="T T T"
Si       2.24609132       3.47754929      -0.09027465
Si       4.60326826       5.80999320      -0.09027465
Si       2.24609132       5.80999320      -0.09027465
Si       4.60326826       3.47754929      -0.09027465
Si       1.15660238       6.57699180       1.77574509
Si       5.69275721       2.71055068       1.77574509
Si       1.15660238       2.71055068       1.77574509
Si       5.69275721       6.57699180       1.77574509
Si       1.19121483       1.17159618       3.51513533
Si       5.65814475       8.11594630       3.51513533
Si       1.19121483       8.11594630       3.51513533
Si       5.65814475       1.17159618       3.51513533
Si       2.20687725       5.94660210       4.00331075
Si       4.64248233       3.34094038       4.00331075
Si       2.20687725       3.34094038       4.00331075
Si       4.64248233       5.94660210       4.00331075
16
Lattice="6.896214373445982 0.0 0.0 0.0 9.159349884352617 1.7329292000241158e-31 0.0 -7.668282068037563e-32 6.636963954184402" Properties=species:S:1:pos:R:3 unique_starting_index=162 config_type=initial n_minim_iter=15 stress="0.0067172242762290136 -2.1715969379810656e-17 5.0317490026390546e-17 -2.1715969379810656e-17 0.0016648838261822143 3.421589321794557e-16 5.0317490026390546e-17 3.421589321794557e-16 -0.0009469565157568933" pbc="T T T"
Si       2.25296736       3.39283829      -0.08792721
Si       4.64324701       5.76651159      -0.08792721
Si       2.25296736       5.76651159      -0.08792721
Si       4.64324701       3.39283829      -0.08792721
Si       1.16614266       6.45574092       1.79770240
Si       5.73007172       2.70360896       1.79770240
Si       1.16614266       2.70360896       1.79770240
Si       5.73007172       6.45574092       1.79770240
Si       1.20552265       1.15828597       3.52421301
Si       5.69069172       8.00106392       3.52421301
Si       1.20552265       8.00106392       3.52421301
Si       5.69069172       1.15828597       3.52421301
Si       2.22515309       5.87728749       4.05901771
Si       4.67106128       3.28206239       4.05901771
Si       2.22515309       3.28206239       4.05901771
Si       4.67106128       5.87728749       4.05901771
16
Lattice="6.8909194391546835 0.0 0.0 0.0 8.947982070981501 1.8422213989328383e-31 0.0 -7.163465827984709e-32 6.835107656146645" Properties=species:S:1:pos:R:3 unique_starting_index=162 config_type=initial n_minim_iter=16 stress="0.005893631822167929 -1.5278847148339592e-17 -2.37085559198373e-17 -1.5278847148339592e-17 -0.001894932309652403 3.8671288989245725e-16 -2.37085559198373e-17 3.8671288989245725e-16 0.002970259753395985" pbc="T T T"
Si       2.25457396       3.29242070      -0.08958115
Si       4.63634548       5.65556138      -0.08958115
Si       2.25457396       5.65556138      -0.08958115
Si       4.63634548       3.29242070      -0.08958115
Si       1.15654964       6.24100375       1.86892968
Si       5.73436980       2.70697832       1.86892968
Si       1.15654964       2.70697832       1.86892968
Si       5.73436980       6.24100375       1.86892968
Si       1.20240252       1.14462205       3.54049078
Si       5.68851692       7.80336002       3.54049078
Si       1.20240252       7.80336002       3.54049078
Si       5.68851692       1.14462205       3.54049078
Si       2.20949599       5.77948717       4.25060530
Si       4.68142345       3.16849490       4.25060530
Si       2.20949599       3.16849490       4.25060530
Si       4.68142345       5.77948717       4.25060530
16
Lattice="6.855958278807073 0.0 0.0 0.0 8.962966261801034 1.899235936024005e-31 0.0 -6.746459678014265e-32 6.799046315068786" Properties=species:S:1:pos:R:3 unique_starting_index=162 config_type=initial n_minim_iter=17 stress="-0.0010012931960476593 -5.846083085088172e-18 -1.9132635551197652e-17 -5.846083085088172e-18 -0.0010385296576082112 3.6192568917682225e-16 -1.9132635551197652e-17 3.6192568917682225e-16 0.0008005317549406957" pbc="T T T"
Si       2.24810971       3.28940227      -0.10743364
Si       4.60784857       5.67356399      -0.10743364
Si       2.24810971       5.67356399      -0.10743364
Si       4.60784857       3.28940227      -0.10743364
Si       1.14258931       6.24409870       1.85166831
Si       5.71336896       2.71886756       1.85166831
Si       1.14258931       2.71886756       1.85166831
Si       5.71336896       6.24409870       1.85166831
Si       1.19635154       1.15540642       3.56147776
Si       5.65960674       7.80755984       3.56147776
Si       1.19635154       7.80755984       3.56147776
Si       5.65960674       1.15540642       3.56147776
Si       2.18742597       5.79042105       4.21423947
Si       4.66853231       3.17254522       4.21423947
Si       2.18742597       3.17254522       4.21423947
Si       4.66853231       5.79042105       4.21423947
16
Lattice="6.837776938940276 0.0 0.0 0.0 8.936741955839672 2.0120738060392694e-31 0.0 -6.120423621672492e-32 6.8549362287732905" Properties=species:S:1:pos:R:3 unique_starting_index=162 config_type=initial n_minim_iter=18 stress="-0.004554360731584056 -3.180489086450216e-18 -1.2721956345800864e-17 -3.180489086450216e-18 0.0043059260793422574 3.14338338044163e-16 -1.2721956345800864e-17 3.14338338044163e-16 -0.002520428206720378" pbc="T T T"
Si       2.24738646       3.26979946      -0.09422780
Si       4.59039047       5.66694250      -0.09422780
Si       2.24738646       5.66694250      -0.09422780
Si       4.59039047       3.26979946      -0.09422780
Si       1.14474027       6.16517422       1.85759422
Si       5.69303667       2.77156773       1.85759422
Si       1.14474027       2.77156773       1.85759422
Si       5.69303667       6.16517422       1.85759422
Si       1.19194225       1.16269268       3.52424678
Si       5.64583469       7.77404927       3.52424678
Si       1.19194225       7.77404927       3.52424678
Si       5.64583469       1.16269268       3.52424678
Si       2.19123768       5.79274588       4.31059517
Si       4.64653926       3.14399608       4.31059517
Si       2.19123768       3.14399608       4.31059517
Si       4.64653926       5.79274588       4.31059517
16
Lattice="7.016504440617566 0.0 0.0 0.0 7.9807822483280395 2.803368648833373e-31 0.0 -1.9222718659266918e-32 7.451140964420706" Properties=species:S:1:pos:R:3 unique_starting_index=162 config_type=initial n_minim_iter=19 stress="-0.0011090715031755302 4.78953872884096e-18 -1.553939232023956e-16 4.78953872884096e-18 -0.003560708815750313 3.3686422392848086e-16 -1.553939232023956e-16 3.3686422392848086e-16 -0.00930126685365769" pbc="T T T"
Si       2.32751407       2.79552656      -0.18966915
Si       4.68899037       5.18525569      -0.18966915
Si       2.32751407       5.18525569      -0.18966915
Si       4.68899037       2.79552656      -0.18966915
Si       1.20832866       5.25485402       2.00594189
Si       5.80817578       2.72592823       2.00594189
Si       1.20832866       2.72592823       2.00594189
Si       5.80817578       5.25485402       2.00594189
Si       1.21248565       1.12540176       3.69213150
Si       5.80401880       6.85538049       3.69213150
Si       1.21248565       6.85538049       3.69213150
Si       5.80401880       1.12540176       3.69213150
Si       2.32332240       5.23216010       4.92460362
Si       4.69318204       2.74862215       4.92460362
Si       2.32332240       2.74862215       4.92460362
Si       4.69318204       5.23216010       4.92460362
16
Lattice="7.038563342435943 0.0 0.0 0.0 7.871874588697367 2.912966570747788e-31 0.0 -1.404611077807145e-32 7.530551079461955" Properties=species:S:1:pos:R:3 unique_starting_index=162 config_type=initial n_minim_iter=20 stress="-0.0013448553217699046 6.918224154355412e-18 -1.3730014090951512e-16 6.918224154355412e-18 -0.008001603490140502 3.485720631617535e-16 -1.3730014090951512e-16 3.485720631617535e-16 -0.008930712102664905" pbc="T T T"
Si       2.33830811       2.74347392      -0.19716583
Si       4.70025524       5.12840067      -0.19716583
Si       2.33830811       5.12840067      -0.19716583
Si       4.70025524       2.74347392      -0.19716583
Si       1.21497811       5.15004747       2.02040226
Si       5.82358523       2.72182712       2.02040226
Si       1.21497811       2.72182712       2.02040226
Si       5.82358523       5.15004747       2.02040226
Si       1.21594041       1.12111449       3.71416717
Si       5.82262293       6.75076010       3.71416717
Si       1.21594041       6.75076010       3.71416717
Si       5.82262293       1.12111449       3.71416717
Si       2.33819970       5.16892353       5.00679344
Si       4.70036365       2.70295105       5.00679344
Si       2.33819970       2.70295105       5.00679344
Si       4.70036365       5.16892353       5.00679344
16
Lattice="7.080706455615078 0.0 0.0 0.0 7.825704248980106 2.979839081085054e-31 0.0 -9.985603357343366e-33 7.539896142440736" Properties=species:S:1:pos:R:3 unique_starting_index=162 config_type=initial n_minim_iter=21 stress="0.0009409308342648701 -9.034908568380219e-18 -1.87075753886461e-16 -9.034908568380219e-18 -0.01007433653873697 1.6315981944074868e-16 -1.87075753886461e-16 1.6315981944074868e-16 -0.00415050236923168" pbc="T T T"
Si       2.35822294       2.72846793      -0.19414525
Si       4.72248352       5.09723632      -0.19414525
Si       2.35822294       5.09723632      -0.19414525
Si       4.72248352       2.72846793      -0.19414525
Si       1.22225378       5.11546085       1.99262744
Si       5.85845268       2.71024340       1.99262744
Si       1.22225378       2.71024340       1.99262744
Si       5.85845268       5.11546085       1.99262744
Si       1.22653027       1.12433501       3.76696546
Si       5.85417619       6.70136924       3.76696546
Si       1.22653027       6.70136924       3.76696546
Si       5.85417619       1.12433501       3.76696546
Si       2.35760289       5.13194306       4.99183426
Si       4.72310356       2.69376119       4.99183426
Si       2.35760289       2.69376119       4.99183426
Si       4.72310356       5.13194306       4.99183426
