8
Lattice="6.04168958657589 7.711019481005121e-82 3.899922015261878e-66 -3.357961501975798e-83 6.223858274380748 -4.704322930763116e-16 8.456316986403123e-67 4.863029453523628e-16 6.041689586575889" Properties=species:S:1:pos:R:3:forces:R:3 unique_starting_index=2 config_type=initial n_minim_iter=4 energy=-26.09194926278703 stress="-1.4022639142935495e-05 1.1108516687981396e-17 -2.3876027055776175e-16 1.1108516687981396e-17 1.2350686942174597e-05 3.1274198153643444e-17 -2.3876027055776175e-16 3.1274198153643444e-17 -1.4022639142960236e-05" free_energy=-26.09194926278703 pbc="T T T"
Si       3.02044906       2.00018542       4.31398579       0.00667826       0.00031549       0.00698535
Si       3.02120183       2.00018542       1.72695219      -0.00667826       0.00031549      -0.00698535
Si       4.31434225       4.22364039       3.02084537       0.00698535      -0.00031549      -0.00667826
Si       1.72730865       4.22364039       3.02009261      -0.00698535      -0.00031549       0.00667826
Si       6.04204662       4.22364039       1.29314100      -0.00667826      -0.00031549       0.00698535
Si      -0.00039573       4.22364039       4.74779698       0.00667826      -0.00031549      -0.00698535
Si       4.74815344       2.00018542       6.04169017      -0.00698535       0.00031549      -0.00667826
Si       1.29349745       2.00018542      -0.00075219       0.00698535       0.00031549       0.00667826
