20
Lattice="5.800128357125228 -3.0769034119489167e-16 -3.8468168315720594e-14 2.7940629812247665e-16 5.266958938672126 1.3284295086479116e-15 1.4120582352110343e-13 -5.369913456316018e-15 21.290639431388545" Properties=species:S:1:pos:R:3:forces:R:3 unique_starting_index=4 config_type=initial n_minim_iter=1 energy=-60.25313816090087 stress="0.000213349073530091 2.793994295944145e-16 8.62079774121496e-16 2.793994295944145e-16 -0.00035811049822122277 -1.024009984260625e-16 8.62079774121496e-16 -1.024009984260625e-16 -6.0145434463535075e-05" free_energy=-60.25313816090087 pbc="T T T"
Si       3.32892770       2.58427678      13.53503985       0.07593880      -0.00447766      -0.01382383
Si       3.32892770       2.68268216       7.75559958       0.07593880       0.00447766       0.01382383
Si       2.34676677       1.84501567      11.51625541      -0.02009592      -0.08258059       0.05577551
Si       2.34676677       3.42194327       9.77438402      -0.02009592       0.08258059      -0.05577551
Si       2.47120066      -0.04920269      18.40091930      -0.07593880      -0.00447766       0.01382383
Si       2.47120066       5.31616163       2.88972013      -0.07593880       0.00447766      -0.01382383
Si       3.45336159       4.47849514      20.41970373       0.02009592      -0.08258059      -0.05577551
Si       3.45336159       0.78846380       0.87093570       0.02009592       0.08258059       0.05577551
Si       3.53270536       3.60512308       4.11237302      -0.06116572      -0.07895067      -0.09116468
Si       3.53270536       1.66183586      17.17826641      -0.06116572       0.07895067       0.09116468
Si       2.00028881       3.44745835      16.93168421       0.02112596      -0.11009875       0.03719090
Si       2.00028881       1.81950058       4.35895522       0.02112596       0.11009875      -0.03719090
Si       2.26742300       0.97164361       6.53294670       0.06116572      -0.07895067       0.09116468
Si       2.26742300       4.29531532      14.75769273       0.06116572       0.07895067      -0.09116468
Si       3.79983955       0.81397889      15.00427494      -0.02112596      -0.11009875      -0.03719090
Si       3.79983955       4.45298005       6.28636449      -0.02112596       0.11009875       0.03719090
Si       5.44507623       3.22387703      20.27716570      -0.00812289       0.16282916       0.01641706
Si       5.44507623       2.04308191       1.01347373      -0.00812289      -0.16282916      -0.01641706
Si       0.35505212       4.67656138       9.63184598       0.00812289      -0.16282916       0.01641706
Si       0.35505212       0.59039756      11.65879345       0.00812289       0.16282916      -0.01641706
20
Lattice="5.788641897807671 -3.0708099733749324e-16 -3.839198671711226e-14 2.803375436132611e-16 5.284513416845118 1.3347614174023615e-15 1.412847576523999e-13 -5.365217372261992e-15 21.302540910281966" Properties=species:S:1:pos:R:3:forces:R:3 unique_starting_index=4 config_type=initial n_minim_iter=2 energy=-60.25564597146644 stress="-4.6518966921678024e-05 6.410466150254681e-17 2.283099186734292e-17 6.410466150254681e-17 0.0010016292563085976 2.244089620911225e-16 2.283099186734292e-17 2.244089620911225e-16 0.0014756865690373848" free_energy=-60.25564597146644 pbc="T T T"
Si       3.32341785       2.59282585      13.54240835       0.06552315      -0.03013531       0.02278182
Si       3.32341785       2.69168757       7.76013256       0.06552315       0.03013531      -0.02278182
Si       2.34183276       1.84998134      11.52349025       0.01466366      -0.00131171       0.00641917
Si       2.34183276       3.43453207       9.77905066       0.01466366       0.00131171      -0.00641917
Si       2.46522405      -0.04943086      18.41140302      -0.06552315      -0.03013531      -0.02278182
Si       2.46522405       5.33394428       2.89113790      -0.06552315       0.03013531       0.02278182
Si       3.44680914       4.49223805      20.43032112      -0.01466366      -0.00131171      -0.00641917
Si       3.44680914       0.79227536       0.87221979      -0.01466366       0.00131171       0.00641917
Si       3.52483719       3.61600713       4.11336876      -0.06447522      -0.02289390      -0.06278043
Si       3.52483719       1.66850629      17.18917215      -0.06447522       0.02289390       0.06278043
Si       1.99662868       3.45737046      16.94168062       0.02820826      -0.03904091       0.02235406
Si       1.99662868       1.82714296       4.36086029       0.02820826       0.03904091      -0.02235406
Si       2.26380470       0.97375042       6.53790170       0.06447522      -0.02289390       0.06278043
Si       2.26380470       4.31076299      14.76463921       0.06447522       0.02289390      -0.06278043
Si       3.79201322       0.81511375      15.01213074      -0.02820826      -0.03904091      -0.02235406
Si       3.79201322       4.46939967       6.29041017      -0.02820826       0.03904091       0.02235406
Si       5.43417710       3.23695592      20.28873531       0.02107963       0.11717607       0.05566757
Si       5.43417710       2.04755750       1.01380560       0.02107963      -0.11717607      -0.05566757
Si       0.35446480       4.68981421       9.63746485      -0.02107963      -0.11717607       0.05566757
Si       0.35446480       0.59469921      11.66507606      -0.02107963       0.11717607      -0.05566757
20
Lattice="5.7767583132792995 -3.064505864305265e-16 -3.831317126654192e-14 2.8058737846421415e-16 5.289222938106005 1.208226686589164e-15 1.4079498443148968e-13 -5.8568015708479834e-15 21.228694203470994" Properties=species:S:1:pos:R:3:forces:R:3 unique_starting_index=4 config_type=initial n_minim_iter=3 energy=-60.25861698165696 stress="-0.0011743704943036385 2.0666001012680455e-16 1.3804613838180191e-17 2.0666001012680455e-16 0.000267928516769553 2.3891104165720653e-16 1.3804613838180191e-17 2.3891104165720653e-16 -0.0002994508657516721" free_energy=-60.25861698165696 pbc="T T T"
Si       3.31806237       2.59493670      13.49534237       0.09464406      -0.02113431       0.04247043
Si       3.31806237       2.69428624       7.73335184       0.09464406       0.02113431      -0.04247043
Si       2.33677215       1.85031925      11.48444576       0.04012115       0.01962715      -0.05549694
Si       2.33677215       3.43890369       9.74424844       0.04012115      -0.01962715       0.05549694
Si       2.45869594      -0.04967477      18.34769894      -0.09464406      -0.02113431      -0.04247043
Si       2.45869594       5.33889771       2.88099527      -0.09464406       0.02113431       0.04247043
Si       3.43998617       4.49493072      20.35859554      -0.04012115       0.01962715       0.05549694
Si       3.43998617       0.79429222       0.87009866      -0.04012115      -0.01962715      -0.05549694
Si       3.51636978       3.61788383       4.09741261      -0.02826569       0.00004462      -0.08774705
Si       3.51636978       1.67133911      17.13128159      -0.02826569      -0.00004462       0.08774705
Si       1.99298012       3.45854432      16.88362956      -0.01367973      -0.01388516       0.03199284
Si       1.99298012       1.83067862       4.34506464      -0.01367973       0.01388516      -0.03199284
Si       2.26038853       0.97327236       6.51693449       0.02826569       0.00004462       0.08774705
Si       2.26038853       4.31595058      14.71175971       0.02826569      -0.00004462      -0.08774705
Si       3.78377819       0.81393285      14.95941174       0.01367973      -0.01388516      -0.03199284
Si       3.78377819       4.47529008       6.26928246       0.01367973       0.01388516       0.03199284
Si       5.42298296       3.24291608      20.21889676       0.06999119       0.10249287       0.01939802
Si       5.42298296       2.04630686       1.00979745       0.06999119      -0.10249287      -0.01939802
Si       0.35377536       4.69091833       9.60454966      -0.06999119      -0.10249287       0.01939802
Si       0.35377536       0.59830461      11.62414455      -0.06999119       0.10249287      -0.01939802
20
Lattice="5.865588866908385 -3.1116294823905467e-16 -3.890232179532003e-14 2.804038129540939e-16 5.2857626295487306 1.2341453785810151e-15 1.3974761159839317e-13 -5.7121922261466305e-15 21.07077410652561" Properties=species:S:1:pos:R:3:forces:R:3 unique_starting_index=4 config_type=initial n_minim_iter=4 energy=-60.27147450339538 stress="0.0008136558026043174 1.8971562596662768e-16 -1.6825310528344532e-17 1.8971562596662768e-16 0.0010705699511948683 3.7378726911108214e-17 -1.6825310528344532e-17 3.7378726911108214e-17 -0.0010890264599502711" free_energy=-60.27147450339538 pbc="T T T"
Si       3.37850829       2.59173732      13.39573058       0.04056191       0.04117942      -0.00674001
Si       3.37850829       2.69402531       7.67504353       0.04056191      -0.04117942       0.00674001
Si       2.37285037       1.84403512      11.40116098      -0.08451904      -0.04736467      -0.09966462
Si       2.37285037       3.44172751       9.66961313      -0.08451904       0.04736467       0.09966462
Si       2.48708058      -0.05114400      18.21043058      -0.04056191       0.04117942       0.00674001
Si       2.48708058       5.33690663       2.86034352      -0.04056191      -0.04117942      -0.00674001
Si       3.49273849       4.48691644      20.20500018       0.08451904      -0.04736467       0.09966462
Si       3.49273849       0.79884619       0.86577392       0.08451904       0.04736467      -0.09966462
Si       3.56418967       3.60969544       4.05693386      -0.06486532       0.09318433      -0.05872484
Si       3.56418967       1.67606718      17.01384025      -0.06486532      -0.09318433       0.05872484
Si       2.02513597       3.44759414      16.76193682      -0.01266140       0.01521137      -0.06567842
Si       2.02513597       1.83816849       4.30883729      -0.01266140      -0.01521137       0.06567842
Si       2.30139920       0.96681413       6.47845319       0.06486532       0.09318433       0.05872484
Si       2.30139920       4.31894850      14.59232091       0.06486532      -0.09318433      -0.05872484
Si       3.84045290       0.80471283      14.84422434       0.01266140       0.01521137       0.06567842
Si       3.84045290       4.48104980       6.22654976       0.01266140      -0.01521137      -0.06567842
Si       5.50841664       3.25728971      20.07114818      -0.06554840       0.17609081      -0.00185110
Si       5.50841664       2.02847292       0.99962593      -0.06554840      -0.17609081       0.00185110
Si       0.35717223       4.67135423       9.53576113       0.06554840      -0.17609081      -0.00185110
Si       0.35717223       0.61440839      11.53501298       0.06554840       0.17609081       0.00185110
20
Lattice="5.878691894496819 -3.1185804924046737e-16 -3.898922495326412e-14 2.791654323091007e-16 5.262418488591759 1.2504948906847059e-15 1.3988180524977278e-13 -5.625352505583869e-15 21.091007469245604" Properties=species:S:1:pos:R:3:forces:R:3 unique_starting_index=4 config_type=initial n_minim_iter=5 energy=-60.2757122052459 stress="3.756153485543539e-05 1.8118814467753206e-16 5.680971830225793e-17 1.8118814467753206e-16 -0.00048641148504802986 4.068640358192157e-16 5.680971830225793e-17 4.068640358192157e-16 1.4953963664804795e-05" free_energy=-60.2757122052459 pbc="T T T"
Si       3.38942015       2.58000829      13.40883268       0.02647282       0.04113301      -0.08187953
Si       3.38942015       2.68241020       7.68217479       0.02647282      -0.04113301       0.08187953
Si       2.37774039       1.83398497      11.41227041      -0.03850903      -0.02951947      -0.07026016
Si       2.37774039       3.42843351       9.67873706      -0.03850903       0.02951947       0.07026016
Si       2.48927175      -0.05120095      18.22767852      -0.02647282       0.04113301       0.08187953
Si       2.48927175       5.31361944       2.86332895      -0.02647282      -0.04113301      -0.08187953
Si       3.50095150       4.46519422      20.22424079       0.03850903      -0.02951947       0.07026016
Si       3.50095150       0.79722427       0.86676668       0.03850903       0.02951947      -0.07026016
Si       3.56970126       3.59235933       4.05719730       0.00430753       0.14562017       0.01697005
Si       3.56970126       1.67005916      17.03381017       0.00430753      -0.14562017      -0.01697005
Si       2.03009599       3.42960342      16.77897453      -0.06292986       0.06144979      -0.16083396
Si       2.03009599       1.83281507       4.31203294      -0.06292986      -0.06144979       0.16083396
Si       2.30899063       0.96115008       6.48830644      -0.00430753       0.14562017      -0.01697005
Si       2.30899063       4.30126840      14.60270103      -0.00430753      -0.14562017       0.01697005
Si       3.84859590       0.79839418      14.85753667       0.06292986       0.06144979       0.16083396
Si       3.84859590       4.46402431       6.23347080       0.06292986      -0.06144979      -0.16083396
Si       5.52104760       3.24931464      20.09131468      -0.03858031       0.13418029       0.02799720
Si       5.52104760       2.01310384       0.99969279      -0.03858031      -0.13418029      -0.02799720
Si       0.35764429       4.64431309       9.54581094       0.03858031      -0.13418029       0.02799720
Si       0.35764429       0.61810540      11.54519653       0.03858031       0.13418029      -0.02799720
20
Lattice="5.930100382433141 -3.145852121960932e-16 -3.9330181264060195e-14 2.794472685292121e-16 5.2677312528662705 1.4642552751596456e-15 1.3907723550711818e-13 -4.7358549991959335e-15 20.969696578085852" Properties=species:S:1:pos:R:3:forces:R:3 unique_starting_index=4 config_type=initial n_minim_iter=6 energy=-60.29297718062141 stress="-0.00033222629200408446 2.6479882447586873e-16 -1.502684657950224e-16 2.6479882447586873e-16 0.0008471961126202435 4.474524370633787e-16 -1.502684657950224e-16 4.474524370633787e-16 0.000808381764993489" free_energy=-60.29297718062141 pbc="T T T"
Si       3.43410778       2.58417740      13.32715816       0.00215379      -0.08826163      -0.11078417
Si       3.43410778       2.68355385       7.64253842       0.00215379       0.08826163       0.11078417
Si       2.39446778       1.82687285      11.34232286       0.10333991       0.08555072      -0.05489078
Si       2.39446778       3.44085840       9.62737372       0.10333991      -0.08555072       0.05489078
Si       2.49599260      -0.04968823      18.12738671      -0.00215379      -0.08826163       0.11078417
Si       2.49599260       5.31741948       2.84230987      -0.00215379       0.08826163      -0.11078417
Si       3.53563260       4.46073848      20.11222201      -0.10333991       0.08555072       0.05489078
Si       3.53563260       0.80699278       0.85747457      -0.10333991      -0.08555072      -0.05489078
Si       3.59167432       3.60104288       4.02124527      -0.05296446       0.06211851       0.02085537
Si       3.59167432       1.66668837      16.94845131      -0.05296446      -0.06211851      -0.02085537
Si       2.04501944       3.42702134      16.67496719      -0.00260258       0.07149483      -0.06173758
Si       2.04501944       1.84070991       4.29472938      -0.00260258      -0.07149483       0.06173758
Si       2.33842606       0.96717726       6.46360302       0.05296446       0.06211851      -0.02085537
Si       2.33842606       4.30055400      14.50609355       0.05296446      -0.06211851       0.02085537
Si       3.88508094       0.79315571      14.77957767       0.00260258       0.07149483       0.06173758
Si       3.88508094       4.47457554       6.19011891       0.00260258      -0.07149483      -0.06173758
Si       5.56806411       3.28659005      19.98145315       0.05499574      -0.03526368       0.14898333
Si       5.56806411       1.98114121       0.98824343       0.05499574       0.03526368      -0.14898333
Si       0.36203627       4.61500683       9.49660486      -0.05499574       0.03526368       0.14898333
Si       0.36203627       0.65272442      11.47309172      -0.05499574      -0.03526368      -0.14898333
20
Lattice="5.995730751155714 -3.1806683006756183e-16 -3.976546129842996e-14 2.776693889740168e-16 5.2342172673975815 1.5889978887825874e-15 1.3866051782719204e-13 -4.182628249917592e-15 20.906864991917423" Properties=species:S:1:pos:R:3:forces:R:3 unique_starting_index=4 config_type=initial n_minim_iter=7 energy=-60.30157825082042 stress="0.0005570107321015475 2.625611569596209e-16 -3.560998337175024e-17 2.625611569596209e-16 -0.00045343566386973054 7.880611889371094e-16 -3.560998337175024e-17 7.880611889371094e-16 -0.0005514776319395278" free_energy=-60.30157825082042 pbc="T T T"
Si       3.48208017       2.56641956      13.27969645      -0.00239404      -0.10905763      -0.13743830
Si       3.48208017       2.66779771       7.62716855      -0.00239404       0.10905763       0.13743830
Si       2.42128778       1.81144741      11.30339812       0.08788316      -0.02089789       0.03300595
Si       2.42128778       3.42276986       9.60346687       0.08788316       0.02089789      -0.03300595
Si       2.51365058      -0.05068907      18.08060104       0.00239404      -0.10905763       0.13743830
Si       2.51365058       5.28490634       2.82626395       0.00239404       0.10905763      -0.13743830
Si       3.57444297       4.42855604      20.05689936      -0.08788316      -0.02089789      -0.03300595
Si       3.57444297       0.80566123       0.84996563      -0.08788316       0.02089789       0.03300595
Si       3.62369838       3.58415430       4.00170079      -0.09468088      -0.06432645      -0.01197124
Si       3.62369838       1.65006297      16.90516420      -0.09468088       0.06432645       0.01197124
Si       2.06503990       3.40374261      16.61716672       0.03273560      -0.02986206       0.02513200
Si       2.06503990       1.83047466       4.28969827       0.03273560       0.02986206      -0.02513200
Si       2.37203237       0.96704566       6.45173170       0.09468088      -0.06432645       0.01197124
Si       2.37203237       4.26717160      14.45513329       0.09468088       0.06432645      -0.01197124
Si       3.93069085       0.78663397      14.74313077      -0.03273560      -0.02986206      -0.02513200
Si       3.93069085       4.44758329       6.16373423      -0.03273560       0.02986206       0.02513200
Si       5.63017105       3.28723634      19.92969160       0.01909176      -0.03462866       0.14216417
Si       5.63017105       1.94698093       0.97717339       0.01909176       0.03462866      -0.14216417
Si       0.36555970       4.56408956       9.47625911      -0.01909176       0.03462866       0.14216417
Si       0.36555970       0.67012771      11.43060588      -0.01909176      -0.03462866      -0.14216417
20
Lattice="5.984803134346918 -3.174871321820402e-16 -3.9692986108776906e-14 2.7742607276443714e-16 5.2296306260311525 1.89102147818927e-15 1.3888522493868263e-13 -2.9701626781767007e-15 20.94074573400765" Properties=species:S:1:pos:R:3:forces:R:3 unique_starting_index=4 config_type=initial n_minim_iter=8 energy=-60.31999273022718 stress="-0.0006937528506891972 6.17354013577729e-17 2.1101928173880758e-16 6.17354013577729e-17 -0.0008556822969267952 1.0347748049580706e-15 2.1101928173880758e-16 1.0347748049580706e-15 -0.0005856387901427512" free_energy=-60.31999273022718 pbc="T T T"
Si       3.48699065       2.55317711      13.28115071       0.05004416      -0.06298820       0.13063058
Si       3.48699065       2.67645352       7.65959502       0.05004416       0.06298820      -0.13063058
Si       2.42663055       1.80677326      11.31637877       0.07165184      -0.06504425      -0.09439371
Si       2.42663055       3.42285737       9.62436697       0.07165184       0.06504425       0.09439371
Si       2.49781249      -0.06163820      18.12996789      -0.05004416      -0.06298820      -0.13063058
Si       2.49781249       5.29126883       2.81077785      -0.05004416       0.06298820       0.13063058
Si       3.55817258       4.42158857      20.09473984      -0.07165184      -0.06504425       0.09439371
Si       3.55817258       0.80804206       0.84600590      -0.07165184       0.06504425      -0.09439371
Si       3.60046240       3.58593588       3.99973755      -0.05070612       0.02143101      -0.02093651
Si       3.60046240       1.64369475      16.94100818      -0.05070612      -0.02143101       0.02093651
Si       2.06024092       3.39965926      16.63477912      -0.01117203       0.05725222       0.08590407
Si       2.06024092       1.82997137       4.30596662      -0.01117203      -0.05725222      -0.08590407
Si       2.38434073       0.97112057       6.47063531       0.05070612       0.02143101       0.02093651
Si       2.38434073       4.25851006      14.47011042       0.05070612      -0.02143101      -0.02093651
Si       3.92456221       0.78484394      14.77633948       0.01117203       0.05725222      -0.08590407
Si       3.92456221       4.44478668       6.16440625       0.01117203      -0.05725222       0.08590407
Si       5.62362734       3.30545750      19.98429785       0.05696153      -0.01528572       0.02891866
Si       5.62362734       1.92417312       0.95644789       0.05696153       0.01528572      -0.02891866
Si       0.36117579       4.53898844       9.51392498      -0.05696153       0.01528572       0.02891866
Si       0.36117579       0.69064219      11.42682075      -0.05696153      -0.01528572      -0.02891866
20
Lattice="6.044918337237141 -3.206761766564768e-16 -4.009168793065525e-14 2.7775775678770935e-16 5.235883048195421 1.5556360404042722e-15 1.384058768411813e-13 -4.308677562019427e-15 20.868470899644954" Properties=species:S:1:pos:R:3:forces:R:3 unique_starting_index=4 config_type=initial n_minim_iter=9 energy=-60.32720895066286 stress="0.0007521559450377233 -1.5011372510648265e-16 2.743943523413735e-16 -1.5011372510648265e-16 0.0005583219664895716 9.0871391170934e-16 2.743943523413735e-16 9.0871391170934e-16 0.0007948679590336992" free_energy=-60.32720895066286 pbc="T T T"
Si       3.53928387       2.54756611      13.22582560      -0.00758846      -0.03347042       0.16552625
Si       3.53928387       2.68831694       7.64264530      -0.00758846       0.03347042      -0.16552625
Si       2.45731406       1.80004734      11.27129604       0.01772742      -0.07265085      -0.11644589
Si       2.45731406       3.43583571       9.59717486       0.01772742       0.07265085       0.11644589
Si       2.50563446      -0.07037541      18.07688075       0.00758846      -0.03347042      -0.16552625
Si       2.50563446       5.30625846       2.79159015       0.00758846       0.03347042       0.16552625
Si       3.58760427       4.41798886      20.03141031      -0.01772742      -0.07265085       0.11644589
Si       3.58760427       0.81789418       0.83706059      -0.01772742       0.07265085      -0.11644589
Si       3.61820020       3.59274943       3.97186536      -0.07992636       0.09565219       0.02558808
Si       3.61820020       1.64313361      16.89660554      -0.07992636      -0.09565219      -0.02558808
Si       2.08044643       3.39873803      16.57353922       0.00419436       0.09225112       0.03715942
Si       2.08044643       1.83714502       4.29493168       0.00419436      -0.09225112      -0.03715942
Si       2.42671814       0.97480791       6.46237009       0.07992636       0.09565219      -0.02558808
Si       2.42671814       4.26107514      14.40610081       0.07992636      -0.09565219       0.02558808
Si       3.96447191       0.78079650      14.72916712      -0.00419436       0.09225112      -0.03715942
Si       3.96447191       4.45508654       6.13930377      -0.00419436      -0.09225112       0.03715942
Si       5.68387924       3.34017469      19.93289227      -0.02205297      -0.02000114       0.03855747
Si       5.68387924       1.89570836       0.93557863      -0.02205297       0.02000114      -0.03855747
Si       0.36103910       4.51364989       9.49865682       0.02205297       0.02000114       0.03855747
Si       0.36103910       0.72223316      11.36981408       0.02205297      -0.02000114      -0.03855747
20
Lattice="5.981814000387686 -3.173285619589123e-16 -3.9673161287464645e-14 2.80461731428696e-16 5.286854423933915 1.446130755589149e-15 1.3818775986446727e-13 -4.7943966080023034e-15 20.83558380059085" Properties=species:S:1:pos:R:3:forces:R:3 unique_starting_index=4 config_type=initial n_minim_iter=10 energy=-60.34475182896578 stress="-0.0003454105990010652 -2.5783217847989e-16 4.017534878731119e-16 -2.5783217847989e-16 0.00044343527831394166 1.1254596601079024e-15 4.017534878731119e-16 1.1254596601079024e-15 5.9396077754869456e-05" free_energy=-60.34475182896578 pbc="T T T"
Si       3.51534545       2.55494444      13.20313053      -0.02222230       0.01407757       0.06295716
Si       3.51534545       2.73190998       7.63245327      -0.02222230      -0.01407757      -0.06295716
Si       2.44766977       1.80582372      11.23393163       0.12183168       0.01020354      -0.04748127
Si       2.44766977       3.48103070       9.60165218       0.12183168      -0.01020354       0.04748127
Si       2.46646855      -0.08848277      18.05024517       0.02222230       0.01407757      -0.06295716
Si       2.46646855       5.37533720       2.78533863       0.02222230      -0.01407757       0.06295716
Si       3.53414423       4.44925094      20.01944408      -0.12183168       0.01020354       0.04748127
Si       3.53414423       0.83760349       0.81613972      -0.12183168      -0.01020354      -0.04748127
Si       3.55477498       3.64185735       3.95869196      -0.04970001       0.01670757       0.02835923
Si       3.55477498       1.64499707      16.87689184      -0.04970001      -0.01670757      -0.02835923
Si       2.05689048       3.44201391      16.54492641      -0.01269669      -0.07206424      -0.00386807
Si       2.05689048       1.84484051       4.29065739      -0.01269669       0.07206424       0.00386807
Si       2.42703903       0.99843014       6.45909994       0.04970001       0.01670757      -0.02835923
Si       2.42703903       4.28842428      14.37648386       0.04970001      -0.01670757       0.02835923
Si       3.92492352       0.79858670      14.70844929       0.01269669      -0.07206424       0.00386807
Si       3.92492352       4.48826773       6.12713451       0.01269669       0.07206424      -0.00386807
Si       5.63013177       3.39005951      19.92817441       0.05717701       0.01931872      -0.07895899
Si       5.63013177       1.89679492       0.90740939       0.05717701      -0.01931872       0.07895899
Si       0.35168223       4.54022213       9.51038251      -0.05717701      -0.01931872      -0.07895899
Si       0.35168223       0.74663230      11.32520129      -0.05717701       0.01931872       0.07895899
20
Lattice="6.000671334766142 -3.183289225184896e-16 -3.9798228711526714e-14 2.8022941552769137e-16 5.282475144298528 1.1960569762791852e-15 1.3794175320035668e-13 -5.791009376234712e-15 20.798491568466776" Properties=species:S:1:pos:R:3:forces:R:3 unique_starting_index=4 config_type=initial n_minim_iter=11 energy=-60.34770345766394 stress="3.59044539793762e-05 -2.311273816997566e-16 3.5577798527335796e-16 -2.311273816997566e-16 5.6064209132356686e-05 1.1141041650925635e-15 3.5577798527335796e-16 1.1141041650925635e-15 2.918990121991627e-06" free_energy=-60.34770345766394 pbc="T T T"
Si       3.53184330       2.55005923      13.17880641      -0.02826592       0.01043895       0.01572503
Si       3.53184330       2.73241591       7.61968516      -0.02826592      -0.01043895      -0.01572503
Si       2.45934319       1.80040923      11.21025559       0.09571175      -0.01352674      -0.01495370
Si       2.45934319       3.48206592       9.58823598       0.09571175       0.01352674       0.01495370
Si       2.46882803      -0.09117834      18.01893094       0.02826592       0.01043895      -0.01572503
Si       2.46882803       5.37365348       2.77956062       0.02826592      -0.01043895       0.01572503
Si       3.54132814       4.44164680      19.98748177      -0.09571175      -0.01352674       0.01495370
Si       3.54132814       0.84082835       0.81100980      -0.09571175       0.01352674      -0.01495370
Si       3.55854291       3.64088716       3.94753892      -0.02640435       0.01394933       0.04401918
Si       3.55854291       1.64158798      16.85095265      -0.02640435      -0.01394933      -0.04401918
Si       2.06279677       3.43719747      16.51435355      -0.02670105      -0.07865279      -0.02961365
Si       2.06279677       1.84527767       4.28413802      -0.02670105       0.07865279       0.02961365
Si       2.44212843       0.99964959       6.45170686       0.02640435       0.01394933      -0.04401918
Si       2.44212843       4.28282555      14.34678470       0.02640435      -0.01394933       0.04401918
Si       3.93787457       0.79595990      14.68338380       0.02670105      -0.07865279       0.02961365
Si       3.93787457       4.48651524       6.11510777       0.02670105       0.07865279      -0.02961365
Si       5.64969375       3.39795162      19.89750305       0.01909555       0.01420925      -0.05780858
Si       5.64969375       1.88452352       0.90098852       0.01909555      -0.01420925       0.05780858
Si       0.35097759       4.52576109       9.49825726      -0.01909555      -0.01420925      -0.05780858
Si       0.35097759       0.75671405      11.30023431      -0.01909555       0.01420925       0.05780858
20