20
Lattice="4.894143398627503 -2.596288494769422e-16 -3.2459407866128235e-14 2.8178683456994737e-16 5.3118333305741485 1.2574670156944363e-14 1.3161169877479055e-13 -4.697672690574493e-14 19.844062756700687" Properties=species:S:1:pos:R:3:forces:R:3 unique_starting_index=4 config_type=initial n_minim_iter=1 energy=-65.16406643718561 stress="-0.0010674816087560693 -3.2557587937473436e-16 6.768145865312035e-16 -3.2557587937473436e-16 0.01591872918017622 -3.11329219310633e-16 6.768145865312035e-16 -3.11329219310633e-16 -0.013487161546594401" free_energy=-65.16406643718561 pbc="T T T"
Si       3.40824241       2.06650588      12.65250775       0.21252105       0.63574447       0.50769765
Si       3.40824241       3.24532745       7.19155501       0.21252105      -0.63574447      -0.50769765
Si       2.68098045       1.69313989      10.47424904       0.14221392      -0.78952760       0.08722348
Si       2.68098045       3.61869344       9.36981372       0.14221392       0.78952760      -0.08722348
Si       1.48590098      -0.58941079      17.11358639      -0.21252105       0.63574447      -0.50769765
Si       1.48590098       5.90124412       2.73047637      -0.21252105      -0.63574447       0.50769765
Si       2.21316294       4.34905655      19.29184510      -0.14221392      -0.78952760      -0.08722348
Si       2.21316294       0.96277678       0.55221766      -0.14221392       0.78952760       0.08722348
Si       2.83872657       4.12808752       3.62193121      -0.54173558       0.18617746      -0.17598084
Si       2.83872657       1.18374581      16.22213155      -0.54173558      -0.18617746       0.17598084
Si       1.39483464       2.95124439      15.59021998      -0.09330154      -0.28917449       0.30654647
Si       1.39483464       2.36058894       4.25384278      -0.09330154       0.28917449      -0.30654647
Si       2.05541683       1.47217086       6.30010017       0.54173558       0.18617746       0.17598084
Si       2.05541683       3.83966248      13.54396259       0.54173558      -0.18617746      -0.17598084
Si       3.49930876       0.29532773      14.17587416       0.09330154      -0.28917449      -0.30654647
Si       3.49930876       5.01650560       5.66818860       0.09330154       0.28917449       0.30654647
Si       4.55216061       3.82953908      19.31216444       0.52415201      -0.99330507       0.98340158
Si       4.55216061       1.48229425       0.53189832       0.52415201       0.99330507      -0.98340158
Si       0.34198279       4.13821092       9.39013306      -0.52415201       0.99330507       0.98340158
Si       0.34198279       1.17362241      10.45392970      -0.52415201      -0.99330507      -0.98340158
20
Lattice="4.907288722147651 -2.6032619423036805e-16 -3.254659154321304e-14 2.707378147469646e-16 5.103553366552957 1.1774542477404036e-14 1.3614846670639575e-13 -4.974320551930376e-14 20.52810458873732" Properties=species:S:1:pos:R:3:forces:R:3 unique_starting_index=4 config_type=initial n_minim_iter=2 energy=-65.44466565414263 stress="-0.0005770010577966305 -1.3642884609028667e-16 -1.5316964238330057e-17 -1.3642884609028667e-16 0.0005594041089306517 -3.918317012644507e-17 -1.5316964238330057e-17 -3.918317012644507e-17 0.00742752203813951" free_energy=-65.44466565414263 pbc="T T T"
Si       3.41843464       1.98845219      13.09120865       0.24165844       0.44103527      -0.40489875
Si       3.41843464       3.11510118       7.43689594       0.24165844      -0.44103527       0.40489875
Si       2.68887593       1.62305609      10.83574486       0.43415423      -1.59663677       0.96986044
Si       2.68887593       3.48049728       9.69235973       0.43415423       1.59663677      -0.96986044
Si       1.48885408      -0.56332450      17.70094823      -0.24165844       0.44103527       0.40489875
Si       1.48885408       5.66687786       2.82715636      -0.24165844      -0.44103527      -0.40489875
Si       2.21841279       4.17483277      19.95641202      -0.43415423      -1.59663677      -0.96986044
Si       2.21841279       0.92872060       0.57169257      -0.43415423       1.59663677       0.96986044
Si       2.84370542       3.96709417       3.74589556       0.05167129       0.32845267       0.35036900
Si       2.84370542       1.13645920      16.78220902       0.05167129      -0.32845267      -0.35036900
Si       1.39812539       2.83417116      16.12917280      -0.23066434      -0.05387528      -0.31366272
Si       1.39812539       2.26938220       4.39893179      -0.23066434       0.05387528       0.31366272
Si       2.06358331       1.41531749       6.51815673      -0.05167129       0.32845267      -0.35036900
Si       2.06358331       3.68823588      14.00994786      -0.05167129      -0.32845267       0.35036900
Si       3.50916333       0.28239448      14.66298408       0.23066434      -0.05387528       0.31366272
Si       3.50916333       4.82115889       5.86512051       0.23066434       0.05387528      -0.31366272
Si       4.56694728       3.67473223      19.98282634       0.70212871      -0.28210256       0.67661258
Si       4.56694728       1.42882114       0.54527825       0.70212871       0.28210256      -0.67661258
Si       0.34034144       3.98059782       9.71877405      -0.70212871       0.28210256       0.67661258
Si       0.34034144       1.12295554      10.80933054      -0.70212871      -0.28210256      -0.67661258
20
Lattice="4.9248969513840635 -2.6126029115509966e-16 -3.266337453220147e-14 2.649589040464744e-16 4.994617792894003 1.146280807483052e-14 1.3439162683164225e-13 -4.929230441492632e-14 20.263212933573655" Properties=species:S:1:pos:R:3:forces:R:3 unique_starting_index=4 config_type=initial n_minim_iter=3 energy=-65.57393695977281 stress="-0.00748986031358966 1.6668014777152674e-16 -8.686085777189043e-17 1.6668014777152674e-16 -0.01176889393011524 -6.308940712469232e-16 -8.686085777189043e-17 -6.308940712469232e-16 -0.010461460739850244" free_energy=-65.57393695977281 pbc="T T T"
Si       3.43308162       1.95048485      12.92021182       0.40955050       0.57700153      -0.32683318
Si       3.43308162       3.04413295       7.34300112       0.40955050      -0.57700153       0.32683318
Si       2.70223331       1.57555894      10.70401764       0.14503776      -2.25085270       0.62937054
Si       2.70223331       3.41905885       9.55919530       0.14503776       2.25085270      -0.62937054
Si       1.49181533      -0.54682405      17.47460758      -0.40955050       0.57700153       0.32683318
Si       1.49181533       5.54144184       2.78860535      -0.40955050      -0.57700153      -0.32683318
Si       2.22266364       4.07286784      19.69080176      -0.14503776      -2.25085270      -0.62937054
Si       2.22266364       0.92174995       0.57241117      -0.14503776       2.25085270       0.62937054
Si       2.85302513       3.88511309       3.69998414       0.26636827       0.13361849       0.09499573
Si       2.85302513       1.10950471      16.56322880       0.26636827      -0.13361849      -0.09499573
Si       1.40112933       2.77265993      15.91923205      -0.46549828      -0.29175708      -0.35289894
Si       1.40112933       2.22195786       4.34398089      -0.46549828       0.29175708       0.35289894
Si       2.07187182       1.38780419       6.43162233      -0.26636827       0.13361849      -0.09499573
Si       2.07187182       3.60681360      13.83159060      -0.26636827      -0.13361849       0.09499573
Si       3.52376762       0.27535103      14.47558735       0.46549828      -0.29175708       0.35289894
Si       3.52376762       4.71926676       5.78762558       0.46549828       0.29175708      -0.35289894
Si       4.59003088       3.59213112      19.73283981       0.43373339       0.18638851       0.49676730
Si       4.59003088       1.40248667       0.53037312       0.43373339      -0.18638851      -0.49676730
Si       0.33486607       3.89979557       9.60123334      -0.43373339      -0.18638851       0.49676730
Si       0.33486607       1.09482222      10.66197959      -0.43373339       0.18638851      -0.49676730
20
Lattice="5.041584371655249 -2.6745042867374654e-16 -3.343728004720867e-14 2.611758671372302e-16 4.923305513255584 1.146455392582673e-14 1.342908024885768e-13 -4.859364097126424e-14 20.248010906628355" Properties=species:S:1:pos:R:3:forces:R:3 unique_starting_index=4 config_type=initial n_minim_iter=4 energy=-65.91620562493463 stress="0.008093808119575939 2.388020334069502e-16 -1.0442936533946389e-16 2.388020334069502e-16 -0.005497444348744177 -9.640071610513372e-16 -1.0442936533946389e-16 -9.640071610513372e-16 -0.0104174099180526" free_energy=-65.91620562493463 pbc="T T T"
Si       3.52088846       1.93315810      12.90514289       0.42595737       0.51668110      -0.29513588
Si       3.52088846       2.99014741       7.34286801       0.42595737      -0.51668110       0.29513588
Si       2.77403848       1.52056555      10.71405594      -0.12561865      -2.32904119       0.04683521
Si       2.77403848       3.40273997       9.53395497      -0.12561865       2.32904119      -0.04683521
Si       1.52069591      -0.52849465      17.46687347      -0.42595737       0.51668110       0.29513588
Si       1.52069591       5.45180017       2.78113744      -0.42595737      -0.51668110      -0.29513588
Si       2.26754589       3.98221830      19.65796042       0.12561865      -2.32904119      -0.04683521
Si       2.26754589       0.94108721       0.59005048       0.12561865       2.32904119       0.04683521
Si       2.92014756       3.83514104       3.70217838       0.14117554      -0.04327558       0.00757213
Si       2.92014756       1.08816448      16.54583253       0.14117554       0.04327558      -0.00757213
Si       1.42831088       2.73005359      15.90226658      -0.36478702      -0.43677963      -0.26977775
Si       1.42831088       2.19325193       4.34574432      -0.36478702       0.43677963       0.26977775
Si       2.12143681       1.37348828       6.42182708      -0.14117554      -0.04327558      -0.00757213
Si       2.12143681       3.54981723      13.82618383      -0.14117554       0.04327558       0.00757213
Si       3.61327349       0.26840083      14.46974978       0.36478702      -0.43677963       0.26977775
Si       3.61327349       4.65490468       5.77826113       0.36478702       0.43677963      -0.26977775
Si       4.71363612       3.53386310      19.73509156       0.20978157       1.01251775       0.12612192
Si       4.71363612       1.38944241       0.51291935       0.20978157      -1.01251775      -0.12612192
Si       0.32794825       3.85109517       9.61108611      -0.20978157      -1.01251775       0.12612192
Si       0.32794825       1.07221035      10.63692480      -0.20978157       1.01251775      -0.12612192
20
Lattice="5.013458572761066 -2.6595838640759886e-16 -3.325074142267225e-14 2.5521015367323154e-16 4.810848607073532 1.2829786798059418e-14 1.3575522455693847e-13 -4.303270156713972e-14 20.468812580776092" Properties=species:S:1:pos:R:3:forces:R:3 unique_starting_index=4 config_type=initial n_minim_iter=5 energy=-66.41297169417119 stress="-0.007451649488573489 4.023067574545382e-16 -5.673826396697432e-17 4.023067574545382e-16 -0.0053487508781310394 -1.55215901066064e-15 -5.673826396697432e-17 -1.55215901066064e-15 -0.01033285989920577" free_energy=-66.41297169417119 pbc="T T T"
Si       3.51481589       1.90902333      13.03423675       0.49035705       0.11101258       0.04439801
Si       3.51481589       2.90182528       7.43457583       0.49035705      -0.11101258      -0.04439801
Si       2.77120711       1.41984666      10.86250467      -0.38035265      -1.42891515      -0.78339875
Si       2.77120711       3.39100195       9.60630791      -0.38035265       1.42891515       0.78339875
Si       1.49864268      -0.49640097      17.66898212      -0.49035705       0.11101258      -0.04439801
Si       1.49864268       5.30724958       2.79983046      -0.49035705      -0.11101258       0.04439801
Si       2.24225146       3.82527096      19.84071420       0.38035265      -1.42891515       0.78339875
Si       2.24225146       0.98557765       0.62809838       0.38035265       1.42891515      -0.78339875
Si       2.90346743       3.75665929       3.75175787       0.48343716      -0.20933599       0.00172645
Si       2.90346743       1.05418932      16.71705471       0.48343716       0.20933599      -0.00172645
Si       1.40826663       2.66058152      16.06524190      -0.49616062      -0.21022784      -0.14067799
Si       1.40826663       2.15026709       4.40357068      -0.49616062       0.21022784       0.14067799
Si       2.10999114       1.35123499       6.48264842      -0.48343716      -0.20933599      -0.00172645
Si       2.10999114       3.45961362      13.98616416      -0.48343716       0.20933599       0.00172645
Si       3.60519194       0.25515722      14.63797697       0.49616062      -0.21022784       0.14067799
Si       3.60519194       4.55569139       5.83083561       0.49616062       0.21022784      -0.14067799
Si       4.71430833       3.44728827      19.98041156      -0.15912303       1.62332923      -0.21314654
Si       4.71430833       1.36356034       0.48840102      -0.15912303      -1.62332923       0.21314654
Si       0.29915025       3.76898464       9.74600527       0.15912303      -1.62332923      -0.21314654
Si       0.29915025       1.04186396      10.72280731       0.15912303       1.62332923       0.21314654
20
Lattice="5.140122522023086 -2.726777676637466e-16 -3.4090814231366026e-14 2.463963981561675e-16 4.644704576980965 1.3724641848846246e-14 1.3703575968910731e-13 -3.8939885595423765e-14 20.661888270563303" Properties=species:S:1:pos:R:3:forces:R:3 unique_starting_index=4 config_type=initial n_minim_iter=6 energy=-66.81260661583808 stress="0.003851413887657163 4.488912639626679e-16 -2.2892910980789833e-16 4.488912639626679e-16 -0.004996230407454432 -1.5613735590033596e-15 -2.2892910980789833e-16 -1.5613735590033596e-15 -0.004104136461597943" free_energy=-66.81260661583808 pbc="T T T"
Si       3.62298724       1.85978593      13.14733788       0.46910249       0.06062779      -0.06031098
Si       3.62298724       2.78491865       7.51455039       0.46910249      -0.06062779       0.06031098
Si       2.84768875       1.30223611      10.98011067      -0.56821463      -1.02172876      -1.05925896
Si       2.84768875       3.34246847       9.68177760      -0.56821463       1.02172876       1.05925896
Si       1.51713528      -0.46256636      17.84549452      -0.46910249       0.06062779       0.06031098
Si       1.51713528       5.10727094       2.81639375      -0.46910249      -0.06062779      -0.06031098
Si       2.29243377       3.62458840      20.01272173       0.56821463      -1.02172876       1.05925896
Si       2.29243377       1.02011618       0.64916654       0.56821463       1.02172876      -1.05925896
Si       2.98354397       3.63294567       3.79774501       0.42857858      -0.32888753      -0.07130256
Si       2.98354397       1.01175891      16.86414326       0.42857858       0.32888753       0.07130256
Si       1.42639652       2.56189518      16.20564367      -0.40138931      -0.42237980      -0.01896207
Si       1.42639652       2.08280939       4.45624460      -0.40138931       0.42237980       0.01896207
Si       2.15657855       1.31059338       6.53319913      -0.42857858      -0.32888753       0.07130256
Si       2.15657855       3.33411120      14.12868914      -0.42857858       0.32888753      -0.07130256
Si       3.71372600       0.23954289      14.78718874       0.40138931      -0.42237980       0.01896207
Si       3.71372600       4.40516168       5.87469953       0.40138931       0.42237980      -0.01896207
Si       4.85625530       3.34293704      20.19212103      -0.33924169       2.51772635      -0.96688866
Si       4.85625530       1.30176754       0.46976724      -0.33924169      -2.51772635       0.96688866
Si       0.28386722       3.62411983       9.86117689       0.33924169      -2.51772635      -0.96688866
Si       0.28386722       1.02058475      10.80071138       0.33924169       2.51772635       0.96688866
20
Lattice="5.227110865489232 -2.772924022776402e-16 -3.466774667698183e-14 2.413246132777987e-16 4.54909870524875 1.6143247131234544e-14 1.379945509260092e-13 -2.9687051087836196e-14 20.80645226945365" Properties=species:S:1:pos:R:3:forces:R:3 unique_starting_index=4 config_type=initial n_minim_iter=7 energy=-67.31937940827542 stress="0.011939335497411822 2.1558015584234239e-16 -1.6424621761671276e-16 2.1558015584234239e-16 0.0008002422564732577 -2.2928719105744353e-15 -1.6424621761671276e-16 -2.2928719105744353e-15 0.004880794358086641" free_energy=-67.31937940827542 pbc="T T T"
Si       3.70946655       1.83680585      13.23029633       0.33651666      -0.08599709      -0.11163964
Si       3.70946655       2.71229285       7.57615594       0.33651666       0.08599709       0.11163964
Si       2.89394750       1.20695178      11.05513272      -0.63990406      -0.19144882      -0.99924111
Si       2.89394750       3.34214693       9.75131955      -0.63990406       0.19144882       0.99924111
Si       1.51764432      -0.43774350      17.97938208      -0.33651666      -0.08599709       0.11163964
Si       1.51764432       4.98684220       2.82707019      -0.33651666       0.08599709      -0.11163964
Si       2.33316336       3.48150113      20.15454569       0.63990406      -0.19144882       0.99924111
Si       2.33316336       1.06759758       0.65190658       0.63990406       0.19144882      -0.99924111
Si       3.04666700       3.56084258       3.83376590       0.20018849      -0.35758126      -0.16266328
Si       3.04666700       0.98825613      16.97268637       0.20018849       0.35758126       0.16266328
Si       1.42825390       2.49934612      16.30949088      -0.25025723      -0.49706806       0.19257542
Si       1.42825390       2.04975259       4.49696139      -0.25025723       0.49706806      -0.19257542
Si       2.18044387       1.28629323       6.56946024      -0.20018849      -0.35758126       0.16266328
Si       2.18044387       3.26280548      14.23699203      -0.20018849       0.35758126      -0.16266328
Si       3.79885696       0.22479677      14.90018753       0.25025723      -0.49706806      -0.19257542
Si       3.79885696       4.32430194       5.90626474       0.25025723       0.49706806       0.19257542
Si       4.95538120       3.31181576      20.34034828      -0.41432396       2.25274888      -1.26397490
Si       4.95538120       1.23728295       0.46610399      -0.41432396      -2.25274888       1.26397490
Si       0.27172966       3.51183230       9.93712215       0.41432396      -2.25274888      -1.26397490
Si       0.27172966       1.03726641      10.86933012       0.41432396       2.25274888       1.26397490
20
Lattice="5.264504196039972 -2.7927607676338786e-16 -3.491575031499599e-14 2.3917067547229677e-16 4.508495819580827 1.8121453582472668e-14 1.3764523200904517e-13 -2.193444311450487e-14 20.75378288994708" Properties=species:S:1:pos:R:3:forces:R:3 unique_starting_index=4 config_type=initial n_minim_iter=8 energy=-67.9932872496248 stress="0.013805140433454072 1.8190205765066524e-16 7.170855413961603e-17 1.8190205765066524e-16 0.008349963880438793 -2.9109451607297277e-15 7.170855413961603e-17 -2.9109451607297277e-15 0.0112179623426139" free_energy=-67.9932872496248 pbc="T T T"
Si       3.76765165       1.83062095      13.18999081       0.16763379      -0.20356426      -0.20295936
Si       3.76765165       2.67787487       7.56379208       0.16763379       0.20356426       0.20295936
Si       2.89574249       1.13609663      10.99777554      -0.60263528       0.61516069      -0.48853542
Si       2.89574249       3.37239919       9.75600735      -0.60263528      -0.61516069       0.48853542
Si       1.49685254      -0.42362696      17.94068352      -0.16763379      -0.20356426       0.20295936
Si       1.49685254       4.93212278       2.81309937      -0.16763379       0.20356426      -0.20295936
Si       2.36876171       3.39034454      20.13289880       0.60263528       0.61516069       0.48853542
Si       2.36876171       1.11815128       0.62088409       0.60263528      -0.61516069      -0.48853542
Si       3.08802782       3.52514771       3.82778750      -0.09433184      -0.33376765      -0.29645056
Si       3.08802782       0.98334811      16.92599539      -0.09433184       0.33376765       0.29645056
Si       1.40982077       2.46242587      16.26499176      -0.11237635      -0.56020688       0.34904417
Si       1.40982077       2.04606995       4.48879113      -0.11237635       0.56020688      -0.34904417
Si       2.17647638       1.27089980       6.54910394       0.09433184      -0.33376765       0.29645056
Si       2.17647638       3.23759602      14.20467895       0.09433184       0.33376765      -0.29645056
Si       3.85468343       0.20817796      14.86568258       0.11237635      -0.56020688      -0.34904417
Si       3.85468343       4.30031786       5.88810031       0.11237635       0.56020688       0.34904417
Si       4.99343028       3.34798777      20.26803058      -0.35940799       0.96331367      -1.09390876
Si       4.99343028       1.16050805       0.48575231      -0.35940799      -0.96331367       1.09390876
Si       0.27107391       3.41475596       9.89113914       0.35940799      -0.96331367      -1.09390876
Si       0.27107391       1.09373986      10.86264375       0.35940799       0.96331367       1.09390876
20
Lattice="5.2333507667240164 -2.7762342207964983e-16 -3.470913154921223e-14 2.387978529012595e-16 4.501467913673027 2.106027995059927e-14 1.3554636208326115e-13 -9.764674431857929e-15 20.437320851138235" Properties=species:S:1:pos:R:3:forces:R:3 unique_starting_index=4 config_type=initial n_minim_iter=9 energy=-68.53218117361848 stress="0.001986189194376031 3.0250435909278673e-16 -6.283405290503771e-17 3.0250435909278673e-16 0.007874661137411811 -3.593784491192812e-15 -6.283405290503771e-17 -3.593784491192812e-15 0.007112638026376168" free_energy=-68.53218117361848 pbc="T T T"
Si       3.76559759       1.82442206      12.98574761       0.14207723      -0.11676834      -0.30005628
Si       3.76559759       2.67704586       7.45157324       0.14207723       0.11676834       0.30005628
Si       2.84611666       1.12435817      10.78943427      -0.45708894       0.61059409       0.09289306
Si       2.84611666       3.37710974       9.64788658      -0.45708894      -0.61059409      -0.09289306
Si       1.46775318      -0.42631190      17.67023367      -0.14207723      -0.11676834       0.30005628
Si       1.46775318       4.92777981       2.76708718      -0.14207723       0.11676834      -0.30005628
Si       2.38723411       3.37509213      19.86654701       0.45708894       0.61059409      -0.09289306
Si       2.38723411       1.12637578       0.57077384       0.45708894      -0.61059409       0.09289306
Si       3.08423705       3.50800104       3.75948230      -0.12350971      -0.22068025      -0.37876205
Si       3.08423705       0.99346687      16.67783855      -0.12350971       0.22068025       0.37876205
Si       1.38157371       2.44329724      16.02513368      -0.15236323      -0.60068639       0.22892971
Si       1.38157371       2.05817067       4.41218717      -0.15236323       0.60068639      -0.22892971
Si       2.14911371       1.25726709       6.45917812       0.12350971      -0.22068025       0.37876205
Si       2.14911371       3.24420083      13.97814273       0.12350971       0.22068025      -0.37876205
Si       3.85177706       0.19256329      14.63084760       0.15236323      -0.60068639      -0.22892971
Si       3.85177706       4.30890463       5.80647325       0.15236323       0.60068639       0.22892971
Si       4.94458008       3.39751956      19.91408179      -0.17319297      -0.10637617      -0.69760072
Si       4.94458008       1.10394835       0.52323906      -0.17319297       0.10637617       0.69760072
Si       0.28877068       3.35468231       9.69542137       0.17319297       0.10637617      -0.69760072
Si       0.28877068       1.14678561      10.74189949       0.17319297      -0.10637617       0.69760072
20
Lattice="5.282290440829328 -2.802196172148235e-16 -3.503371395582166e-14 2.337341006873078e-16 4.406013461983881 2.210033060670044e-14 1.325902015422581e-13 -3.953341285903279e-15 19.99159880788038" Properties=species:S:1:pos:R:3:forces:R:3 unique_starting_index=4 config_type=initial n_minim_iter=10 energy=-68.8142729386429 stress="-0.0017406709981152336 3.092126808779753e-16 3.586979254627616e-18 3.092126808779753e-16 -0.00696308850192118 -4.708958258779433e-15 3.586979254627616e-18 -4.708958258779433e-15 -0.0030372540488397123" free_energy=-68.8142729386429 pbc="T T T"
Si       3.82045826       1.77995225      12.69212700       0.25488374       0.08555433      -0.55369499
Si       3.82045826       2.62606121       7.29947181       0.25488374      -0.08555433       0.55369499
Si       2.83075332       1.10504723      10.52253750      -0.38458867       0.40661609       0.78805644
Si       2.83075332       3.30096623       9.46906131      -0.38458867      -0.40661609      -0.78805644
Si       1.46183218      -0.42305448      17.29527121      -0.25488374       0.08555433       0.55369499
Si       1.46183218       4.82906794       2.69632760      -0.25488374      -0.08555433      -0.55369499
Si       2.45153712       3.30805396      19.46486072       0.38458867       0.40661609      -0.78805644
Si       2.45153712       1.09795950       0.52673809       0.38458867      -0.40661609       0.78805644
Si       3.12366387       3.41882670       3.65700751       0.02927588      -0.09811485      -0.41031574
Si       3.12366387       0.98718676      16.33459130       0.02927588       0.09811485       0.41031574
Si       1.37376096       2.36830721      15.68669756      -0.25356863      -0.71089238      -0.12836610
Si       1.37376096       2.03770625       4.30490125      -0.25356863       0.71089238       0.12836610
Si       2.15862658       1.21581997       6.33879190      -0.02927588      -0.09811485       0.41031574
Si       2.15862658       3.19019350      13.65280691      -0.02927588       0.09811485      -0.41031574
Si       3.90852948       0.16530048      14.30070065       0.25356863      -0.71089238       0.12836610
Si       3.90852948       4.24071298       5.69089816       0.25356863       0.71089238      -0.12836610
Si       4.96571710       3.36823348      19.42276679       0.00279301      -0.87469791      -0.58476072
Si       4.96571710       1.03777998       0.56883201       0.00279301       0.87469791       0.58476072
Si       0.31657334       3.24078671       9.42696739      -0.00279301       0.87469791      -0.58476072
Si       0.31657334       1.16522675      10.56463142      -0.00279301      -0.87469791       0.58476072
20
Lattice="5.260878397406793 -2.790837321894621e-16 -3.489170294509111e-14 2.3645046060933736e-16 4.457218306929773 2.2305061428312765e-14 1.3177124363497864e-13 -2.698763404484335e-15 19.868118507432644" Properties=species:S:1:pos:R:3:forces:R:3 unique_starting_index=4 config_type=initial n_minim_iter=11 energy=-68.91841438063086 stress="-0.0085064521969101 3.5679955441125075e-16 1.2512756241331527e-16 3.5679955441125075e-16 0.003447238353066009 -4.17903361105651e-15 1.2512756241331527e-16 -4.17903361105651e-15 0.00019849795419040248" free_energy=-68.91841438063086 pbc="T T T"
Si       3.80584759       1.79330364      12.60793366       0.21938024       0.14084441      -0.37537452
Si       3.80584759       2.66391466       7.26018484       0.21938024      -0.14084441       0.37537452
Si       2.80059419       1.14794788      10.45370755      -0.21666956      -0.31690976       0.65410954
Si       2.80059419       3.30927042       9.41441096      -0.21666956       0.31690976      -0.65410954
Si       1.45503081      -0.43530551      17.19424410      -0.21938024       0.14084441       0.37537452
Si       1.45503081       4.89252382       2.67387441      -0.21938024      -0.14084441      -0.37537452
Si       2.46028420       3.37655704      19.34847021       0.21666956      -0.31690976      -0.65410954
Si       2.46028420       1.08066127       0.51964830       0.21666956       0.31690976       0.65410954
Si       3.11042088       3.45166620       3.62030418       0.01325623       0.06861914      -0.27080257
Si       3.11042088       1.00555210      16.24781433       0.01325623      -0.06861914       0.27080257
Si       1.36648006       2.38638595      15.59540566      -0.19506423      -0.55037838      -0.21631855
Si       1.36648006       2.07083236       4.27271285      -0.19506423       0.55037838       0.21631855
Si       2.15045751       1.22305705       6.31375508      -0.01325623       0.06861914       0.27080257
Si       2.15045751       3.23416126      13.55436343      -0.01325623      -0.06861914      -0.27080257
Si       3.89439834       0.15777679      14.20677211       0.19506423      -0.55037838       0.21631855
Si       3.89439834       4.29944151       5.66134640       0.19506423       0.55037838      -0.21631855
Si       4.93075780       3.40423450      19.27429447       0.17736096      -0.73977920      -0.08676226
Si       4.93075780       1.05298381       0.59382404       0.17736096       0.73977920       0.08676226
Si       0.33012060       3.28159296       9.34023521      -0.17736096       0.73977920      -0.08676226
Si       0.33012060       1.17562535      10.52788329      -0.17736096      -0.73977920       0.08676226
20