1
Lattice="2.4651501770759916 2.0006121141792473e-17 2.3414107001542078e-52 1.232575088537996 2.1348826774915164 -2.023638251010867e-50 -2.0194748509207577e-50 4.1646614516797305e-49 2.3195030845627045" Properties=species:S:1:pos:R:3:forces:R:3 cutoff=-1.0 nneightol=1.2 n_minim_iter=1 energy=-162.5625910330074 stress="-0.21830242679170642 1.0773683972104037e-17 -5.329041979331105e-19 1.0773683972104037e-17 -0.21830242679170692 -3.339532973714159e-18 -5.329041979331105e-19 -3.339532973714159e-18 -0.24244881194450402" free_energy=-162.5625910330074 pbc="T T T"
Si       0.00000000       0.00000000       0.00000000       0.00000000      -0.00000000      -0.00000000
1
Lattice="2.4575116372652777 2.3318152674696975e-17 -6.925279549855718e-52 1.228755818632639 2.1282675079676183 -1.6576889521078514e-50 -2.1188375503923794e-50 4.204199111175214e-49 2.3339446454486477" Properties=species:S:1:pos:R:3:forces:R:3 cutoff=-1.0 nneightol=1.2 n_minim_iter=2 energy=-162.5634999063602 stress="-0.22421811144523057 -6.859008816545102e-17 -4.45863178937369e-17 -6.859008816545102e-17 -0.22421811144523077 -7.105389305774808e-18 -4.45863178937369e-17 -7.105389305774808e-18 -0.22419690229415656" free_energy=-162.5634999063602 pbc="T T T"
Si       0.00000000       0.00000000       0.00000000       0.00000000      -0.00000000      -0.00000000
