1
Lattice="2.867854081967158 2.0076580518908997e-17 1.0765842677439356e-51 1.433927040983579 2.4836344893304583 -2.4090613950509518e-50 -1.9753469237745677e-50 5.326873806604736e-49 2.6778586114274114" Properties=species:S:1:pos:R:3:forces:R:3 cutoff=-1.0 nneightol=1.2 n_minim_iter=1 energy=-162.5915222012046 stress="0.09862751355765632 1.4551837298226802e-17 9.932421481156019e-35 1.4551837298226802e-17 0.09862751355765657 -1.4188041365771132e-17 9.932421481156019e-35 -1.4188041365771132e-17 0.1019124835197129" free_energy=-162.5915222012046 pbc="T T T"
Si       0.00000000       0.00000000       0.00000000       0.00000000      -0.00000000      -0.00000000
