4
Lattice="2.0595280373305966 -3.567207200269207 5.644130233657204e-19 2.059528037330597 3.567207200269207 -5.644130233656506e-19 1.2137803546708593e-31 4.685974636592663e-19 6.786473212770848" Properties=species:S:1:pos:R:3:forces:R:3 cutoff=-1.0 nneightol=1.2 n_minim_iter=3 energy=-651.9069671943197 stress="0.07136029649742413 1.0899109403631751e-16 4.7740085625850173e-17 1.0899109403631751e-16 0.07136029649742459 -2.113099782711065e-17 4.7740085625850173e-17 -2.113099782711065e-17 0.07136816571327059" free_energy=-651.9069671943197 pbc="T T T"
Si       2.05952804       1.18906907       0.43751064       0.00000000       0.00000000       0.00008941
Si       2.05952804      -1.18906907       3.83074725      -0.00000000       0.00000000       0.00008941
Si       2.05952804       1.18906907       2.95572597       0.00000000      -0.00000000      -0.00008941
Si       2.05952804      -1.18906907      -0.43751064      -0.00000000      -0.00000000      -0.00008941
