4
Lattice="2.056271150080502 -3.561566106077518 -1.5870641261501242e-17 2.0562711500805024 3.561566106077518 1.5870641261501257e-17 -2.3632556370320052e-32 -3.042578151678258e-17 6.8279176887426045" Properties=species:S:1:pos:R:3 cutoff=-1.0 nneightol=1.2 n_minim_iter=1 energy=-651.8610252595969 free_energy=-651.8610252595969 pbc="T T T"
Si       2.05627115       1.18718870       0.43244272
Si       2.05627115      -1.18718870       3.84640157
Si       2.05627115       1.18718870       2.98151612
Si       2.05627115      -1.18718870      -0.43244272
4
Lattice="2.0545064656211514 -3.558509582934596 -1.8382181462717783e-17 2.054506465621152 3.558509582934596 1.8382181462717777e-17 -3.025907065839827e-32 -2.5636595476834717e-17 6.839652180829488" Properties=species:S:1:pos:R:3 cutoff=-1.0 nneightol=1.2 n_minim_iter=2 stress="0.06857359472161256 -1.3941995505810906e-16 -7.260889293907229e-17 -1.3941995505810906e-16 0.06857359472161256 1.252689077180966e-16 -7.260889293907229e-17 1.252689077180966e-16 0.06945575529944678" pbc="T T T"
Si       2.05450647       1.18616986       0.43538234
Si       2.05450647      -1.18616986       3.85520843
Si       2.05450647       1.18616986       2.98444375
Si       2.05450647      -1.18616986      -0.43538234
4
Lattice="2.0550371287200804 -3.5594287183836433 -2.1525748340734768e-17 2.055037128720081 3.5594287183836433 2.1525748340734787e-17 -2.797867009480272e-32 -1.9597758800353405e-17 6.836120290967503" Properties=species:S:1:pos:R:3 cutoff=-1.0 nneightol=1.2 n_minim_iter=3 stress="0.06877583112538739 2.1883720139949889e-16 9.802027090269886e-17 2.1883720139949889e-16 0.06877583112538724 -1.1232188732187213e-16 9.802027090269886e-17 -1.1232188732187213e-16 0.06895382028671732" pbc="T T T"
Si       2.05503713       1.18647624       0.43580768
Si       2.05503713      -1.18647624       3.85386782
Si       2.05503713       1.18647624       2.98225247
Si       2.05503713      -1.18647624      -0.43580768
