4
Lattice="1.9193831003487796 -3.3244690489931594 0.0 1.9193831003487798 3.3244690489931594 0.0 0.0 0.0 6.268678969999999" Properties=species:S:1:pos:R:3 cutoff=-1.0 nneightol=1.2 n_minim_iter=1 energy=-652.6416360247217 free_energy=-652.6416360247217 pbc="T T T"
Si       1.91938310       1.10815635       0.39179244
Si       1.91938310      -1.10815635       3.52613192
Si       1.91938310       1.10815635       2.74254705
Si       1.91938310      -1.10815635      -0.39179244
4
Lattice="1.9278567692171082 -3.3391458739996196 1.2491912924921678e-35 1.9278567692171085 3.3391458739996196 -1.2491912924921352e-35 4.6863426991497924e-49 -2.355497695827279e-35 6.343716048840347" Properties=species:S:1:pos:R:3 cutoff=-1.0 nneightol=1.2 n_minim_iter=2 stress="0.0006265961671152265 -4.124995082558492e-16 1.5642369281563068e-16 -4.124995082558492e-16 0.0006265961671152607 1.5266693826654966e-16 1.5642369281563068e-16 1.5266693826654966e-16 -0.0004661830308337021" pbc="T T T"
Si       1.92785677       1.11304862       0.39591080
Si       1.92785677      -1.11304862       3.56776883
Si       1.92785677       1.11304862       2.77594722
Si       1.92785677      -1.11304862      -0.39591080
4
Lattice="1.9265077165676434 -3.33680924626866 1.25727262553165e-17 1.9265077165676436 3.33680924626866 -1.257272625531648e-17 1.6197301987979854e-33 -2.3707360035774372e-17 6.347669707930736" Properties=species:S:1:pos:R:3 cutoff=-1.0 nneightol=1.2 n_minim_iter=3 stress="-0.00029555967665199147 1.0083631537951382e-16 -7.490520612513818e-17 1.0083631537951382e-16 -0.0002955596766512906 7.015803691230018e-17 -7.490520612513818e-17 7.015803691230018e-17 0.00013501241977503973" pbc="T T T"
Si       1.92650772       1.11226975       0.39642993
Si       1.92650772      -1.11226975       3.57026478
Si       1.92650772       1.11226975       2.77740493
Si       1.92650772      -1.11226975      -0.39642993
4
Lattice="1.9266145926403044 -3.3369943610566226 -1.524381690328667e-17 1.9266145926403047 3.3369943610566226 1.5243816903286696e-17 -1.6972470780463843e-33 2.8749044148495174e-17 6.349262199819309" Properties=species:S:1:pos:R:3 cutoff=-1.0 nneightol=1.2 n_minim_iter=4 stress="0.00013586854026163427 2.7120191883832146e-16 2.374145934120297e-16 2.7120191883832146e-16 0.00013586854026248802 -1.3316487489682465e-16 2.374145934120297e-16 -1.3316487489682465e-16 -6.372039825432053e-05" pbc="T T T"
Si       1.92661459       1.11233145       0.39770646
Si       1.92661459      -1.11233145       3.57233756
Si       1.92661459       1.11233145       2.77692464
Si       1.92661459      -1.11233145      -0.39770646
