4
Lattice="1.894347664488262 -3.281106402093108 -1.5199243382880466e-17 1.894347664488261 3.281106402093108 1.5199243382880503e-17 -4.311850243736031e-32 -2.8099849971217294e-17 6.239031588531472" Properties=species:S:1:pos:R:3 cutoff=-1.0 nneightol=1.2 n_minim_iter=2 stress="-0.012877337241017186 2.8585520549439937e-17 -6.542334603471672e-17 2.8585520549439937e-17 -0.012877337241017544 1.246582737034251e-16 -6.542334603471672e-17 1.246582737034251e-16 -0.013010450960286274" pbc="T T T"
Si       1.89434766       1.09370213       0.39096420
Si       1.89434766      -1.09370213       3.51047999
Si       1.89434766       1.09370213       2.72855160
Si       1.89434766      -1.09370213      -0.39096420
