4
Lattice="2.030515776829182 -3.516956491038331 -1.554950029602858e-17 2.0305157768291817 3.516956491038331 1.5549500296028543e-17 -9.495771779240345e-33 -2.9026754812863334e-17 6.7164236631732415" Properties=species:S:1:pos:R:3 cutoff=-1.0 nneightol=1.2 n_minim_iter=3 stress="0.057924922801595176 -1.1827994388231582e-16 -1.4125581305927203e-16 -1.1827994388231582e-16 0.057924922801595724 -3.081081863642998e-17 -1.4125581305927203e-16 -3.081081863642998e-17 0.057608839919668524" pbc="T T T"
Si       2.03051578       1.17231883       0.42124737
Si       2.03051578      -1.17231883       3.77945921
Si       2.03051578       1.17231883       2.93696446
Si       2.03051578      -1.17231883      -0.42124737
