4
Lattice="1.7838915039740184 -3.0897907200734567 4.4695000283085655e-17 1.7838915039740186 3.0897907200734567 -4.469500028308625e-17 9.66969519455822e-31 8.570298442923961e-17 5.924695923366514" Properties=species:S:1:pos:R:3 cutoff=-1.0 nneightol=1.2 n_minim_iter=1 stress="-0.13188348164250283 4.092134588631258e-16 1.1860482739895576e-16 4.092134588631258e-16 -0.13188348164250288 2.63123753165625e-16 1.1860482739895576e-16 2.63123753165625e-16 -0.13753199517065695" pbc="T T T"
Si       1.78389150       1.02993024       0.37983295
Si       1.78389150      -1.02993024       3.34218091
Si       1.78389150       1.02993024       2.58251501
Si       1.78389150      -1.02993024      -0.37983295
