2
Lattice="2.5856064421838068 1.4928051871497417e-16 1.6647921842654873e-50 -1.2928032210919038 2.2392008631198768 2.0049721183016243e-49 -2.8856538407179883e-50 -4.1795363136349166e-49 4.481739661557092" Properties=species:S:1:pos:R:3:forces:R:3 n_minim_iter=1 energy=-325.1184337348341 stress="-0.08137138677345879 -5.822157467122029e-17 -8.569861464810741e-17 -5.822157467122029e-17 -0.08137138677345902 1.7343627970812486e-16 -8.569861464810741e-17 1.7343627970812486e-16 -0.103484589327325" free_energy=-325.1184337348341 pbc="T T T"
Si       0.00000000       0.00000000       0.00000000       0.00000000       0.00000000       0.00000000
Si       0.00000000       1.49280058       2.24086983      -0.00000000      -0.00000000      -0.00000000
2
Lattice="2.5616788992853627 1.3212022706383974e-16 -5.780199982346627e-50 -1.2808394496426818 2.2184790031196826 -3.1476768550555355e-49 1.4682364064156257e-49 1.1912999373178515e-48 4.565854689023199" Properties=species:S:1:pos:R:3:forces:R:3 n_minim_iter=2 energy=-325.1237045781531 stress="-0.0777251689749004 -8.94675152045478e-17 -1.7908545216079378e-17 -8.94675152045478e-17 -0.07772516897490007 -3.62850692152201e-17 -1.7908545216079378e-17 -3.62850692152201e-17 -0.07724605969692752" free_energy=-325.1237045781531 pbc="T T T"
Si       0.00000000      -0.00000000       0.00000000      -0.00000000       0.00000000       0.00000000
Si       0.00000000       1.47898600       2.28292734       0.00000000      -0.00000000      -0.00000000
