2
Lattice="2.8458281221214 1.6430447082469906e-16 1.8323408923243423e-50 -1.4229140610607 2.464559448561296 2.206757356898034e-49 -3.176073015848066e-50 -4.600174947245239e-49 4.932792770315715" Properties=species:S:1:pos:R:3:forces:R:3 n_minim_iter=1 energy=-325.024904008873 stress="0.07312718410772719 -4.6533595645163834e-17 -2.1260391019981324e-17 -4.6533595645163834e-17 0.07312718410772756 -3.139427309402997e-17 -2.1260391019981324e-17 -3.139427309402997e-17 0.06037784049071264" free_energy=-325.024904008873 pbc="T T T"
Si       0.00000000       0.00000000       0.00000000      -0.00000000       0.00000000      -0.00000000
Si       0.00000000       1.64303963       2.46639639       0.00000000      -0.00000000       0.00000000
