2
Lattice="2.437697986447629 1.48538596240637e-16 -7.465284707333946e-50 -1.2188489932238147 2.111108383017821 -3.38873021930389e-49 1.24208538753189e-49 7.735858953310398e-49 4.621927295254984" Properties=species:S:1:pos:R:3:forces:R:3 n_minim_iter=2 energy=-324.915223764443 stress="-0.11153363145827787 -1.9476426080498187e-16 -2.2900572137339193e-17 -1.9476426080498187e-16 -0.11153363145827823 3.573656161559299e-18 -2.2900572137339193e-17 3.573656161559299e-18 -0.12542579077889937" free_energy=-324.915223764443 pbc="T T T"
Si      -0.00000000       0.00000000      -0.00000000       0.00000000      -0.00000000      -0.00000000
Si       0.00000000       1.40740559       2.31096365      -0.00000000       0.00000000       0.00000000
