2
Lattice="2.518677229981544 1.400370653916107e-16 -6.507370236198997e-50 -1.2593386149907722 2.1812384650974384 -3.2601207487250016e-49 6.356728192136982e-50 5.926169472021294e-49 4.591895323067727" Properties=species:S:1:pos:R:3:forces:R:3 n_minim_iter=2 energy=-325.0615367101656 stress="-0.09316924637539276 -6.338342840132385e-17 -2.2150677378656314e-17 -6.338342840132385e-17 -0.09316924637539287 -1.2515089741297473e-17 -2.2150677378656314e-17 -1.2515089741297473e-17 -0.09287499388712125" free_energy=-325.0615367101656 pbc="T T T"
Si      -0.00000000      -0.00000000       0.00000000       0.00000000       0.00000000       0.00000000
Si      -0.00000000       1.45415898       2.29594766      -0.00000000      -0.00000000      -0.00000000
