2
Lattice="2.3665183158215597 1.4233559575369035e-16 -7.431247301082768e-50 -1.18325915791078 2.0494649800226354 -3.269679944174379e-49 1.2882098338687168e-49 7.72765422338675e-49 4.606922650633591" Properties=species:S:1:pos:R:3:forces:R:3 n_minim_iter=2 energy=-324.712727354226 stress="-0.19086468343780616 -3.278223724108472e-16 -1.2586903996946976e-16 -3.278223724108472e-16 -0.19086468343780544 1.2233655496184545e-16 -1.2586903996946976e-16 1.2233655496184545e-16 -0.18466229736314405" free_energy=-324.712727354226 pbc="T T T"
Si      -0.00000000       0.00000000      -0.00000000      -0.00000000       0.00000000      -0.00000000
Si       0.00000000       1.36630999       2.30346133       0.00000000      -0.00000000       0.00000000
