12
Lattice="7.41975979972788 5.592455635983017 -2.7847987553684064 7.399380461672511 5.99634005455256 -2.842310490282664 0.7252073532069006 0.544379706704527 0.5621940233412978" Properties=species:S:1:pos:R:3 unique_starting_index=78 config_type=initial n_minim_iter=1 energy=-34976161735.837875 free_energy=-34976161735.837875 pbc="T T T"
Si       1.60295685       1.43386525       0.14180662
Si       8.83126591       6.82724587      -2.88636012
Si      15.55416116      12.27496257      -6.12612058
Si       5.49264678       4.35680840      -1.99133059
Si       8.81141203       6.86089543      -2.75485249
Si       9.17630370       7.56207908      -2.31358652
Si       7.93024767       5.87402818      -2.98877342
Si       9.12262343       7.39933221      -2.49578480
Si       8.18626991       5.89280499      -3.08251695
Si       8.25242080       6.30607314      -3.20985867
Si       5.77848004       4.68440524      -1.75919452
Si       8.88173668       7.23975708      -2.70857359
12
Lattice="7.138506160407114 5.433522634835818 -2.6505654207332108 7.119304149727284 5.824935563078412 -2.70622135846385 0.7010746618512496 0.5282861669266055 0.5427889403445616" Properties=species:S:1:pos:R:3 unique_starting_index=78 config_type=initial n_minim_iter=2 stress="218083896518.62238 9134192696.586863 57313812034.36799 9134192696.586863 256484184641.4967 -1861627195.9078257 57313812034.36799 -1861627195.9078257 200554223329.39487" pbc="T T T"
Si       1.54695008       1.39127112       0.14147175
Si       8.49629933       6.63265226      -2.74644676
Si      14.96472054      11.92450176      -5.83529769
Si       5.27936040       4.23275298      -1.88838134
Si       8.47910064       6.66626880      -2.61998163
Si       8.83571645       7.34450718      -2.19387249
Si       7.63010485       5.70479563      -2.84837785
Si       8.78234312       7.18563011      -2.36831239
Si       7.87877977       5.72681162      -2.93350223
Si       7.94235671       6.12790100      -3.05532693
Si       5.55654391       4.55104508      -1.66467783
Si       8.55080882       7.03286814      -2.57273396
12
Lattice="6.933953328060132 5.472798073947549 -2.4171291236394166 6.9161799066039364 5.863772700040307 -2.472231146733212 0.6989609454387511 0.5305525283819971 0.5401737542018908" Properties=species:S:1:pos:R:3 unique_starting_index=78 config_type=initial n_minim_iter=3 stress="143456984403.036 24192718714.67574 194910082281.07315 24192718714.67574 290632329149.8498 -17726877316.500946 194910082281.07315 -17726877316.500946 80695496060.08537" pbc="T T T"
Si       1.52088380       1.39588600       0.16757836
Si       8.25977370       6.68007625      -2.48757761
Si      14.53336264      12.00610336      -5.34065221
Si       5.12452226       4.26133975      -1.71104929
Si       8.24688212       6.71588965      -2.36524154
Si       8.61172525       7.38954348      -1.94232395
Si       7.40887238       5.74361730      -2.60030069
Si       8.55479303       7.22657369      -2.11130046
Si       7.65671081       5.77177880      -2.67309130
Si       7.71842270       6.17376396      -2.79055604
Si       5.40193435       4.58195011      -1.48901645
Si       8.32657403       7.07940963      -2.31262119
12
Lattice="6.976974931241445 5.617306348309486 -2.4784806167914146 6.9670777490871485 6.0102614828395025 -2.5305305737651884 0.6905092053472057 0.5495613216886674 0.52876195639752" Properties=species:S:1:pos:R:3 unique_starting_index=78 config_type=initial n_minim_iter=4 stress="149150623371.0992 28580469056.03788 198991494008.6753 28580469056.03788 268909802182.3546 -14263903131.865715 198991494008.6753 -14263903131.865715 85784541532.80728" pbc="T T T"
Si       1.52284131       1.41943370       0.14688259
Si       8.28611183       6.86416203      -2.58755715
Si      14.63794250      12.30745879      -5.47372875
Si       5.13500308       4.36825314      -1.72811236
Si       8.27986953       6.91712881      -2.46456930
Si       8.66545719       7.57532822      -2.03022951
Si       7.44636512       5.87846955      -2.67942669
Si       8.60623372       7.38524468      -2.19146631
Si       7.72736292       5.93775966      -2.73022908
Si       7.79640532       6.34741668      -2.84413614
Si       5.41304505       4.70537731      -1.51120198
Si       8.39871434       7.26800867      -2.38007357
12
Lattice="6.930894317774274 5.836241565923355 -2.5789939055733875 6.926934237690413 6.239274059204062 -2.6291533331470425 0.668989560987796 0.5721491253888807 0.5062801804704015" Properties=species:S:1:pos:R:3 unique_starting_index=78 config_type=initial n_minim_iter=5 stress="155239464489.3326 26055552021.762947 213493829594.6972 26055552021.762947 269993354246.54544 -17548678127.693825 213493829594.6972 -17548678127.693825 91716047882.12096" pbc="T T T"
Si       1.49135810       1.45966554       0.10820220
Si       8.20802669       7.13574909      -2.72944094
Si      14.55527676      12.77269739      -5.68122148
Si       5.09075471       4.53252852      -1.79088918
Si       8.20659062       7.21578104      -2.60838688
Si       8.59470101       7.86439370      -2.17774181
Si       7.38961584       6.08669284      -2.79356934
Si       8.53600232       7.64416754      -2.32866864
Si       7.69398579       6.18037246      -2.83101326
Si       7.76766491       6.60470424      -2.94237602
Si       5.36331891       4.88983748      -1.58392143
Si       8.35438205       7.55514847      -2.50027877
12
Lattice="6.85190805210524 6.064459620502344 -2.706826840334766 6.852870963500271 6.479395934293944 -2.756281116620996 0.643229725081 0.5932179539022855 0.48172032634971745" Properties=species:S:1:pos:R:3 unique_starting_index=78 config_type=initial n_minim_iter=6 stress="113837422969.37585 23917460723.620277 191896798422.59738 23917460723.620277 267674402808.72272 -29107098478.255955 191896798422.59738 -29107098478.255955 53735634960.098915" pbc="T T T"
Si       1.44828815       1.49565440       0.06106227
Si       8.08574088       7.40941626      -2.90674730
Si      14.40466037      13.26213778      -5.94672913
Si       5.01967219       4.70313061      -1.87042297
Si       8.09611141       7.52702674      -2.78441698
Si       8.47885684       8.16811696      -2.36279618
Si       7.29883634       6.29732967      -2.93352393
Si       8.42159557       7.90835170      -2.50148186
Si       7.62818611       6.43696212      -2.96143391
Si       7.70814456       6.87922845      -3.06868435
Si       5.28371014       5.08297585      -1.67676558
Si       8.26689893       7.86073393      -2.65820737
12
Lattice="6.838998983251644 6.076106926064363 -2.630554586264127 6.843614263915662 6.48945354313571 -2.6736785306354864 0.6402633861883189 0.6071021469390919 0.487386301668655" Properties=species:S:1:pos:R:3 unique_starting_index=78 config_type=initial n_minim_iter=7 stress="112576203771.9168 37520290364.44398 207707314585.28284 37520290364.44398 266576601524.99295 -14424899679.381176 207707314585.28284 -14424899679.381176 49575443372.24479" pbc="T T T"
Si       1.43015993       1.48681055       0.07402332
Si       8.04236794       7.42664724      -2.83018477
Si      14.38520682      13.27025629      -5.77072978
Si       5.01644102       4.70806631      -1.81450640
Si       8.07234480       7.57303872      -2.70003808
Si       8.46893773       8.19632947      -2.26248816
Si       7.28988478       6.30737024      -2.85534546
Si       8.40363026       7.92229242      -2.40367899
Si       7.62580182       6.45304387      -2.86758758
Si       7.71749435       6.91049737      -2.96159842
Si       5.27997499       5.10255471      -1.61936278
Si       8.25564116       7.89136922      -2.55668593
12
Lattice="6.821538705914066 6.081435561646709 -2.561928779083815 6.829249368184979 6.493256381576821 -2.599352906686827 0.6370223152342458 0.6191023053957189 0.4925008140146354" Properties=species:S:1:pos:R:3 unique_starting_index=78 config_type=initial n_minim_iter=8 stress="111989738092.45253 46445518435.27396 228258851093.8086 46445518435.27396 291821866552.77344 -5616973216.3435 228258851093.8086 -5616973216.3435 46589346205.25604" pbc="T T T"
Si       1.41089553       1.47560697       0.08468545
Si       7.99406125       7.43554172      -2.76265136
