24
Lattice="8.290616236563434 -8.803546737119972e-13 -2.8207918046579362e-14 4.145308118282479 7.179884273891231 1.934104080875093e-14 4.1453081182819975 2.393294757963415 7.399245315203229" Properties=species:S:1:pos:R:3 unique_starting_index=24 config_type=initial n_minim_iter=1 energy=-3906.010254332638 free_energy=-3906.010254332638 pbc="T T T"
Si       8.88765981       3.28919658       6.65578801
Si       9.28887394       6.05234089       6.65578801
Si       6.69531371       5.01823037       6.65578801
Si       9.36277532       3.87603196       4.35959114
Si       8.54310184       6.17038530       4.35959114
Si       6.96597031       4.31335058       4.35959114
Si      10.37222395       4.82988104       1.03165807
Si       7.21232000       6.56766891       1.03165807
Si       7.28730353       2.96221788       1.03165807
Si       9.34560197       6.61026901       2.18202776
Si       6.18376978       4.78839421       2.18202776
Si       9.34247572       2.96110461       2.18202776
Si      11.08742020       7.78027551       6.21580624
Si       4.29960531       5.71184981       6.21580624
Si       9.48482196       0.86764252       6.21580624
Si      11.31794165       3.33698079       7.05660579
Si       8.03235069       8.13313460       7.05660579
Si       5.52155513       2.88965245       7.05660579
Si       9.90792106       9.36654592       4.68029800
Si       3.51560440       3.89723838       4.68029800
Si      11.44832201       1.09598353       4.68029800
Si       5.54556241       1.76852436       2.25669672
Si       3.98624718       3.91833574       2.25669672
Si       2.90411352       1.49302346       2.25669672
