18
Lattice="13.56617888835379 3.6346634638157362 2.7944665908720485 8.102402558284545 11.471837730264362 2.7944665908720507 8.102402558284556 5.648683289354518 10.368436793151798" Properties=species:S:1:pos:R:3 unique_starting_index=39 config_type=initial n_minim_iter=14 energy=-2922.623915959224 free_energy=-2922.623915959224 pbc="T T T"
Si      17.38391701      13.51194349       5.78982638
Si      14.52057354      13.17486409      11.57027128
Si      18.69052103       8.58608764       9.75903683
Si      17.38391701       9.06771906      11.57027128
Si      14.52057354      14.56740956       9.75903683
Si      18.69052103      11.63776659       5.78982638
Si       3.08148720       4.92049423       2.34125997
Si       4.37521242       1.67141017       4.15358032
Si       5.68259980       2.56830956       0.54787831
Si       3.08148720       3.52711388       4.15358032
Si       4.37521242       4.44361010       0.54787831
Si       5.68259980       1.18948998       2.34125997
Si      14.28451995      11.34361896      10.15425622
Si      16.88331850       9.00066632       8.35318401
Si      15.58404540      12.24932915       6.55176198
Si      14.28451995      12.72835133       8.35318401
Si      16.88331850      10.38566763       6.55176198
Si      15.58404540       9.47959548      10.15425622
