16
Lattice="5.391353364166794 -0.1811783077257632 -2.931309858369834 0.6647472690148764 8.43267361732714 -0.37759778555215046 -1.7344476034939755 1.295132696118114 7.375921158072539" Properties=species:S:1:pos:R:3 unique_starting_index=30 config_type=initial n_minim_iter=1 energy=-2605.523611463699 free_energy=-2605.523611463699 pbc="T T T"
Si       1.32190762       7.78642132       1.96783756
Si       2.99974541       1.76020668       2.09917595
Si       1.91831789       4.50735476       0.60251795
Si       2.40333514       5.03927324       3.46449557
Si       3.01017008       2.87088551       4.18772314
Si       1.31148295       6.67574249      -0.12070962
Si       3.81982005       4.98154724      -1.96158445
Si       0.50183298       4.56508076       6.02859796
Si       0.27896124       4.59706444       2.39271431
Si       4.04269179       4.94956357       1.67429921
Si       4.88934549       6.89806716       0.45620050
Si      -0.56769246       2.64856085       3.61081301
Si       0.61325800       1.63122175       1.73891300
Si       3.70839503       7.91540626       2.32810051
Si       3.28728877       7.26720269      -1.24181455
Si       1.03436426       2.27942531       5.30882807
16
Lattice="5.390614808105901 -0.18042310331754083 -2.9290529739489086 0.6660426609664114 8.433415709701466 -0.3769754630415271 -1.7324031415347438 1.2952426752181934 7.373225029853377" Properties=species:S:1:pos:R:3 unique_starting_index=30 config_type=initial n_minim_iter=2 stress="-3.925027916320512e-05 1.4618110192155691e-05 0.00012038552145665144 1.4618110192155691e-05 -0.00015144828110863265 -7.862192943439747e-05 0.00012038552145665144 -7.862192943439747e-05 -0.0002460390887326157" pbc="T T T"
Si       1.32357305       7.78725028       1.96765285
Si       3.00068127       1.76098500       2.09954374
Si       1.91916508       4.50789663       0.60276506
Si       2.40508925       5.04033865       3.46443153
Si       3.01175328       2.87195359       4.18729174
Si       1.31250104       6.67628169      -0.12009514
Si       3.82012381       4.98241335      -1.95981077
Si       0.50413052       4.56582194       6.02700736
Si       0.28044851       4.59759765       2.39219834
Si       4.04380581       4.95063763       1.67499826
Si       4.89045066       6.89948781       0.45754669
Si      -0.56619633       2.64874747       3.60964990
Si       0.61380298       1.63134071       1.73862591
Si       3.71045135       7.91689457       2.32857068
Si       3.28822505       7.26828143      -1.24038450
Si       1.03602928       2.27995385       5.30758109
16
Lattice="5.390715524860688 -0.1799286965435885 -2.928504793253701 0.668181686778696 8.437753041845497 -0.3746838993700587 -1.7312209278808586 1.2974025729912353 7.373727683266169" Properties=species:S:1:pos:R:3 unique_starting_index=30 config_type=initial n_minim_iter=3 stress="0.0003057398384156357 0.00010947294591555836 0.00014485132394382054 0.00010947294591555836 0.00021800493988746906 -1.2870573627102987e-05 0.00014485132394382054 -1.2870573627102987e-05 6.76735929836185e-05" pbc="T T T"
Si       1.32571636       7.79190199       1.96953238
Si       3.00195993       1.76332493       2.10100661
Si       1.92049065       4.51051536       0.60376626
Si       2.40718563       5.04471156       3.46677273
Si       3.01351662       2.87570260       4.18874749
Si       1.31415966       6.67952432      -0.11820850
Si       3.82140523       4.98525067      -1.95802070
Si       0.50627105       4.56997625       6.02855969
Si       0.28226581       4.60072061       2.39355615
Si       4.04541048       4.95450631       1.67698284
Si       4.89237746       6.90447814       0.46005026
Si      -0.56470118       2.65074877       3.61048873
Si       0.61417826       1.63234893       1.73932210
Si       3.71349803       7.92287799       2.33121689
Si       3.29032166       7.27252799      -1.23824574
Si       1.03735462       2.28269893       5.30878473
16
Lattice="5.388156383974429 -0.1805133270201517 -2.928970008353374 0.6689039349199343 8.439754960811623 -0.371276990221072 -1.7309873878460211 1.3005297997507477 7.373878598517905" Properties=species:S:1:pos:R:3 unique_starting_index=30 config_type=initial n_minim_iter=4 stress="-0.00015635677853828654 0.0001844340743669426 -7.85547575315644e-05 0.0001844340743669426 9.193460234551703e-05 0.0001720237130940273 -7.85547575315644e-05 0.0001720237130940273 -0.00011135643700520298" pbc="T T T"
Si       1.32540057       7.79455302       1.97164174
Si       3.00067236       1.76521841       2.10198986
Si       1.91983982       4.51163522       0.60457255
Si       2.40623312       5.04813622       3.46905905
Si       3.01199480       2.87922321       4.18932857
Si       1.31407813       6.68054823      -0.11569697
Si       3.82005400       4.98595512      -1.95614149
Si       0.50601893       4.57381632       6.02977309
Si       0.28288494       4.60302161       2.39523040
Si       4.04318799       4.95674982       1.67840120
Si       4.88991425       6.90717097       0.46224643
Si      -0.56384132       2.65260046       3.61138517
Si       0.61331864       1.63278426       1.73993909
Si       3.71275430       7.92698717       2.33369251
Si       3.28976566       7.27428299      -1.23582551
Si       1.03630728       2.28548844       5.30945711
16
Lattice="5.386570250159329 -0.18351174933718523 -2.9293178277330587 0.6639154144345841 8.439736849632785 -0.3715102771542951 -1.7303708413021492 1.3014052517599308 7.3762199356021645" Properties=species:S:1:pos:R:3 unique_starting_index=30 config_type=initial n_minim_iter=5 stress="-4.046803448999785e-05 -3.6915782672544696e-05 5.064061793285103e-05 -3.6915782672544696e-05 -2.49336246764274e-05 0.00010375693720809058 5.064061793285103e-05 0.00010375693720809058 7.552532545977148e-05" pbc="T T T"
Si       1.32033398       7.79355544       1.97083415
Si       2.99978084       1.76407491       2.10455768
Si       1.91674282       4.50982179       0.60354088
Si       2.40337200       5.04780856       3.47185095
Si       3.01052847       2.87889799       4.19120587
Si       1.30958636       6.67873236      -0.11581404
Si       3.81573114       4.98384656      -1.95618608
Si       0.50438368       4.57378379       6.03157791
Si       0.28141680       4.60323513       2.39617162
Si       4.03869802       4.95439522       1.67922021
Si       4.88366882       6.90501329       0.46295491
Si      -0.56355400       2.65261706       3.61243692
Si       0.61151778       1.63098247       1.74097248
Si       3.70859705       7.92664788       2.33441935
Si       3.28491362       7.27280363      -1.23664501
Si       1.03520121       2.28482672       5.31203684
16
Lattice="5.3869778274456905 -0.18296948273567687 -2.9298987558063687 0.6638271207392917 8.441220641872308 -0.37349161111925816 -1.73155994469646 1.2999835262802701 7.375584111704428" Properties=species:S:1:pos:R:3 unique_starting_index=30 config_type=initial n_minim_iter=6 stress="3.68212931186671e-05 1.0042745691462645e-05 -0.00010799946925109867 1.0042745691462645e-05 6.625852458500131e-05 -9.61215942306251e-05 -0.00010799946925109867 -9.61215942306251e-05 -6.914744404834389e-05" pbc="T T T"
Si       1.31971618       7.79403813       1.96812614
Si       2.99952883       1.76419656       2.10406760
Si       1.91647473       4.51008203       0.60173729
Si       2.40277027       5.04815266       3.47045645
Si       3.00992120       2.87893917       4.18977950
Si       1.30932381       6.67929551      -0.11758576
Si       3.81589515       4.98517101      -1.95755220
Si       0.50334985       4.57306368       6.02974595
Si       0.28125035       4.60352137       2.39499472
Si       4.03799465       4.95471331       1.67719902
Si       4.88296542       6.90609567       0.46067405
Si      -0.56372041       2.65213902       3.61151969
Si       0.61090754       1.63026301       1.74055030
Si       3.70833746       7.92797168       2.33164344
Si       3.28499665       7.27416310      -1.23899252
Si       1.03424835       2.28407158       5.31118626
16
Lattice="5.383368772805095 -0.1839298384169316 -2.929305073885272 0.6625673797388603 8.442438328555678 -0.3722261969878221 -1.7284124701804056 1.3014001541590894 7.378080472123487" Properties=species:S:1:pos:R:3 unique_starting_index=30 config_type=initial n_minim_iter=7 stress="4.347769937623596e-05 7.375860680933846e-05 0.00010372717873949244 7.375860680933846e-05 -0.0003534295093279377 -0.00011258768454156747 0.00010372717873949244 -0.00011258768454156747 0.0002137495714173589" pbc="T T T"
Si       1.31842669       7.79345505       1.96802761
Si       2.99909699       1.76645360       2.10852159
Si       1.91483012       4.50941271       0.60174239
Si       2.40269356       5.05049593       3.47480681
Si       3.01006662       2.88245797       4.19331063
Si       1.30745706       6.67745068      -0.11676142
Si       3.81305027       4.98643414      -1.95495288
Si       0.50447341       4.57347451       6.03150208
Si       0.28264371       4.60467095       2.39731531
Si       4.03487997       4.95523770       1.67923389
Si       4.87817990       6.90719101       0.46419914
Si      -0.56065622       2.65271763       3.61235006
Si       0.61004249       1.62786852       1.74274555
Si       3.70748119       7.93204013       2.33380365
Si       3.28213058       7.27412146      -1.23876230
Si       1.03539310       2.28578719       5.31531150
16
Lattice="5.380336537423655 -0.18874527438755723 -2.926633834639796 0.6569239722591206 8.452187964991166 -0.36832374446680044 -1.726687640069682 1.3071757631975562 7.374507761681554" Properties=species:S:1:pos:R:3 unique_starting_index=30 config_type=initial n_minim_iter=8 stress="-0.00023528191503202706 -0.00013671480666322986 0.0002208339102703581 -0.00013671480666322986 9.151921021493494e-05 -0.00015978727707198606 0.0002208339102703581 -0.00015978727707198606 0.0001306193500135449" pbc="T T T"
Si       1.31317320       7.80084711       1.96882063
Si       2.99739967       1.76977134       2.11072955
Si       1.91088162       4.51289764       0.60287195
Si       2.39969125       5.05772081       3.47667824
Si       3.00835694       2.88826716       4.19380719
Si       1.30221593       6.68235129      -0.11425700
Si       3.80819772       4.99064965      -1.94952373
Si       0.50237515       4.57996880       6.02907391
Si       0.28101589       4.61109028       2.39883549
Si       4.02955698       4.95952818       1.68071469
Si       4.87038070       6.91308020       0.46885020
Si      -0.55980783       2.65753825       3.61069999
Si       0.60866967       1.62772575       1.74371708
Si       3.70190320       7.94289271       2.33583310
Si       3.27546551       7.27963708      -1.23547291
Si       1.03510736       2.29098138       5.31502310
16
Lattice="5.384973135370507 -0.19609700155216347 -2.9238748392452556 0.6520893347706356 8.459394958573128 -0.35720811629475063 -1.7302692735968925 1.3189120207266134 7.366244240423429" Properties=species:S:1:pos:R:3 unique_starting_index=30 config_type=initial n_minim_iter=9 stress="0.0003368870741727052 -0.0001020481264997914 -6.917392162125983e-05 -0.0001020481264997914 -0.00018971066438076871 0.0001451375081943883 -6.917392162125983e-05 0.0001451375081943883 -0.00018159859618475292" pbc="T T T"
Si       1.30863823       7.80616361       1.97329725
Si       2.99815497       1.77604636       2.11186403
Si       1.90864397       4.51514018       0.60624087
Si       2.39814923       5.06706980       3.47892041
Si       3.00867963       2.89832691       4.19232359
Si       1.29811357       6.68388307      -0.10716230
Si       3.80934332       4.99302509      -1.93882714
Si       0.49744988       4.58918489       6.02398842
Si       0.27853284       4.61803971       2.40270549
Si       4.02826036       4.96417026       1.68245579
Si       4.86753217       6.91758354       0.47762657
Si      -0.56073897       2.66462644       3.60753472
Si       0.60746915       1.62696907       1.74499928
Si       3.69932405       7.95524090       2.34016201
Si       3.27276235       7.28147448      -1.22705328
Si       1.03403084       2.30073550       5.31221456
16
Lattice="5.379361900075962 -0.1928488494003537 -2.92374009484085 0.6556558832699025 8.465960154058335 -0.35910850296693564 -1.7266300027885872 1.3173136714007472 7.367942162381717" Properties=species:S:1:pos:R:3 unique_starting_index=30 config_type=initial n_minim_iter=10 stress="-0.00027340665035764655 0.00010576633903829402 -2.1981960011173514e-05 0.00010576633903829402 0.0002884593225221334 -6.93298811565819e-05 -2.1981960011173514e-05 -6.93298811565819e-05 6.488201151019553e-05" pbc="T T T"
Si       1.31215367       7.81020889       1.97250893
Si       2.99623411       1.78021609       2.11258464
Si       1.90925669       4.51841276       0.60551395
Si       2.39913109       5.07201221       3.47957961
Si       3.00846813       2.90221093       4.19429404
Si       1.29991965       6.68821405      -0.10920048
Si       3.80888377       4.99970853      -1.93950433
Si       0.49950401       4.59071645       6.02459790
Si       0.28056463       4.62049751       2.40321316
Si       4.02782315       4.96992747       1.68188040
Si       4.86637987       6.92542164       0.47814464
Si      -0.55799209       2.66500333       3.60694892
Si       0.60887506       1.62642955       1.74618388
Si       3.69951272       7.96399543       2.33890968
Si       3.27281613       7.28831057      -1.22891361
Si       1.03557165       2.30211441       5.31400718
16
Lattice="5.368286331223137 -0.22168036916654973 -2.911206453394225 0.6291967158763355 8.506628386718383 -0.32321908565654833 -1.7200456988502268 1.3591659091447954 7.352112751052935" Properties=species:S:1:pos:R:3 unique_starting_index=30 config_type=initial n_minim_iter=11 stress="3.343754412335352e-05 -6.886172531605113e-05 0.00019970973428272757 -6.886172531605113e-05 -0.000264128230836854 -5.540679601248352e-05 0.00019970973428272757 -5.540679601248352e-05 0.00018448940216242345" pbc="T T T"
Si       1.28911477       7.82972732       1.99097692
Si       2.98832258       1.81438660       2.12671029
Si       1.89256766       4.52262951       0.61158566
Si       2.38486969       5.12148442       3.50610155
Si       3.00704146       2.94885442       4.20748423
Si       1.27039589       6.69525950      -0.08979702
Si       3.79356802       5.01166480      -1.90503593
Si       0.48386933       4.63244912       6.02272315
Si       0.27005006       4.64889677       2.42577643
Si       4.00738729       4.99521716       1.69191079
Si       4.82764362       6.95762797       0.52173340
Si      -0.55020628       2.68648596       3.59595381
Si       0.60669944       1.60940323       1.76050969
Si       3.67073791       8.03471070       2.35717752
Si       3.24363726       7.30830000      -1.20153126
Si       1.03380009       2.33581393       5.31921847
16
Lattice="5.353295410396205 -0.28527216381680615 -2.880620649428579 0.5777337537585511 8.621500770893677 -0.23469355646251744 -1.714875793670195 1.461973851496176 7.297531889965463" Properties=species:S:1:pos:R:3 unique_starting_index=30 config_type=initial n_minim_iter=12 stress="0.0010552819479630437 0.00021655607839500722 -0.000665684851557532 0.00021655607839500722 0.0003795013575862827 0.0002734018294168525 -0.000665684851557532 0.0002734018294168525 -0.00040819257642396383" pbc="T T T"
Si       1.24360633       7.89460139       2.03119339
Si       2.97254704       1.90360106       2.15102429
Si       1.85918234       4.55387368       0.63837355
Si       2.35697103       5.24432878       3.54384413
Si       3.00357708       3.06510066       4.22125543
Si       1.21257629       6.73310180      -0.03903775
Si       3.76847140       5.06280427      -1.81538662
Si       0.44768197       4.73539819       5.99760430
Si       0.25015490       4.72610142       2.47101514
Si       3.96599847       5.07210104       1.71120254
Si       4.75172312       7.05766528       0.61946441
Si      -0.53556975       2.74053718       3.56275328
Si       0.59985538       1.57954204       1.78423937
Si       3.61629799       8.21866042       2.39797832
Si       3.19047536       7.36991272      -1.13138148
Si       1.02567801       2.42828974       5.31359917
16
Lattice="5.342579021467516 -0.3208051885093442 -2.863930083113902 0.5480985616672168 8.68356839271259 -0.1862355910397942 -1.7103975284165558 1.5183854738096607 7.269642656134631" Properties=species:S:1:pos:R:3 unique_starting_index=30 config_type=initial n_minim_iter=13 stress="0.0017050902719391292 0.0002678511165298236 -0.0010011924365618985 0.0002678511165298236 0.0010879603485602837 0.0005331562649348873 -0.0010011924365618985 0.0005331562649348873 -0.0004967624325368885" pbc="T T T"
Si       1.21802823       7.92700762       2.05504928
Si       2.96225182       1.95414105       2.16442770
Si       1.84035805       4.56949043       0.65412071
Si       2.33992201       5.31165825       3.56535627
Si       3.00133340       3.12840483       4.23084818
Si       1.17894666       6.75274384      -0.01137120
Si       3.75224983       5.08918109      -1.76748918
Si       0.42803023       4.79196759       5.98696617
Si       0.23839939       4.76640711       2.49664099
Si       3.94188067       5.11474157       1.72283599
Si       4.70732055       7.11496318       0.67493145
Si      -0.52704049       2.76618549       3.54454553
Si       0.59657653       1.56048620       1.79697699
Si       3.58370353       8.32066248       2.42249999
Si       3.16011139       7.40305938      -1.09186360
Si       1.02016867       2.47808929       5.31134058
16
Lattice="5.331207436127733 -0.3872606305912631 -2.831082155189052 0.49369247601155763 8.783375575703545 -0.09448334652475159 -1.7112715963000056 1.62218094741383 7.201599209224482" Properties=species:S:1:pos:R:3 unique_starting_index=30 config_type=initial n_minim_iter=14 stress="0.0021908853039103796 0.0006142309696388957 -0.0030053121508404118 0.0006142309696388957 0.0036023282653533943 0.0013201861678299085 -0.0030053121508404118 0.0013201861678299085 -0.002597862552812883" pbc="T T T"
Si       1.17558467       7.96209011       2.11218610
Si       2.93804364       2.05620578       2.16384761
Si       1.81120873       4.59898205       0.70537632
Si       2.30241958       5.41931385       3.57065739
Si       3.00021498       3.22868945       4.23285884
Si       1.11341334       6.78960645       0.04317487
Si       3.72817656       5.12948961      -1.68269995
Si       0.38545175       4.88880628       5.95873366
Si       0.20767576       4.81781274       2.53859868
Si       3.90595256       5.20048316       1.73743503
Si       4.63414024       7.23754855       0.78189317
Si      -0.52051192       2.78074734       3.49414054
Si       0.59428344       1.51603788       1.80881400
Si       3.51934487       8.50225802       2.46721970
Si       3.11780413       7.45309308      -1.00441744
Si       0.99582419       2.56520281       5.28045114
16
Lattice="5.330415444164827 -0.3876160980853765 -2.828330504795961 0.4906528076372718 8.752318348418148 -0.09659775877925261 -1.7109135282853691 1.6158814944853919 7.195411718716463" Properties=species:S:1:pos:R:3 unique_starting_index=30 config_type=initial n_minim_iter=15 stress="0.0007490951817189894 0.001173810710373759 -0.003450846695625391 0.001173810710373759 0.0029879856605577655 0.00040936999934039427 -0.003450846695625391 0.00040936999934039427 -0.00413179559724825" pbc="T T T"
Si       1.17940009       7.91799916       2.13086028
Si       2.93075463       2.06258458       2.13962318
Si       1.81577034       4.58958979       0.73115973
Si       2.29438438       5.39099396       3.53932373
Si       3.00667186       3.20102754       4.22516247
Si       1.10348286       6.77955621       0.04532099
Si       3.72675327       5.10768459      -1.69238764
Si       0.38340146       4.87289916       5.96287110
Si       0.19777233       4.77906663       2.53695591
Si       3.91238239       5.20151711       1.73352754
Si       4.63549501       7.24966795       0.79273924
Si      -0.52534028       2.73091580       3.47774422
Si       0.59840713       1.49669139       1.80040658
Si       3.51174759       8.48389235       2.47007688
Si       3.12851560       7.43087201      -0.98903289
Si       0.98163912       2.54971173       5.25951634
16
Lattice="5.296023087584343 -0.43520093769695767 -2.8094272714407293 0.43840991313852085 8.767879596800208 -0.04652178347116787 -1.686692828835269 1.6706516798027449 7.189683004071117" Properties=species:S:1:pos:R:3 unique_starting_index=30 config_type=initial n_minim_iter=16 stress="0.0013324471236958932 0.0004097707413900621 -0.0018264845056786354 0.0004097707413900621 0.0025976739402886434 0.0011460635610847465 -0.0018264845056786354 0.0011460635610847465 -0.002488202912885615" pbc="T T T"
Si       1.14506431       7.87879890       2.18813509
Si       2.90267587       2.12453143       2.14559885
Si       1.79122896       4.57430419       0.77431298
Si       2.25651122       5.42902615       3.55942097
Si       3.00932505       3.23554001       4.25577205
Si       1.03841512       6.76779033       0.07796190
Si       3.68504092       5.08996515      -1.65648519
Si       0.36269925       4.91336519       5.99021914
Si       0.16979668       4.76470341       2.57739159
Si       3.87794350       5.23862693       1.75634236
Si       4.55925049       7.31865705       0.88387519
Si      -0.51151032       2.68467329       3.44985876
Si       0.59929312       1.43453881       1.81357649
Si       3.44844705       8.56879153       2.52015746
Si       3.08557555       7.42665969      -0.92799727
Si       0.96216463       2.57667065       5.26173122
16
Lattice="5.279639041131705 -0.41065955209231964 -2.827000571652102 0.44743020112979776 8.681408037583559 -0.09373465414904075 -1.6697836643253259 1.6154920147154428 7.24787360138739" Properties=species:S:1:pos:R:3 unique_starting_index=30 config_type=initial n_minim_iter=17 stress="-0.0005259920161232794 -2.6619381921884e-05 0.00047649751325912356 -2.6619381921884e-05 -0.001784102380598299 -5.621316102263253e-05 0.00047649751325912356 -5.621316102263253e-05 0.0010572617171312802" pbc="T T T"
Si       1.15696564       7.80956232       2.18605909
Si       2.90031994       2.07667818       2.14107929
Si       1.79943821       4.53412513       0.76605977
Si       2.25784737       5.35211537       3.56107861
Si       3.00996193       3.16103593       4.27227481
Si       1.04732365       6.72520457       0.05486357
Si       3.67438427       5.03431472      -1.71203051
Si       0.38290131       4.85192578       6.03916888
Si       0.17095447       4.69692801       2.56982404
Si       3.88633111       5.18931249       1.75731433
Si       4.56912413       7.25936054       0.85382070
Si      -0.51183855       2.62687996       3.47331768
Si       0.60023558       1.42630525       1.80889321
Si       3.45704999       8.45993525       2.51824517
Si       3.09287676       7.37339756      -0.95883569
Si       0.96440882       2.51284294       5.28597407
16
Lattice="5.241656890896817 -0.4333986414306114 -2.8071448794683325 0.4218898947784548 8.74730080185591 -0.06819584647885603 -1.6457821703407063 1.6503980991345406 7.2274712473854335" Properties=species:S:1:pos:R:3 unique_starting_index=30 config_type=initial n_minim_iter=18 stress="-3.487846269440592e-05 -0.00019504005842224952 0.0013624917600743454 -0.00019504005842224952 0.0015182647431434568 -0.0001816743808806081 0.0013624917600743454 -0.0001816743808806081 0.0002533124948138484" pbc="T T T"
Si       1.14398299       7.84655199       2.20711491
Si       2.87378163       2.11774827       2.14501561
Si       1.78468210       4.54738961       0.76375981
Si       2.23308251       5.41691065       3.58837071
Si       2.99304901       3.20368230       4.26685213
Si       1.02471561       6.76061796       0.08527840
Si       3.64266388       5.05947128      -1.68552251
Si       0.37510074       4.90482898       6.03765303
Si       0.14877083       4.70493371       2.58453953
Si       3.86899378       5.25936655       1.76759099
Si       4.51920755       7.36128198       0.89984153
Si      -0.50144293       2.60301828       3.45228899
Si       0.58783387       1.39473243       1.78804237
Si       3.42993075       8.56956783       2.56408815
Si       3.05491585       7.42986844      -0.92796003
Si       0.96284877       2.53443182       5.28009055
16
Lattice="5.237593915734931 -0.4327615652146604 -2.808997045219437 0.40541645737713433 8.781139790463236 -0.1017357298202249 -1.6582318219141194 1.629748440465818 7.207824778509573" Properties=species:S:1:pos:R:3 unique_starting_index=30 config_type=initial n_minim_iter=19 stress="-0.00011932807484694004 -0.001507503493468845 -0.0002513603092276789 -0.001507503493468845 0.0022002045956767352 -0.0005880565359798781 -0.0002513603092276789 -0.0005880565359798781 -0.0006464970711989495" pbc="T T T"
Si       1.14145994       7.89584389       2.17500599
Si       2.84331861       2.08228278       2.12208602
Si       1.77630797       4.56568014       0.71976459
Si       2.20847058       5.41244653       3.57732741
Si       2.93561498       3.18252448       4.19662869
Si       1.04916357       6.79560218       0.10046331
Si       3.63161438       5.09480295      -1.69134016
Si       0.35316417       4.88332372       5.98843217
Si       0.10823271       4.67380316       2.55622571
Si       3.87654584       5.30432350       1.74086629
Si       4.51364626       7.40474235       0.85332131
Si      -0.52886770       2.57338432       3.44377069
Si       0.55520280       1.40130247       1.71108740
Si       3.42957575       8.57682420       2.58600460
Si       3.01973567       7.46712529      -0.96343639
Si       0.96504288       2.51100137       5.26052840
16
Lattice="5.233569392902278 -0.4256910170277276 -2.8016602753027353 0.41660671936799787 8.777234363718915 -0.09939539425373414 -1.6499901867214077 1.6278551851138137 7.199133621522988" Properties=species:S:1:pos:R:3 unique_starting_index=30 config_type=initial n_minim_iter=20 stress="0.00048499666445495575 -0.00016725891362237842 1.9014551309812125e-05 -0.00016725891362237842 0.0008197115077390939 -7.897231557607721e-05 1.9014551309812125e-05 -7.897231557607721e-05 8.080651549830359e-05" pbc="T T T"
Si       1.16209237       7.88768278       2.18483617
Si       2.83809356       2.09171575       2.11324178
Si       1.78587076       4.57174992       0.73320608
Si       2.21431516       5.40764861       3.56487187
Si       2.93857562       3.18855012       4.18706105
Si       1.06161031       6.79084841       0.11101690
Si       3.63898349       5.10903054      -1.67790703
Si       0.36120243       4.87036799       5.97598498
Si       0.11082169       4.65363787       2.55868207
Si       3.88936424       5.32576066       1.73939588
Si       4.52455765       7.43054126       0.86700782
Si      -0.52437172       2.54885728       3.43107013
Si       0.55754558       1.38982666       1.69851275
Si       3.44264034       8.58957188       2.59956520
Si       3.03165897       7.46644806      -0.95525058
Si       0.96852696       2.51295047       5.25332853
16
Lattice="5.233822956898421 -0.41269276747022204 -2.7964151932143775 0.4312705888481066 8.774121602601376 -0.10900746367819086 -1.6449984183406738 1.6151648108887817 7.19030808961036" Properties=species:S:1:pos:R:3 unique_starting_index=30 config_type=initial n_minim_iter=21 stress="0.00015281927206744342 0.0007615765543271187 -0.00010088861785544004 0.0007615765543271187 -0.0014123786959396587 9.194165590964687e-05 -0.00010088861785544004 9.194165590964687e-05 0.0006474053286882818" pbc="T T T"
Si       1.18341078       7.89769042       2.18266092
Si       2.83668434       2.07890323       2.10222452
Si       1.79780051       4.58058331       0.73392800
Si       2.22229462       5.39601033       3.55095743
Si       2.93884864       3.19020108       4.17112317
Si       1.08124648       6.78639256       0.11376226
Si       3.64740252       5.12300355      -1.67266775
Si       0.37269260       4.85359010       5.95755318
Si       0.11984298       4.64242746       2.55249968
Si       3.90025214       5.33416618       1.73238575
Si       4.54229387       7.43560200       0.85985277
Si      -0.52219874       2.54099164       3.42503266
Si       0.56043743       1.39292870       1.68542523
Si       3.45965770       8.58366494       2.59946020
Si       3.04853203       7.46967290      -0.96021957
Si       0.97156309       2.50692075       5.24510500
