2
Lattice="4.888742175356541 2.5316790817926294e-17 1.452028054098696e-16 2.5316790817925533e-17 4.888742175356541 -2.5898121937962805e-16 2.4443710876782707 2.4443710876782707 1.3482300584537528" Properties=species:S:1:pos:R:3:forces:R:3 cutoff=-1.0 nneightol=1.2 n_minim_iter=1 energy=-325.6934961964365 stress="0.028056173219304033 9.789352484535773e-17 -7.992987451144229e-17 9.789352484535773e-17 0.028056173219304075 9.960205407040602e-17 -7.992987451144229e-17 9.960205407040602e-17 0.022065237635205973" free_energy=-325.6934961964365 pbc="T T T"
Si      -0.00000000      -1.22218554      -0.33705751      -0.00000000      -0.00000000      -0.00000000
Si      -0.00000000       1.22218555       0.33705751       0.00000000       0.00000000       0.00000000
