2
Lattice="4.400012054166724 3.6250732872404576e-17 -2.0650388126696092e-16 3.625073287240419e-17 4.400012054166726 4.0519926118571093e-16 2.200006027083362 2.200006027083363 1.1888375249666818" Properties=species:S:1:pos:R:3:forces:R:3 cutoff=-1.0 nneightol=1.2 n_minim_iter=2 energy=-324.6446139982239 stress="-0.3540125225642316 -1.1851972626900483e-17 9.77062541881753e-17 -1.1851972626900483e-17 -0.35401252256423166 -1.2512536072924542e-17 9.77062541881753e-17 -1.2512536072924542e-17 -0.35021474953933335" free_energy=-324.6446139982239 pbc="T T T"
Si      -0.00000000      -1.10000301      -0.29720938      -0.00000000      -0.00000000      -0.00000000
Si      -0.00000000       1.10000301       0.29720938       0.00000000       0.00000000       0.00000000
