2
Lattice="4.888742175356543 2.5316790817926303e-17 1.4520280540986965e-16 2.5316790817925514e-17 4.888742175356542 -2.589812193796281e-16 2.4443710876782716 2.444371087678271 1.348230058453753" Properties=species:S:1:pos:R:3:forces:R:3 cutoff=-1.0 nneightol=1.2 n_minim_iter=1 energy=-325.7087797707598 stress="0.01427711108141844 -6.2169258388726e-17 7.435928455565241e-19 -6.2169258388726e-17 0.014277111081418211 8.183708462725873e-17 7.435928455565241e-19 8.183708462725873e-17 0.011696934547637846" free_energy=-325.7087797707598 pbc="T T T"
Si      -0.00000000      -1.22218554      -0.33705751       0.00000000      -0.00000000       0.00000000
Si      -0.00000000       1.22218555       0.33705751      -0.00000000       0.00000000       0.00000000
