2
Lattice="2.7470454896515393 -6.343690504775457e-16 2.7470454896515384 2.747045489651539 2.7470454896515393 -1.1066762324439488e-16 2.669797352378848e-16 2.7470454896515384 2.7470454896515393" Properties=species:S:1:pos:R:3:forces:R:3 n_minim_iter=1 energy=-326.3504955543485 stress="0.00988105813389493 1.3603657258085904e-17 7.831711934214943e-17 1.3603657258085904e-17 0.009881058133894952 -3.144571541438339e-17 7.831711934214943e-17 -3.144571541438339e-17 0.009881058133895004" free_energy=-326.3504955543485 pbc="T T T"
Si       0.00000000       0.00000000       0.00000000      -0.00000000       0.00000000       0.00000000
Si       1.37352274       1.37352274       1.37352274       0.00000000      -0.00000000      -0.00000000
