2
Lattice="2.898756975397444 -6.553931506509605e-16 2.8987569753974434 2.8987569753974434 2.8987569753974434 -1.1677948036857577e-16 2.677139716022918e-16 2.8987569753974434 2.898756975397444" Properties=species:S:1:pos:R:3:forces:R:3 n_minim_iter=1 energy=-326.1115225045722 stress="0.05971604584472891 4.5932068023396126e-17 4.878635330441121e-17 4.5932068023396126e-17 0.05971604584472892 -1.0993081852316178e-16 4.878635330441121e-17 -1.0993081852316178e-16 0.059716045844728935" free_energy=-326.1115225045722 pbc="T T T"
Si       0.00000000       0.00000000       0.00000000       0.00000000      -0.00000000       0.00000000
Si       1.44937849       1.44937849       1.44937849      -0.00000000       0.00000000      -0.00000000
