2
Lattice="2.91917142951265 -6.568812556009282e-16 2.9191714295126494 2.9191714295126494 2.9191714295126494 -1.176018981717292e-16 2.6959934337911187e-16 2.919171429512649 2.91917142951265" Properties=species:S:1:pos:R:3:forces:R:3 n_minim_iter=1 energy=-325.976917494428 stress="0.0700064589359762 -1.3005183985197622e-17 5.5276155708067975e-17 -1.3005183985197622e-17 0.07000645893597617 -1.0682373414448985e-16 5.5276155708067975e-17 -1.0682373414448985e-16 0.07000645893597628" free_energy=-325.976917494428 pbc="T T T"
Si       0.00000000       0.00000000       0.00000000      -0.00000000       0.00000000      -0.00000000
Si       1.45958571       1.45958571       1.45958571       0.00000000      -0.00000000       0.00000000
