2
Lattice="2.523285654749025 -1.713235680687182e-16 2.5232856547490243 2.5232856547490243 2.523285654749025 -1.0165322242740593e-16 -1.7342259960334108e-16 2.5232856547490243 2.523285654749025" Properties=species:S:1:pos:R:3:forces:R:3 n_minim_iter=1 energy=-325.6015910036817 stress="-0.2132246209253735 1.1255179904902265e-16 -5.5345498868141916e-17 1.1255179904902265e-16 -0.21322462092537367 6.021284480634453e-17 -5.5345498868141916e-17 6.021284480634453e-17 -0.2132246209253734" free_energy=-325.6015910036817 pbc="T T T"
Si       0.00000000       0.00000000       0.00000000       0.00000000      -0.00000000      -0.00000000
Si       1.26164283       1.26164283       1.26164283      -0.00000000       0.00000000       0.00000000
