4
Lattice="1.8225562905617951 -3.1567600949072943 4.906283781526905e-18 1.8225562905617951 3.1567600949072943 -4.906283781526962e-18 9.3604149433293e-32 9.371949835934091e-18 6.03002161532985" Properties=species:S:1:pos:R:3 cutoff=-1.0 nneightol=1.2 n_minim_iter=1 energy=-652.0619328197062 free_energy=-652.0619328197062 pbc="T T T"
Si       1.82255629       1.05225336       0.38390014
Si       1.82255629      -1.05225336       3.39891095
Si       1.82255629       1.05225336       2.63111066
Si       1.82255629      -1.05225336      -0.38390014
4
Lattice="1.8212776388339957 -3.1545454051495607 1.0460817266575271e-17 1.8212776388339957 3.1545454051495607 -1.0460817266575305e-17 1.3095596559979318e-31 -1.2338428833200801e-18 6.038491498174886" Properties=species:S:1:pos:R:3 cutoff=-1.0 nneightol=1.2 n_minim_iter=2 stress="-0.11170712132553501 3.5048456334523596e-16 -1.7418256161588228e-16 3.5048456334523596e-16 -0.11170712132553491 -8.289344100123576e-16 -1.7418256161588228e-16 -8.289344100123576e-16 -0.11123530149953471" pbc="T T T"
Si       1.82127764       1.05151514       0.38463983
Si       1.82127764      -1.05151514       3.40388558
Si       1.82127764       1.05151514       2.63460592
Si       1.82127764      -1.05151514      -0.38463983
4
Lattice="1.8201876685305578 -3.1526575212052648 2.6355268442136172e-17 1.8201876685305578 3.1526575212052648 -2.6355268442136145e-17 1.6794488782223127e-31 -3.155762882242057e-17 6.0457256391198655" Properties=species:S:1:pos:R:3 cutoff=-1.0 nneightol=1.2 n_minim_iter=3 stress="-0.11128362024660007 2.2810885667051323e-16 -7.726585426638216e-17 2.2810885667051323e-16 -0.11128362024660049 9.570651439853006e-17 -7.726585426638216e-17 9.570651439853006e-17 -0.11129279037551189" pbc="T T T"
Si       1.82018767       1.05088584       0.38768259
Si       1.82018767      -1.05088584       3.41054541
Si       1.82018767       1.05088584       2.63518023
Si       1.82018767      -1.05088584      -0.38768259
