4
Lattice="1.894259736768342 -3.280954106814816 1.1329430599226042e-17 1.8942597367683423 3.280954106814816 -1.1329430599226042e-17 5.074547680894144e-33 2.1543403760313e-17 6.238876563399162" Properties=species:S:1:pos:R:3 cutoff=-1.0 nneightol=1.2 n_minim_iter=1 energy=-652.5984595665021 free_energy=-652.5984595665021 pbc="T T T"
Si       1.89425974       1.09365137       0.39101603
Si       1.89425974      -1.09365137       3.51045431
Si       1.89425974       1.09365137       2.72842225
Si       1.89425974      -1.09365137      -0.39101603
4
Lattice="1.8946942843624626 -3.28170676532614 1.1458577663591626e-17 1.8946942843624628 3.28170676532614 -1.1458577663591627e-17 5.778550953903884e-33 2.129291111017821e-17 6.236015122448722" Properties=species:S:1:pos:R:3 cutoff=-1.0 nneightol=1.2 n_minim_iter=2 stress="-0.027151157994862115 4.5903751624016686e-17 7.460192283027846e-18 4.5903751624016686e-17 -0.0271511579948618 3.5931884185890216e-16 7.460192283027846e-18 3.5931884185890216e-16 -0.027390421564422042" pbc="T T T"
Si       1.89469428       1.09390226       0.39105389
Si       1.89469428      -1.09390226       3.50906145
Si       1.89469428       1.09390226       2.72695367
Si       1.89469428      -1.09390226      -0.39105389
