4
Lattice="1.7603382488296724 -3.0489952854798177 -5.005312532030421e-18 1.7603382488296726 3.0489952854798177 5.0053125320303935e-18 1.6851502439698794e-32 1.577827206455391e-17 5.893472969315283" Properties=species:S:1:pos:R:3 cutoff=-1.0 nneightol=1.2 n_minim_iter=3 stress="-0.12581053836576392 -4.0654956796895794e-16 3.7113022441389236e-16 -4.0654956796895794e-16 -0.12581053836576359 -4.21443210412338e-17 3.7113022441389236e-16 -4.21443210412338e-17 -0.125818550954151" pbc="T T T"
Si       1.76033825       1.01633176       0.37743645
Si       1.76033825      -1.01633176       3.32417293
Si       1.76033825       1.01633176       2.56930004
Si       1.76033825      -1.01633176      -0.37743645
