4
Lattice="1.9575722626513332 -3.390614618399676 1.1688288577353602e-17 1.9575722626513332 3.390614618399676 -1.16882885773536e-17 9.851934941096057e-34 2.231251712156929e-17 6.45677329333086" Properties=species:S:1:pos:R:3 cutoff=-1.0 nneightol=1.2 n_minim_iter=2 stress="0.012236731982943054 8.483267023835418e-17 -2.3966894109690084e-17 8.483267023835418e-17 0.012236731982943299 3.038303892414826e-16 -2.3966894109690084e-17 3.038303892414826e-16 0.012318365855513783" pbc="T T T"
Si       1.95757226       1.13020487       0.40433954
Si       1.95757226      -1.13020487       3.63272619
Si       1.95757226       1.13020487       2.82404710
Si       1.95757226      -1.13020487      -0.40433954
