4
Lattice="2.0686777346446994 -3.5830549408911097 7.800183584125953e-18 2.0686777346446994 3.5830549408911097 -7.800183584125935e-18 -1.4670282899579715e-32 2.7210805587599663e-17 6.883133250913646" Properties=species:S:1:pos:R:3 cutoff=-1.0 nneightol=1.2 n_minim_iter=3 stress="0.06845167056921228 -8.231912926091344e-17 3.394943299694943e-17 -8.231912926091344e-17 0.06845167056921386 -1.7274851203929541e-16 3.394943299694943e-17 -1.7274851203929541e-16 0.0686022430310883" pbc="T T T"
Si       2.06867773       1.19435165       0.43896094
Si       2.06867773      -1.19435165       3.88052757
Si       2.06867773       1.19435165       3.00260568
Si       2.06867773      -1.19435165      -0.43896094
