4
Lattice="1.7837741044563313 -3.0895873781440386 2.582802101995913e-17 1.7837741044563313 3.0895873781440386 -2.5828021019959095e-17 -3.9659983120264285e-32 4.9529366205434694e-17 5.92477854023472" Properties=species:S:1:pos:R:3 cutoff=-1.0 nneightol=1.2 n_minim_iter=1 stress="-0.13161198027803203 1.5097345998087664e-16 4.606684833953442e-16 1.5097345998087664e-16 -0.1316119802780328 -7.330058843045759e-17 4.606684833953442e-16 -7.330058843045759e-17 -0.13730453698061879" pbc="T T T"
Si       1.78377410       1.02986246       0.37992685
Si       1.78377410      -1.02986246       3.34231612
Si       1.78377410       1.02986246       2.58246242
Si       1.78377410      -1.02986246      -0.37992685
