4
Lattice="1.9874295054179245 -3.44232887984533 1.1287555959949051e-17 1.9874295054179245 3.44232887984533 -1.1287555959949048e-17 -6.1002845498801874e-33 2.151882825457924e-17 6.562526398451996" Properties=species:S:1:pos:R:3 cutoff=-1.0 nneightol=1.2 n_minim_iter=1 stress="0.04348593340888936 -1.1649551779729058e-16 1.273123450671823e-17 -1.1649551779729058e-16 0.04348593340888937 4.815456115123117e-18 1.273123450671823e-17 4.815456115123117e-18 0.043040540531320746" pbc="T T T"
Si       1.98742951       1.14744296       0.41049209
Si       1.98742951      -1.14744296       3.69175529
Si       1.98742951       1.14744296       2.87077111
Si       1.98742951      -1.14744296      -0.41049209
