4
Lattice="1.7608207255757495 -3.0498309597174917 1.5646203180502542e-18 1.7608207255757495 3.0498309597174917 -1.5646203180502677e-18 3.715369395129082e-33 9.518542491384454e-17 5.890243709168663" Properties=species:S:1:pos:R:3 cutoff=-1.0 nneightol=1.2 n_minim_iter=3 stress="-0.1421562955383361 3.4445747788308145e-16 -1.5042913785378182e-16 3.4445747788308145e-16 -0.14215629553833736 2.0538154813274833e-16 -1.5042913785378182e-16 2.0538154813274833e-16 -0.1421522314395751" pbc="T T T"
Si       1.76082073       1.01661032       0.38004732
Si       1.76082073      -1.01661032       3.32516918
Si       1.76082073       1.01661032       2.56507453
Si       1.76082073      -1.01661032      -0.38004732
