4
Lattice="1.8225562905617947 -3.1567600949072934 4.906283781526905e-18 1.8225562905617947 3.1567600949072934 -4.906283781526962e-18 8.723034706454118e-32 2.7431206253824595e-18 6.030021615329851" Properties=species:S:1:pos:R:3 cutoff=-1.0 nneightol=1.2 n_minim_iter=4 stress="-0.08662345762137437 2.0013998040781684e-16 -8.008561953521576e-17 2.0013998040781684e-16 -0.0866234576213738 9.672241637606882e-18 -8.008561953521576e-17 9.672241637606882e-18 -0.08662788997503473" pbc="T T T"
Si       1.82255629       1.05225336       0.38390014
Si       1.82255629      -1.05225336       3.39891095
Si       1.82255629       1.05225336       2.63111066
Si       1.82255629      -1.05225336      -0.38390014
