4
Lattice="1.9724873843837567 -3.4164483670413097 1.1325820853588934e-17 1.9724873843837567 3.4164483670413097 -1.1325820853588913e-17 -9.198337037538234e-33 2.3304566227534164e-17 6.510912219331139" Properties=species:S:1:pos:R:3 cutoff=-1.0 nneightol=1.2 n_minim_iter=2 stress="0.023697164585057783 -6.934175180952392e-17 2.1283304903521048e-16 -6.934175180952392e-17 0.023697164585057672 -1.686243447130621e-17 2.1283304903521048e-16 -1.686243447130621e-17 0.024074363683454187" pbc="T T T"
Si       1.97248738       1.13881612       0.40746680
Si       1.97248738      -1.13881612       3.66292291
Si       1.97248738       1.13881612       2.84798931
Si       1.97248738      -1.13881612      -0.40746680
