4
Lattice="1.8021648246696083 -3.1214410399412182 2.6094308049832495e-17 1.8021648246696083 3.1214410399412182 -2.609430804983246e-17 -4.0068877750703133e-32 5.004001422636373e-17 5.985863037530017" Properties=species:S:1:pos:R:3 cutoff=-1.0 nneightol=1.2 n_minim_iter=1 stress="-0.13161198027803203 1.5097345998087664e-16 4.606684833953442e-16 1.5097345998087664e-16 -0.1316119802780328 -7.330058843045759e-17 4.606684833953442e-16 -7.330058843045759e-17 -0.13730453698061879" pbc="T T T"
Si       1.80216482       1.04048035       0.38384390
Si       1.80216482      -1.04048035       3.37677541
Si       1.80216482       1.04048035       2.60908762
Si       1.80216482      -1.04048035      -0.38384390
