12
Lattice="3.846660889654819 0.0 0.0 0.0 5.44 0.0 0.0 0.0 -21.539982668964456" Properties=species:S:1:pos:R:3:forces:R:3 bulk_struct_test=bulk_Si_diamond n_minim_iter=0 pbc="T T T"
Si      -0.00000000      -1.01431379      -0.89933257       0.00000001      -0.00071385       0.00256698
Si      -0.00000001       1.31471692      -1.79029302       0.00000008      -0.00103310       0.00637680
Si       1.92333045       2.92474702      -1.73001979      -0.00000008       0.00032055      -0.00268769
Si       1.92333044       4.07223763      -3.81819293       0.00000013       0.00104903      -0.00357644
Si       0.00000000       0.02761645      -3.81790367      -0.00000014       0.00444877       0.00783852
Si      -0.00000003       1.35938619      -5.78514263       0.00000066      -0.00035496       0.00496381
Si       1.92333047       2.72061381      -5.75484002      -0.00000066       0.00035493      -0.00496402
Si       1.92333044       4.05238356      -7.72207901       0.00000014      -0.00444889      -0.00783842
Si       0.00000000       0.00776236      -7.72178974      -0.00000013      -0.00104887       0.00357655
Si      -0.00000001       1.15525298      -9.80996287       0.00000008      -0.00032057       0.00268770
Si       1.92333045       2.76528308      -9.74968964      -0.00000008       0.00103309      -0.00637680
Si       1.92333044       5.09431379     -10.64065010      -0.00000001       0.00071386      -0.00256699
