24
Lattice="8.587345159928857 0.01187908973294499 -0.004173834886507348 0.0077662403623015 6.365143133439752 -0.006677361681748261 -0.0016719704648847785 -0.007396357318620888 6.608188163844732" Properties=species:S:1:pos:R:3 Minim_Constant_Volume=F n_minim_iter=200 stress="-0.04905855722637022 -0.00014895459633074986 7.853670797055002e-05 -0.00014895459633074986 -0.049211903552438346 -0.00014802218564291867 7.853670797055002e-05 -0.00014802218564291867 -0.04917483350320991" pbc="T T T"
Ti       0.04106526       0.14770563      -0.10994617
Ti       1.56216227       1.49274457       1.73367518
V       -0.03681929      -0.05035140       3.37418295
Ti       1.44820146       1.77830531       4.87408281
Ti      -0.07656602       3.04311363       0.12031754
Ti       1.47262533       4.85503278       1.51200222
Ti      -0.02160452       3.29634090       3.15536108
Al       1.38267564       4.67677313       5.03887210
Ti       2.83395789       0.10437051      -0.13916114
Ti       4.34517200       1.50117060       1.81772005
Ti       2.86016257      -0.14327068       3.46323265
Ti       4.31587763       1.77839935       4.77032423
Ti       2.91904331       3.08198169       0.07006497
Ti       4.29704980       4.87150945       1.47793698
Ti       2.93162636       3.37937193       3.21393354
Ti       4.35110943       4.55064569       5.13563692
Ti       5.71463537       0.19953932      -0.11565034
Ti       7.08977903       1.43465570       1.84353137
Ti       5.64878160      -0.22887444       3.45781871
Ti       7.11741563       1.74451414       4.78392126
Al       5.73527410       2.99327149       0.13307589
Ti       7.12163802       4.87851595       1.46499775
Al       5.74347107       3.35574704       3.16910044
Ti       7.13156607       4.59729954       5.12682785
