24
Lattice="9.72593889416788 -0.028552031849428148 -0.008041820682749683 -0.01945053689636298 6.612287786365742 0.008239338895341945 -0.0055270906554716935 0.008461825947201886 6.552642185763476" Properties=species:S:1:pos:R:3 Minim_Constant_Volume=F n_minim_iter=45 stress="0.033291837198325826 5.46874702692317e-06 3.717362823502252e-06 5.46874702692317e-06 0.03330683280770946 6.331269846175175e-06 3.717362823502252e-06 6.331269846175175e-06 0.03330055157657588" pbc="T T T"
Ti       0.15994434       0.08625545       0.01270889
Ti       1.53059815       1.79886970       1.64811459
V        0.08710347       0.00266005       3.29921940
Ti       1.57314969       1.78637451       4.92158038
Ti      -0.09841089       3.27980815       0.01811566
Ti       1.62358372       4.85956500       1.64200861
Ti      -0.12130049       3.32063966       3.25538919
Al       1.62397907       4.92592710       4.89449953
Ti       3.04704360       0.12873793       0.06210717
Ti       5.02458284       1.48312415       1.64709395
Ti       3.09854096       0.13042592       3.19510359
Ti       4.84656889       1.50818304       4.90040058
Ti       3.34716872       3.19657771       0.03703752
Ti       4.73059980       5.05383710       1.63604371
Ti       3.32734844       3.21291678       3.23452583
Ti       4.73254443       5.05149679       4.91150317
Ti       6.54704844      -0.13349052      -0.03852620
Ti       8.00909526       1.52719373       1.62704395
Ti       6.52428489      -0.13201588       3.30637855
Ti       8.14233026       1.57499882       4.92301131
Al       6.45248804       3.31934758      -0.01733190
Ti       8.20202191       5.01776081       1.60757446
Al       6.43953017       3.32973239       3.28821028
Ti       8.18474657       4.97230019       4.95570329
