24
Lattice="10.135267047409807 -0.1388934301286423 0.009048810620050328 -0.09268107419504582 7.05087799793079 0.013524334990649221 0.005755612782430798 0.014114719852315738 6.600024353658188" Properties=species:S:1:pos:R:3 Minim_Constant_Volume=F n_minim_iter=38 stress="0.07044277988161028 -3.9777318437757895e-06 1.5200501369071185e-06 -3.9777318437757895e-06 0.07043141307997952 3.6474642578539334e-06 1.5200501369071185e-06 3.6474642578539334e-06 0.07044271207517024" pbc="T T T"
Ti       0.21507356       0.11248055       0.00191355
Ti       1.51992725       2.01103110       1.61923049
V        0.30264141       0.01944380       3.33805930
Ti       1.55938882       2.05662653       5.01438095
Ti      -0.22104834       3.54277897       0.05133783
Ti       1.63786803       5.12951268       1.67801374
Ti      -0.24850126       3.50583167       3.25645852
Al       1.66180713       5.13232900       4.94890614
Ti       3.11419780       0.19054786       0.07853634
Ti       5.30148525       1.46331422       1.68932822
Ti       3.14595441       0.20233072       3.20689206
Ti       5.26361555       1.46150555       4.91879729
Ti       3.51955361       3.33175150       0.10448893
Ti       4.75902676       5.37009697       1.71267632
Ti       3.47916883       3.33434907       3.22056166
Ti       4.74294729       5.36667071       4.90613498
Ti       6.84015729      -0.44671544      -0.04077254
Ti       8.22422528       1.52405035       1.52690071
Ti       6.89154626      -0.38766522       3.34088127
Ti       8.31044411       1.55728770       5.07907230
Al       6.64187867       3.60569259       0.01257695
Ti       8.59569497       5.27812084       1.64753344
Al       6.69917928       3.59430127       3.30619361
Ti       8.61410934       5.24032713       4.99432423
