24
Lattice="9.913854982539966 -0.09489220348402001 -0.002396830454489607 -0.06450243322677209 6.756337077417492 0.006246474964909468 -0.0018615296717558085 0.006671294380714833 6.59150559753598" Properties=species:S:1:pos:R:3 Minim_Constant_Volume=F n_minim_iter=64 stress="0.04451316679011966 -2.9375133110443544e-06 -6.917656957973811e-06 -2.9375133110443544e-06 0.04451900584164498 -2.0624148379610808e-05 -6.917656957973811e-06 -2.0624148379610808e-05 0.04452004226682049" pbc="T T T"
Ti       0.17511766       0.10044870       0.01215980
Ti       1.52336044       1.87643861       1.65482503
V        0.12021257       0.01827185       3.32075395
Ti       1.53966103       1.87707854       4.95697968
Ti      -0.15474705       3.37913973       0.02611136
Ti       1.63191565       4.95679697       1.65404322
Ti      -0.18481293       3.40153731       3.26718285
Al       1.63517283       5.00689731       4.92437787
Ti       3.08599895       0.15436737       0.05701487
Ti       5.14419169       1.44410370       1.67208134
Ti       3.12215068       0.15471319       3.22151694
Ti       5.02193429       1.45631106       4.92028722
Ti       3.41493494       3.21085972       0.04093265
Ti       4.74977499       5.14751397       1.65477017
Ti       3.38986431       3.23456579       3.25219965
Ti       4.75302659       5.14293738       4.93196268
Ti       6.69243190      -0.26517346      -0.03282438
Ti       8.12808942       1.49847986       1.61400040
Ti       6.70329536      -0.25509644       3.32505651
Ti       8.26680835       1.53364976       4.98123356
Al       6.53363135       3.37321926      -0.01512770
Ti       8.35987595       5.06923188       1.61719086
Al       6.53653613       3.37919830       3.30701544
Ti       8.35284906       5.02266292       4.99205634
