24
Lattice="8.906754104044293 0.0025771155837801232 -0.00514611531550907 0.0012052611124168647 6.33986554808203 0.012400985358586827 -0.002518208295497459 0.012407052693504434 6.574301764626336" Properties=species:S:1:pos:R:3 Minim_Constant_Volume=F n_minim_iter=200 stress="-0.039776166051388305 -1.7455834449283097e-05 -4.860053542310784e-06 -1.7455834449283097e-05 -0.03975978516444849 -3.7401732566443098e-06 -4.860053542310784e-06 -3.7401732566443098e-06 -0.03976633888629579" pbc="T T T"
Ti       0.08628071       0.08940284      -0.02570068
Ti       1.61254731       1.59136851       1.65952258
V       -0.00266382      -0.00143596       3.29946821
Ti       1.50790006       1.70807755       4.92117818
Ti      -0.06560954       3.10629355       0.04678618
Ti       1.51228388       4.73685012       1.60234785
Ti      -0.02806898       3.21417499       3.21375278
Al       1.42554874       4.72949680       4.93965006
Ti       2.88062635       0.01678103      -0.03919521
Ti       4.52106174       1.53466748       1.72235943
Ti       2.93872352      -0.05659854       3.33601666
Ti       4.45084068       1.67193111       4.85769754
Ti       3.02303287       3.16613286       0.00450951
Ti       4.45220022       4.80656933       1.59368974
Ti       3.03120231       3.26584451       3.28971511
Ti       4.47971929       4.66467241       5.00561877
Ti       5.94151669       0.07460885      -0.04533909
Ti       7.32058359       1.49593489       1.72950561
Ti       5.89516024      -0.11440341       3.35508699
Ti       7.40060694       1.67010567       4.86468838
Al       5.92885804       3.09362746       0.05047757
Ti       7.39391024       4.81401692       1.56516986
Al       5.94069236       3.25398095       3.25474410
Ti       7.40877109       4.66412463       5.02711345
