24
Lattice="9.802524243418338 -0.02877686025466416 -0.008105144712676218 -0.01960369703622466 6.66435518828691 0.008304218250822067 -0.005570612846264201 0.008528457241364308 6.604239917948583" Properties=species:S:1:pos:R:3 Minim_Constant_Volume=F n_minim_iter=45 stress="0.033291837198325826 5.46874702692317e-06 3.717362823502252e-06 5.46874702692317e-06 0.03330683280770946 6.331269846175175e-06 3.717362823502252e-06 6.331269846175175e-06 0.03330055157657588" pbc="T T T"
Ti       0.16120380       0.08693466       0.01280896
Ti       1.54265060       1.81303461       1.66109241
V        0.08778935       0.00268100       3.32519857
Ti       1.58553721       1.80044103       4.96033457
Ti      -0.09918581       3.30563447       0.01825831
Ti       1.63636837       4.89783086       1.65493834
Ti      -0.12225565       3.34678751       3.28102323
Al       1.63676684       4.96471553       4.93304048
Ti       3.07103706       0.12975166       0.06259622
Ti       5.06414811       1.49480277       1.66006373
Ti       3.12293993       0.13145294       3.22026293
Ti       4.88473242       1.52005898       4.93898800
Ti       3.37352546       3.22174865       0.03732916
Ti       4.76785015       5.09363273       1.64892647
Ti       3.35354912       3.23821638       3.25999558
Ti       4.76981009       5.09127400       4.95017801
Ti       6.59860212      -0.13454167      -0.03882957
Ti       8.07216160       1.53921937       1.63985584
Ti       6.57565932      -0.13305542       3.33241410
Ti       8.20644574       1.58740089       4.96177678
Al       6.50329712       3.34548525      -0.01746838
Ti       8.26660742       5.05727237       1.62023305
Al       6.49023722       3.35595184       3.31410276
Ti       8.24919605       5.01145378       4.99472618
