24
Lattice="10.264584164821557 -0.11690382669140607 0.033434252471222996 -0.07944388317595603 6.984519764771843 0.014780857366892516 0.0217764121394804 0.015420680440388138 6.578529372654774" Properties=species:S:1:pos:R:3 Minim_Constant_Volume=F n_minim_iter=200 stress="0.07209425669728046 7.181874036942766e-07 -6.711606670866046e-09 7.181874036942766e-07 0.0720970787278466 -1.412094082899447e-07 -6.711606670866046e-09 -1.412094082899447e-07 0.07209559577520809" pbc="T T T"
Ti       0.24167987       0.13640687       0.01086980
Ti       1.60294478       2.01455772       1.61696190
V        0.44156606       0.00068850       3.34500578
Ti       1.66227179       2.05904726       5.01763747
Ti      -0.20696782       3.48031772       0.07855195
Ti       1.71177449       5.07436429       1.67167103
Ti      -0.23444231       3.48040931       3.23020336
Al       1.72586125       5.07392014       4.95582091
Ti       3.14195300       0.19005384       0.09754942
Ti       5.35259491       1.46353758       1.71108228
Ti       3.21420057       0.19353585       3.19331118
Ti       5.30589746       1.47711252       4.88529655
Ti       3.58987413       3.32309177       0.12091915
Ti       4.84511902       5.33758090       1.73166142
Ti       3.54938656       3.32556474       3.21782797
Ti       4.79916174       5.32633810       4.88179211
Ti       6.84824857      -0.42281694      -0.07124801
Ti       8.28051319       1.51326562       1.52164270
Ti       6.96774295      -0.39203760       3.37741590
Ti       8.38590911       1.55870721       5.09602617
Al       6.67348834       3.58071754       0.01099871
Ti       8.66160826       5.24933889       1.61053135
Al       6.81351969       3.57225556       3.31573246
Ti       8.75292879       5.21446832       5.04687300
