24
Lattice="10.050165805962852 -0.14694938913233696 0.0050651721715210705 -0.0985937973137921 6.971894781704547 0.012263647983968813 0.003093871640329575 0.012759279954505357 6.588262301279202" Properties=species:S:1:pos:R:3 Minim_Constant_Volume=F n_minim_iter=45 stress="0.0633695314549816 1.4853842268111323e-06 1.555545344492851e-05 1.4853842268111323e-06 0.0633522913253584 1.7116108896047907e-05 1.555545344492851e-05 1.7116108896047907e-05 0.0633384684856018" pbc="T T T"
Ti       0.20548478       0.10605973       0.00518070
Ti       1.51388245       1.97894116       1.63057541
V        0.23029859       0.03654440       3.32768576
Ti       1.53723638       2.01130779       4.98924560
Ti      -0.21555808       3.50338580       0.04609014
Ti       1.62356634       5.09089882       1.67108345
Ti      -0.24253434       3.47871549       3.25715711
Al       1.64417649       5.10062837       4.93220304
Ti       3.10237907       0.18140689       0.06566496
Ti       5.25241938       1.44342717       1.67451240
Ti       3.13250644       0.19283370       3.21289019
Ti       5.20540922       1.44089621       4.91915646
Ti       3.48397219       3.28688594       0.08201769
Ti       4.72329924       5.29804440       1.68943137
Ti       3.44939518       3.29982361       3.22836469
Ti       4.71891458       5.29335890       4.91042407
Ti       6.79035564      -0.42566563      -0.03394284
Ti       8.17781967       1.49473951       1.54734230
Ti       6.81754499      -0.37661394       3.32177840
Ti       8.27252578       1.52389486       5.04609476
Al       6.58751921       3.53613611       0.00546993
Ti       8.50204574       5.20384522       1.64228639
Al       6.61739088       3.51869678       3.30486197
Ti       8.51210891       5.17420135       4.97981128
