16
Lattice="7.661067638020354 -0.22187042496546938 -0.43719220616747023 0.5307415098988434 7.927001854878175 -0.6821033192351902 -0.768867502979097 1.1456365954029595 5.674469991638181" Properties=species:S:1:pos:R:3 unique_starting_index=30 config_type=initial n_minim_iter=1 energy=-2604.6913004354515 free_energy=-2604.6913004354515 pbc="T T T"
Si       1.98551140       7.58093534       2.76209291
Si       5.43743025       1.26983268       1.79308156
Si       2.60600257       4.25271943       1.76460151
Si       4.81693908       4.59804859       2.79057296
Si       3.73404872       2.41412431       3.01570436
Si       3.68889292       6.43664371       1.53947011
Si       5.02769515       4.57413861      -0.85501905
Si       2.39524649       4.27662942       5.41019351
Si       1.01505195       4.40268127       3.50813393
Si       6.40788969       4.44808675       1.04704054
Si       7.59033209       6.19087375       2.13192866
Si      -0.16739044       2.65989427       2.42324581
Si       1.82831971       1.45196054       1.88333573
Si       5.59462194       7.39880749       2.67183874
Si       3.98577916       6.71760552      -0.84643530
Si       3.43716248       2.13316250       5.40160977
16
Lattice="7.626399682012341 -0.20899410905507135 -0.4360259491872025 0.5433082765856951 8.001880258277994 -0.6894543254748463 -0.7657077194464808 1.1451013417418225 5.6202639443418025" Properties=species:S:1:pos:R:3 unique_starting_index=30 config_type=initial n_minim_iter=2 stress="-0.0009978421209789568 0.0007063911960412053 -0.00012649608540540308 0.0007063911960412053 0.0005233521248580036 -0.000794898976106567 -0.00012649608540540308 -0.000794898976106567 -0.0027275890865195392" pbc="T T T"
Si       1.98977259       7.65091257       2.72012694
Si       5.41422765       1.28707492       1.77465673
Si       2.60207556       4.29444051       1.73989266
Si       4.80192467       4.64354698       2.75489101
Si       3.72292485       2.43770305       2.98307439
Si       3.68107539       6.50028445       1.51170928
Si       5.01606750       4.62681467      -0.85789147
Si       2.38793274       4.31117282       5.35267514
Si       1.01457694       4.44082875       3.46750135
Si       6.38942330       4.49715874       1.02728232
Si       7.56690961       6.25692839       2.10000720
Si      -0.16290937       2.68105910       2.39477647
Si       1.82286436       1.46708136       1.86183878
Si       5.58113588       7.47090614       2.63294489
Si       3.97993868       6.78576344      -0.85194332
Si       3.42406156       2.15222405       5.34672699
16
Lattice="7.624406156679298 -0.2220129359981063 -0.4366265603477474 0.5323379841575097 8.06393129981663 -0.6756453193609034 -0.7662934193437579 1.1665426666753893 5.637523985183038" Properties=species:S:1:pos:R:3 unique_starting_index=30 config_type=initial n_minim_iter=3 stress="0.003906408597723548 0.0006223246525807991 5.686859308960363e-05 0.0006223246525807991 0.007945094213586844 -8.637867442917107e-05 5.686859308960363e-05 -8.637867442917107e-05 0.002963699509873535" pbc="T T T"
Si       1.97878942       7.71960211       2.73304549
Si       5.41166130       1.28885892       1.79220662
Si       2.59870643       4.33263877       1.75308300
Si       4.79174429       4.67582226       2.77216910
Si       3.72704352       2.45885890       2.99905648
Si       3.66340720       6.54960213       1.52619562
Si       5.01342110       4.65555121      -0.85363374
Si       2.37702963       4.35290982       5.37888584
Si       0.99834426       4.48810969       3.48468986
Si       6.39210646       4.52035134       1.04056225
Si       7.55741063       6.29606099       2.12373854
Si      -0.16695991       2.71240004       2.40151356
Si       1.82354011       1.48472153       1.86734205
Si       5.56691062       7.52373950       2.65791006
Si       3.96954981       6.82670209      -0.84204943
Si       3.42090091       2.18175894       5.36730153
16
Lattice="7.530837044042058 -0.2661345823719828 -0.4360028911150081 0.48333773749278347 8.082294630870159 -0.629051836470281 -0.7621778239172471 1.2065772263501846 5.632294021330223" Properties=species:S:1:pos:R:3 unique_starting_index=30 config_type=initial n_minim_iter=4 stress="-0.003828998145561733 -0.0017196375558738955 -0.0011220126202144437 -0.0017196375558738955 1.0660676732440647e-06 0.0035003496062818848 -0.0011220126202144437 0.0035003496062818848 -0.0005399060884625367" pbc="T T T"
Si       1.91255058       7.76377035       2.73908276
Si       5.33944638       1.25896693       1.82815653
Si       2.55351503       4.35476739       1.77364128
Si       4.69848193       4.66796988       2.79359801
Si       3.69435271       2.46673608       3.01584942
Si       3.55764425       6.55600120       1.55138987
Si       4.94298653       4.63903559      -0.83551930
Si       2.30901043       4.38370169       5.40275859
Si       0.92864756       4.53685276       3.49961307
Si       6.32334940       4.48588451       1.06762622
Si       7.43305023       6.27089645       2.17165014
Si      -0.18105327       2.75184083       2.39558915
Si       1.80275520       1.50625406       1.86401188
Si       5.44924176       7.51648321       2.70322741
Si       3.88518441       6.80143991      -0.80730347
Si       3.36681255       2.22129737       5.37454276
16
Lattice="7.550946301540982 -0.24598540489049925 -0.40815503377037915 0.4998851384573322 8.083893306836272 -0.6861988065448236 -0.7429315216429089 1.16139795253468 5.613599856563044" Properties=species:S:1:pos:R:3 unique_starting_index=30 config_type=initial n_minim_iter=5 stress="-8.474995103382734e-05 0.00228626870973703 0.0015610902080835994 0.00228626870973703 -0.0011857491134144096 -0.00021948846268069288 0.0015610902080835994 -0.00021948846268069288 0.0006900458012886401" pbc="T T T"
Si       1.94338204       7.75246153       2.66517193
Si       5.36451787       1.24684432       1.85407408
Si       2.58029569       4.35180875       1.74749664
Si       4.72760423       4.64749710       2.77174937
Si       3.73604756       2.45286784       3.01247794
Si       3.57185236       6.54643801       1.50676807
Si       4.97523998       4.65499563      -0.85855091
Si       2.33265994       4.34431023       5.37779692
Si       0.93209935       4.52030618       3.46429058
Si       6.37580057       4.47899968       1.05495544
Si       7.47506484       6.25826584       2.15703571
Si      -0.16716492       2.74104001       2.36221031
Si       1.82349580       1.50763403       1.85054884
Si       5.48440412       7.49167182       2.66869718
Si       3.91046557       6.80197903      -0.84863087
Si       3.39743435       2.19732683       5.36787689
16
Lattice="7.566420208021867 -0.2940988088308616 -0.42971983083053134 0.4521247757122205 8.10535455605664 -0.714067573606378 -0.7690872322786126 1.1492982090076969 5.594593481264731" Properties=species:S:1:pos:R:3 unique_starting_index=30 config_type=initial n_minim_iter=6 stress="0.0014523793135468967 -0.001745389552882692 -0.0013091138843024357 -0.001745389552882692 3.6574443811702137e-06 -0.0016323656584049458 -0.0013091138843024357 -0.0016323656584049458 -0.00017647567196602963" pbc="T T T"
Si       1.88823654       7.75929703       2.61144669
Si       5.36122121       1.20125693       1.83935938
Si       2.55284129       4.34540910       1.72000872
Si       4.69661646       4.61514486       2.73079735
Si       3.72513656       2.42708075       2.98823810
Si       3.52432120       6.53347320       1.46256798
Si       4.96453155       4.63924604      -0.89064955
Si       2.28492620       4.32130792       5.34145563
Si       0.88222735       4.51914957       3.43776950
Si       6.36723040       4.44140438       1.01303658
Si       7.44014052       6.21559829       2.11110459
Si      -0.19068277       2.74495567       2.33970149
Si       1.81651955       1.50418950       1.82907038
Si       5.43293820       7.45636446       2.62173570
Si       3.87977123       6.79404547      -0.88857508
Si       3.36968652       2.16650849       5.33938115
16
Lattice="7.493578535233313 -0.31893538503566976 -0.39161942551812406 0.4248092743361926 8.204505385048178 -0.6448450271557831 -0.7370592019581378 1.2112961388997137 5.566829693707137" Properties=species:S:1:pos:R:3 unique_starting_index=30 config_type=initial n_minim_iter=7 stress="0.00018884122069422017 -0.0007088115280520246 -0.0011399816968719646 -0.0007088115280520246 0.004124295149816221 0.0023950552537222694 -0.0011399816968719646 0.0023950552537222694 0.0007195112069835858" pbc="T T T"
Si       1.85757608       7.91334693       2.61391273
Si       5.32375253       1.18351921       1.91645252
Si       2.52132382       4.42936444       1.76903187
Si       4.66000479       4.66750170       2.76133337
Si       3.72515650       2.48658110       3.03667608
Si       3.45617211       6.61028504       1.49368916
Si       4.93210707       4.68687501      -0.83033285
Si       2.24922154       4.40999113       5.36069809
Si       0.83786639       4.61897003       3.48149178
Si       6.34346222       4.47789611       1.04887346
Si       7.35387912       6.29368106       2.21209515
Si      -0.17255051       2.80318508       2.31827009
Si       1.82614080       1.59130762       1.81606749
Si       5.35518781       7.50555852       2.71429775
Si       3.84097230       6.85555117      -0.84843730
Si       3.34035631       2.24131497       5.37880254
16
Lattice="7.4560693291688995 -0.34176122043093093 -0.30897387222771694 0.38956966106294094 8.196021746339369 -0.6697078992441545 -0.6777998222457291 1.1892094488245009 5.537623523771677" Properties=species:S:1:pos:R:3 unique_starting_index=30 config_type=initial n_minim_iter=8 stress="-0.004061882269434231 -0.0006144924100815447 0.002209792686311503 -0.0006144924100815447 0.002209377642814738 6.935803612969336e-05 0.002209792686311503 6.935803612969336e-05 0.0011337434706977956" pbc="T T T"
Si       1.84394339       7.92242348       2.55410941
Si       5.32389578       1.12104649       2.00483234
Si       2.49332955       4.42262615       1.79489531
Si       4.67450962       4.62084382       2.76404644
Si       3.73966491       2.47169674       3.09307858
Si       3.42817426       6.57177324       1.46586317
Si       4.90835114       4.67516399      -0.79228622
Si       2.25948803       4.36830599       5.35122797
Si       0.83229669       4.58743342       3.50586631
Si       6.33554248       4.45603655       1.05307545
Si       7.30495558       6.26776781       2.28088962
Si      -0.13711641       2.77570216       2.27805214
Si       1.85800384       1.64615246       1.79699656
Si       5.30983533       7.39731751       2.76194519
Si       3.82026357       6.84648924      -0.88721312
Si       3.34757560       2.19698073       5.44615487
16
Lattice="7.575610251649916 -0.2913672901422505 -0.3547646622226816 0.4529660088553085 8.116109205604078 -0.6485232137170002 -0.7176913804721369 1.1871544558890568 5.5121438379978445" Properties=species:S:1:pos:R:3 unique_starting_index=30 config_type=initial n_minim_iter=9 stress="0.0030543393578931597 0.0012556806209827523 -0.0023366942545664177 0.0012556806209827523 -0.0003863592170157862 0.000945482867658885 -0.0023366942545664177 0.000945482867658885 -0.002450646889410128" pbc="T T T"
Si       1.90967668       7.86444239       2.55078048
Si       5.40120820       1.14745398       1.95807548
Si       2.54192647       4.39671684       1.78593468
Si       4.76895841       4.61517953       2.72292128
Si       3.78343869       2.47847731       3.06350944
Si       3.52744619       6.53341907       1.44534652
Si       5.01699793       4.65874682      -0.80530450
Si       2.29388695       4.35314955       5.31416047
Si       0.85757940       4.54417010       3.50285447
Si       6.45330548       4.46772627       1.00600149
Si       7.44650849       6.26462626       2.23374308
Si      -0.13562361       2.74727011       2.27511288
Si       1.89378705       1.65292487       1.77597081
Si       5.41709783       7.35897150       2.73288515
Si       3.93785434       6.81092400      -0.90470147
Si       3.37303054       2.20097237       5.41355743
16
Lattice="7.546422863959235 -0.3012820122109905 -0.3299875392300233 0.43704542953636866 8.109240596906378 -0.6701593670104173 -0.6971294269918559 1.1726264433814173 5.532890425437628" Properties=species:S:1:pos:R:3 unique_starting_index=30 config_type=initial n_minim_iter=10 stress="0.0014396963089874514 0.00014749453707502654 -0.0003807238256051591 0.00014749453707502654 -0.0007039507462860689 -0.0005419824284591893 -0.0003807238256051591 -0.0005419824284591893 -0.00014794961215682784" pbc="T T T"
Si       1.90344601       7.84134505       2.55772725
Si       5.38289285       1.13923998       1.97501627
Si       2.53252002       4.37980521       1.79366489
Si       4.75381884       4.60077981       2.73907863
Si       3.76962479       2.45844431       3.08303126
Si       3.51671407       6.52214072       1.44971226
Si       4.97933306       4.64628288      -0.80584632
Si       2.30700581       4.33430215       5.33858984
Si       0.86407663       4.52391880       3.50815882
Si       6.42226223       4.45666623       1.02458470
Si       7.42289065       6.24049713       2.24866265
Si      -0.13655178       2.74008789       2.28408087
Si       1.89269290       1.63562749       1.78940586
Si       5.39364597       7.34495754       2.74333766
Si       3.90808901       6.80321377      -0.91317859
Si       3.37824985       2.17737126       5.44592210
16
Lattice="7.494407063505453 -0.30863128924784333 -0.2929483696264987 0.42287210892505417 8.124958428191457 -0.6723114457739513 -0.6650620030352864 1.1733260434919006 5.541500297626326" Properties=species:S:1:pos:R:3 unique_starting_index=30 config_type=initial n_minim_iter=11 stress="-0.0013592533327971112 -0.0005797266719574637 0.0011911726715210474 -0.0005797266719574637 -0.001257562478262236 -0.001020317032448868 0.0011911726715210474 -0.001020317032448868 0.0009602909443719517" pbc="T T T"
Si       1.90149687       7.85812975       2.56267987
Si       5.35072030       1.13152344       2.01356061
Si       2.51983062       4.38474119       1.81910958
Si       4.73238655       4.60491200       2.75713090
Si       3.75429798       2.45553268       3.12001414
Si       3.49791919       6.53412051       1.45622634
Si       4.93049170       4.64665372      -0.79291836
Si       2.32172547       4.34299946       5.36915884
Si       0.85839925       4.52427252       3.52576736
Si       6.39381791       4.46538066       1.05047312
Si       7.38679221       6.23901075       2.28989802
Si      -0.13457504       2.75064243       2.28634246
Si       1.90474617       1.64474661       1.79666759
Si       5.34747100       7.34490658       2.77957290
Si       3.87623972       6.81197562      -0.92062139
Si       3.37597745       2.17767757       5.49686187
16
Lattice="7.468664565200399 -0.30062801252326404 -0.26439194593416016 0.42813546815839504 8.1442336440184 -0.659169845703875 -0.6400575681556538 1.1830206218770272 5.5378537098280045" Properties=species:S:1:pos:R:3 unique_starting_index=30 config_type=initial n_minim_iter=12 stress="-0.0015702771270794608 -0.000667318180605081 0.0013371356288211086 -0.000667318180605081 -0.0008644270484602802 -0.0006507599784905734 0.0013371356288211086 -0.0006507599784905734 0.001038340160321602" pbc="T T T"
Si       1.92138759       7.88896400       2.56930155
Si       5.33535487       1.13766225       2.04499037
Si       2.52371719       4.40009293       1.84870860
Si       4.73302528       4.62653333       2.76558332
Si       3.75082028       2.46786331       3.15512798
Si       3.50592219       6.55876295       1.45916394
Si       4.90723177       4.65433051      -0.77711224
Si       2.34951070       4.37229575       5.39140416
Si       0.85637067       4.53101933       3.54655847
Si       6.40037179       4.49560692       1.06773345
Si       7.38954500       6.25946261       2.32786285
Si      -0.13280254       2.76716364       2.28642907
Si       1.92981036       1.66395300       1.79867273
Si       5.32693211       7.36267325       2.81561919
Si       3.87680484       6.83078588      -0.92898711
Si       3.37993763       2.19584037       5.54327903
16
Lattice="7.462789357225871 -0.286325650728341 -0.26146771923203654 0.44323333786688907 8.16036038691925 -0.6504191253440428 -0.635349476988328 1.189281548143564 5.531412351357763" Properties=species:S:1:pos:R:3 unique_starting_index=30 config_type=initial n_minim_iter=13 stress="-0.0007894170479717695 -0.00021544311313557285 0.0003016673927464534 -0.00021544311313557285 -0.00010456826097272494 -6.277217480324576e-05 0.0003016673927464534 -6.277217480324576e-05 0.0005401218058626667" pbc="T T T"
Si       1.93981656       7.91324638       2.56750136
Si       5.33085666       1.15006990       2.05202415
Si       2.53336498       4.41565089       1.85956300
Si       4.73730824       4.64766539       2.75996251
Si       3.75070340       2.48405580       3.16715157
Si       3.51996981       6.57926048       1.45237394
Si       4.90776581       4.66439160      -0.77367586
Si       2.36290740       4.39892468       5.39320137
Si       0.85491737       4.53953705       3.55587448
Si       6.41575585       4.52377923       1.06365103
Si       7.40320405       6.28540787       2.33565614
Si      -0.13253083       2.77790842       2.28386937
Si       1.94230809       1.67590947       1.79692102
Si       5.32836513       7.38740681       2.82260449
Si       3.89288933       6.84937148      -0.93877430
Si       3.37778389       2.21394481       5.55829981
16
Lattice="7.475531234284579 -0.2633385257617343 -0.2457504265107744 0.46813103255406163 8.190320142281113 -0.6370727492884963 -0.6229268183702295 1.1974831562889348 5.503108441826106" Properties=species:S:1:pos:R:3 unique_starting_index=30 config_type=initial n_minim_iter=14 stress="0.002695324212062779 0.00018050986049316495 -0.0006449419879624728 0.00018050986049316495 0.001194488790566671 0.0015281134382422819 -0.0006449419879624728 0.0015281134382422819 -0.0011869342595919904" pbc="T T T"
Si       1.97756523       7.95056735       2.55551475
Si       5.34317022       1.17389743       2.06477052
Si       2.56374857       4.44283921       1.87258600
Si       4.75698688       4.68162556       2.74769927
Si       3.76449493       2.51577053       3.18529510
Si       3.55624052       6.60869424       1.43499016
Si       4.92238746       4.67216632      -0.75640867
Si       2.39834799       4.45229845       5.37669393
Si       0.85933955       4.55415068       3.56358994
Si       6.46139590       4.57031410       1.05669533
Si       7.45133374       6.32964146       2.35039273
Si      -0.13059829       2.79482331       2.26989254
Si       1.96273927       1.68377542       1.79815645
Si       5.35799618       7.44068936       2.82212882
Si       3.93268016       6.87959425      -0.94827643
Si       3.38805528       2.24487052       5.56856169
16
Lattice="7.447495388915937 -0.24462121567361556 -0.26642671959478675 0.4862113241981707 8.202544158074161 -0.6640483980728795 -0.6325231212899103 1.1797616760641767 5.5139546219628865" Properties=species:S:1:pos:R:3 unique_starting_index=30 config_type=initial n_minim_iter=15 stress="0.0008787971177945507 0.0010054431193618565 -0.002649422010562241 0.0010054431193618565 0.0017322214823735497 0.0004081675910781066 -0.002649422010562241 0.0004081675910781066 0.00014637053461485566" pbc="T T T"
Si       1.98055189       7.95217200       2.53040411
Si       5.32063170       1.18551262       2.05307540
Si       2.56241123       4.44926417       1.85790144
Si       4.73877236       4.68842045       2.72557806
Si       3.74523444       2.52287929       3.17953467
Si       3.55594915       6.61480532       1.40394483
Si       4.91631746       4.68213904      -0.78195763
Si       2.38486613       4.45554558       5.36543714
Si       0.85452133       4.55001642       3.56114128
Si       6.44666226       4.58766820       1.02233823
Si       7.43209545       6.34712656       2.31863931
Si      -0.13091185       2.79055806       2.26484020
Si       1.94983141       1.67675895       1.79817786
Si       5.35135218       7.46092566       2.78530165
Si       3.94063590       6.89613215      -0.98459615
Si       3.36054769       2.24155247       5.56807565
16
Lattice="7.433378372695356 -0.24990126918949518 -0.23812440995508222 0.4757610635007997 8.210302168474794 -0.6940783186687572 -0.6124795048885665 1.1576893769606214 5.498050843760283" Properties=species:S:1:pos:R:3 unique_starting_index=30 config_type=initial n_minim_iter=16 stress="-0.00024287805670723315 0.0005367145676662729 -0.00084052059544194 0.0005367145676662729 0.0003212207668875947 -0.00015449506953559009 -0.00084052059544194 -0.00015449506953559009 -0.00033859891356114737" pbc="T T T"
Si       1.97573999       7.93836533       2.49495891
Si       5.32091994       1.17972495       2.07088921
Si       2.56269281       4.44655522       1.84794300
Si       4.73396712       4.67153505       2.71790512
Si       3.74439425       2.52095384       3.18770381
Si       3.55226568       6.59713644       1.37814431
Si       4.90454907       4.66655135      -0.77268023
Si       2.39211087       4.45153892       5.33852834
Si       0.85746306       4.54016070       3.55059539
Si       6.43919688       4.57792958       1.01525273
Si       7.42009826       6.33557228       2.32359269
Si      -0.12343832       2.78251799       2.24225542
Si       1.94090014       1.65475570       1.80876647
Si       5.35575979       7.46333458       2.75708164
Si       3.93756432       6.89292450      -1.00078907
Si       3.35909561       2.22516577       5.56663718
16
Lattice="7.402425371580382 -0.2589964257994653 -0.18325528321278467 0.4570566855793229 8.231797703267242 -0.7446577850250241 -0.5720446677201084 1.1222975278708143 5.4817975839533" Properties=species:S:1:pos:R:3 unique_starting_index=30 config_type=initial n_minim_iter=17 stress="-0.0018800436399979937 -0.0011439506317369298 0.0022229853169991273 -0.0011439506317369298 -0.0017524803414218388 -0.0007565156489630457 0.0022229853169991273 -0.0007565156489630457 0.0005372125671431059" pbc="T T T"
Si       1.97247571       7.91624999       2.44514754
Si       5.31496168       1.17884881       2.10873697
Si       2.55332055       4.44742208       1.84536158
Si       4.73411684       4.64767673       2.70852294
Si       3.73037373       2.52266969       3.21579657
Si       3.55706366       6.57242911       1.33808795
Si       4.87406333       4.64017022      -0.75544297
Si       2.41337406       4.45492859       5.30932749
Si       0.85808445       4.52710185       3.54215907
Si       6.42935294       4.56799695       1.01172544
Si       7.39804204       6.31610503       2.34783102
Si      -0.11060465       2.77899378       2.20605349
Si       1.93528734       1.61559271       1.83905393
Si       5.35215005       7.47950610       2.71483059
Si       3.94228960       6.88927495      -1.04107177
Si       3.34514779       2.20582385       5.59495629
16
Lattice="7.407513514080171 -0.24764598037453575 -0.18904360362074502 0.47011885263661074 8.274110582549852 -0.758248041283583 -0.5761907584227357 1.1163770845565597 5.466482494354338" Properties=species:S:1:pos:R:3 unique_starting_index=30 config_type=initial n_minim_iter=18 stress="0.00064505966629865 3.961197377656889e-06 0.0009516662269596385 3.961197377656889e-06 -0.0010554428417035632 -0.0004759493774543386 0.0009516662269596385 -0.0004759493774543386 0.0009476369677809564" pbc="T T T"
Si       1.98429241       7.92815022       2.42370269
Si       5.31714920       1.21469147       2.09548815
Si       2.53625867       4.47995770       1.83705915
Si       4.76518294       4.66288399       2.68213170
Si       3.70977329       2.55269265       3.20124093
Si       3.59166831       6.59014904       1.31794992
Si       4.89388424       4.66488542      -0.76425038
Si       2.40755737       4.47795626       5.28344123
Si       0.84448827       4.55848146       3.52107773
Si       6.45695334       4.58436023       0.99811312
Si       7.40064051       6.34043765       2.33999367
Si      -0.09919890       2.80240404       2.17919718
Si       1.93694145       1.60713145       1.85639969
Si       5.36450016       7.53571024       2.66279116
Si       4.00046357       6.90881761      -1.07376215
Si       3.30097803       2.23402408       5.59295300
16
Lattice="7.379397961930431 -0.22078577359260915 -0.17597793875433318 0.49623994167989655 8.343403393513816 -0.7681871033819994 -0.5611016310247554 1.1136984031604138 5.442839008695732" Properties=species:S:1:pos:R:3 unique_starting_index=30 config_type=initial n_minim_iter=19 stress="-0.0009228045562006363 0.00031375415871374524 -2.8070746922048592e-05 0.00031375415871374524 -0.00016536492502678476 -4.13463863270852e-05 -2.8070746922048592e-05 -4.13463863270852e-05 -0.0005616253733031279" pbc="T T T"
Si       2.01866258       7.95914238       2.40921516
Si       5.29587369       1.27717364       2.08945880
Si       2.53337105       4.52876301       1.84226863
Si       4.78116523       4.70755301       2.65640534
Si       3.67323056       2.60267006       3.20596348
Si       3.64130571       6.63364596       1.29271049
Si       4.88668472       4.69296255      -0.75980343
Si       2.42785155       4.54335348       5.25847740
Si       0.84163351       4.59298588       3.51330883
Si       6.47290277       4.64333015       0.98536514
Si       7.39987766       6.40097506       2.34596093
Si      -0.08534138       2.83534096       2.15271303
Si       1.94184089       1.59050981       1.88469980
Si       5.37269538       7.64580622       2.61397416
Si       4.06217896       6.95918107      -1.11343982
Si       3.25235731       2.27713495       5.61211379
16
Lattice="7.409123248465485 -0.2294714410022213 -0.1943411016579131 0.4919953735729066 8.345988140153414 -0.7511285155607844 -0.5784222834694426 1.1280754203561836 5.445405653931434" Properties=species:S:1:pos:R:3 unique_starting_index=30 config_type=initial n_minim_iter=20 stress="0.0020868491941244518 0.000314768673421741 -0.0016651202592566931 0.000314768673421741 0.0010242320788920365 0.0005924577164129601 -0.0016651202592566931 0.0005924577164129601 0.0004342279010360852" pbc="T T T"
Si       2.01850778       7.94350496       2.44238014
Si       5.30418856       1.30108716       2.05755590
Si       2.53755698       4.53215804       1.83583991
Si       4.78513936       4.71243408       2.66409613
Si       3.66587401       2.60955633       3.18264057
Si       3.65682233       6.63503578       1.31729547
Si       4.90718239       4.69752185      -0.76263838
Si       2.41551395       4.54707027       5.26257442
Si       0.84322258       4.60749497       3.50849622
Si       6.47947376       4.63709715       0.99143982
Si       7.40820146       6.40541222       2.33565792
Si      -0.08550512       2.83917990       2.16427812
Si       1.92735711       1.57226795       1.89617406
Si       5.39533923       7.67232417       2.60376198
Si       4.08072441       6.95323744      -1.08905949
Si       3.24197193       2.29135468       5.58899553
16
Lattice="7.387774016025367 -0.25570212880614407 -0.14670172162609024 0.4605066589362964 8.39864234759084 -0.7537886042963765 -0.5462396058393179 1.1324921149457041 5.4199742962162665" Properties=species:S:1:pos:R:3 unique_starting_index=30 config_type=initial n_minim_iter=21 stress="0.0005389945641817231 0.0004953251115825159 -8.590884380639875e-05 0.0004953251115825159 0.0017880392065268015 -5.82217221869614e-05 -8.590884380639875e-05 -5.82217221869614e-05 -0.0006521857338652241" pbc="T T T"
Si       2.01987216       7.95673088       2.43760654
Si       5.28216891       1.31870145       2.08187743
Si       2.54168966       4.56179391       1.84336039
Si       4.76035141       4.71363843       2.67612358
Si       3.65001510       2.62964200       3.19730468
Si       3.65202597       6.64579034       1.32217929
Si       4.89151463       4.70605758      -0.74199712
Si       2.41052644       4.56937476       5.26148109
Si       0.82828076       4.63230487       3.51287183
Si       6.47376030       4.64312746       1.00661214
Si       7.36954073       6.42052733       2.37519080
Si      -0.06749966       2.85490500       2.14429317
Si       1.92300284       1.56062720       1.91506850
Si       5.37903823       7.71480513       2.60441547
Si       4.08569051       6.96860681      -1.08788331
Si       3.21635056       2.30682552       5.60736728
