16
Lattice="7.669925283807875 -0.31800861104520634 -0.8888370254574698 0.4876302950336369 8.64200016498241 -0.780055076018335 -1.1269813240686246 1.1905227296201222 5.545796884141482" Properties=species:S:1:pos:R:3 unique_starting_index=30 config_type=initial n_minim_iter=1 energy=-2604.2325298324636 free_energy=-2604.2325298324636 pbc="T T T"
Si       1.97577832       8.09593203       2.39247579
Si       5.05479594       1.41858225       1.48442900
Si       2.41867668       4.55111680       1.45013375
Si       4.61189758       4.96339748       2.42677104
Si       3.57458877       2.77068054       2.76377367
Si       3.45598548       6.74383375       1.11313111
Si       5.03566332       4.79092935      -1.11068544
Si       1.99491094       4.72358494       4.98759022
Si       0.70863726       4.91016747       3.07088320
Si       6.32193700       4.60434681       0.80602159
Si       7.55986405       6.61602208       1.18378717
Si      -0.52928980       2.89849220       2.69311761
Si       1.47954695       1.68087008       2.44829782
Si       5.55102731       7.83364420       1.42860697
Si       4.43156427       7.10588145      -1.04168162
Si       2.59900998       2.40863283       4.91858640
16
Lattice="7.659455637329945 -0.31371774845735434 -0.892196294083451 0.49219683345578236 8.6394871499815 -0.7786741299689491 -1.1274791054329072 1.1902900066011475 5.5435224717333815" Properties=species:S:1:pos:R:3 unique_starting_index=30 config_type=initial n_minim_iter=2 stress="-0.000753541740339369 1.618586249301223e-05 7.598088792541596e-05 1.618586249301223e-05 -0.0008418684973550779 -6.024725279072025e-05 7.598088792541596e-05 -6.024725279072025e-05 -0.0008079606369248977" pbc="T T T"
Si       1.97656717       8.09459782       2.39167105
Si       5.04760620       1.42146159       1.48098100
Si       2.41717567       4.55098049       1.44876236
Si       4.60699770       4.96507892       2.42388968
Si       3.57022884       2.77212295       2.76075200
Si       3.45394452       6.74393646       1.11190005
Si       5.03178145       4.79186713      -1.11201704
Si       1.99239191       4.72419228       4.98466909
Si       0.70859549       4.91006515       3.06948110
Si       6.31557787       4.60599426       0.80317095
Si       7.55210369       6.61853908       1.18029732
Si      -0.52793033       2.89752033       2.69235472
Si       1.47691201       1.68156379       2.44644529
Si       5.54726136       7.83449562       1.42620676
Si       4.42939102       7.10621741      -1.04217308
Si       2.59478235       2.40984200       4.91482512
16
Lattice="7.653726865113581 -0.30611694347766527 -0.9026258030321878 0.5023307319529693 8.653747413870857 -0.776240465377699 -1.1319635412281042 1.193451909947571 5.551323663248094" Properties=species:S:1:pos:R:3 unique_starting_index=30 config_type=initial n_minim_iter=3 stress="-0.00045427795013129753 0.0006116364196525179 -0.0003597187416420928 0.0006116364196525179 0.001007550967473382 0.0001562538355519143 -0.0003597187416420928 0.0001562538355519143 0.00023331845080969607" pbc="T T T"
Si       1.98152118       8.11013721       2.39661613
Si       5.04257288       1.43094517       1.47584126
Si       2.41842267       4.56071690       1.44925835
Si       4.60567139       4.98036548       2.42319905
Si       3.56856516       2.78148788       2.76012141
Si       3.45552890       6.75959450       1.11233599
Si       5.03387143       4.80386590      -1.11762894
Si       1.99022262       4.73721648       4.99008634
Si       0.70864350       4.92229165       3.07376106
Si       6.31545056       4.61879073       0.79869634
Si       7.55058455       6.63875199       1.17513880
Si      -0.52649049       2.90233039       2.69731859
Si       1.47356233       1.68706739       2.44780730
Si       5.55053173       7.85401499       1.42465010
Si       4.43316152       7.12290741      -1.04494417
Si       2.59093254       2.41817497       4.91740156
16
Lattice="7.659686775582109 -0.3126750767821946 -0.9083080090389962 0.49516936568017644 8.636717130439369 -0.7764369523562957 -1.137264308343424 1.192780763993684 5.557616849999666" Properties=species:S:1:pos:R:3 unique_starting_index=30 config_type=initial n_minim_iter=4 stress="-0.00013202907779800792 0.0002815404326768319 -0.0004592075157470488 0.0002815404326768319 -0.00022147683156166633 0.0002990014995125501 -0.0004592075157470488 0.0002990014995125501 0.000692980689649817" pbc="T T T"
Si       1.97510964       8.09092868       2.40171348
Si       5.04248219       1.42589414       1.47115840
Si       2.41459951       4.54721042       1.44926600
Si       4.60299233       4.96961240       2.42360589
Si       3.57116629       2.77222018       2.75978599
Si       3.44642554       6.74460263       1.11308590
Si       5.03212141       4.78758617      -1.12277502
Si       1.98547042       4.72923665       4.99564691
Si       0.69971589       4.91821033       3.07553019
Si       6.31787595       4.59861248       0.79734170
Si       7.54607579       6.62043686       1.17163722
Si      -0.52848396       2.89638596       2.70123466
Si       1.46923926       1.68234467       2.44903048
Si       5.54835257       7.83447815       1.42384141
Si       4.42560327       7.10666630      -1.04600642
Si       2.59198856       2.41015652       4.91887831
16
Lattice="7.661557731052771 -0.31877312732757823 -0.9013013724244483 0.4873552707900227 8.643331940741936 -0.7818198389368344 -1.1347040368312038 1.1901952509464477 5.5474578703730115" Properties=species:S:1:pos:R:3 unique_starting_index=30 config_type=initial n_minim_iter=5 stress="-0.00012712204501564686 0.00011770487252094094 0.00019471126185833913 0.00011770487252094094 0.0006692679574270572 -0.0002879348751515168 0.00019471126185833913 -0.0002879348751515168 -0.0005127302391809197" pbc="T T T"
Si       1.97120051       8.09152805       2.39558170
Si       5.04300845       1.42322602       1.46875496
Si       2.41173309       4.54510217       1.44510344
Si       4.60247588       4.96965190       2.41923322
Si       3.57530415       2.76807916       2.75512183
Si       3.43890482       6.74667491       1.10921483
Si       5.02787716       4.78605467      -1.12222117
Si       1.98633180       4.72869939       4.98655783
Si       0.69606578       4.92324610       3.06661832
Si       6.31814318       4.59150796       0.79771834
Si       7.54138224       6.61915143       1.16909582
Si      -0.52717327       2.89560264       2.69524084
Si       1.46853514       1.67985304       2.44464065
Si       5.54567383       7.83490103       1.41969601
Si       4.41615760       7.11016381      -1.04497025
Si       2.59805137       2.40459026       4.90930690
16
Lattice="7.664285251469161 -0.32497273846466035 -0.9061370157166388 0.4811396876773412 8.631172512570444 -0.7765672499369876 -1.1386927034825058 1.1934981497979504 5.553790879025379" Properties=species:S:1:pos:R:3 unique_starting_index=30 config_type=initial n_minim_iter=6 stress="6.099086227827405e-05 -0.00023020181201148022 6.6397755835819595e-06 -0.00023020181201148022 -2.509279780394431e-05 0.0002232376743366582 6.6397755835819595e-06 0.0002232376743366582 -0.00010131751647662374" pbc="T T T"
Si       1.96420796       8.07971552       2.40536204
Si       5.04252428       1.41998240       1.46572458
Si       2.40701377       4.53603021       1.44924449
Si       4.59971847       4.96366771       2.42184213
Si       3.57612608       2.76288660       2.75689013
Si       3.43060616       6.73681132       1.11419648
Si       5.02578781       4.77450302      -1.12236257
Si       1.98094442       4.72519490       4.99344919
Si       0.68991456       4.92304207       3.07227692
Si       6.31681768       4.57665585       0.79880970
Si       7.53579051       6.60715869       1.16987066
Si      -0.52905828       2.89253923       2.70121595
Si       1.46584125       1.67700950       2.44702439
Si       5.54089099       7.82268843       1.42406223
Si       4.40808072       7.09745903      -1.04024863
Si       2.59865152       2.40223889       4.91133524
16
Lattice="7.667960574956271 -0.32056336549793774 -0.9102885380116633 0.48467967042735255 8.61324796471698 -0.7881383849843604 -1.140828054430602 1.1841272433626622 5.563374310033511" Properties=species:S:1:pos:R:3 unique_starting_index=30 config_type=initial n_minim_iter=7 stress="0.00039642466264210925 0.00013286468028123418 0.00011478687698490643 0.00013286468028123418 -0.0009356503083384571 -3.604546446675052e-05 0.00011478687698490643 -3.604546446675052e-05 0.0005828439923423587" pbc="T T T"
Si       1.96604921       8.05788147       2.40417078
Si       5.04576298       1.41893037       1.46077660
Si       2.40698459       4.52179332       1.44786733
Si       4.60482760       4.95501852       2.41708006
Si       3.58235576       2.75380271       2.75620071
Si       3.42945643       6.72300913       1.10874667
Si       5.03074274       4.76745534      -1.13125459
Si       1.98106945       4.70935650       4.99620198
Si       0.69069594       4.91498514       3.07259057
Si       6.32111626       4.56182671       0.79235681
Si       7.53867670       6.59675419       1.15911472
Si      -0.52686451       2.88005766       2.70583267
Si       1.46664254       1.66848447       2.44891396
Si       5.54516965       7.80832737       1.41603343
Si       4.40663476       7.08510020      -1.04722693
Si       2.60517743       2.39171164       4.91217432
16
Lattice="7.666583698237614 -0.33344836721916976 -0.9251574442120752 0.47026699465201033 8.602407755360543 -0.7956446411145057 -1.152546500624053 1.1811021056113582 5.571621626074842" Properties=species:S:1:pos:R:3 unique_starting_index=30 config_type=initial n_minim_iter=8 stress="0.00024314419928608667 -0.0008055886160727958 -0.0007127516541445909 -0.0008055886160727958 -0.0008882803915584222 0.00022901022594633592 -0.0007127516541445909 0.00022901022594633592 0.0005413542386853219" pbc="T T T"
Si       1.94264020       8.04007064       2.40611267
Si       5.04166400       1.40999085       1.44470687
Si       2.39103398       4.50502477       1.44693697
Si       4.59327022       4.94503672       2.40388257
Si       3.57771039       2.74079146       2.74868526
Si       3.40659381       6.70927004       1.10213429
Si       5.02375641       4.75527064      -1.14282559
Si       1.96054779       4.69479086       4.99364513
Si       0.67718373       4.91528844       3.07365566
Si       6.30712047       4.53477306       0.77716388
Si       7.51755688       6.57956028       1.13701848
Si      -0.53325269       2.87050121       2.71380106
Si       1.46150760       1.65666914       2.44779035
Si       5.52279660       7.79339235       1.40302919
Si       4.38225770       7.06975351      -1.05178546
Si       2.60204649       2.38030798       4.90260500
16
Lattice="7.661986775608423 -0.32298881181832184 -0.9122760774005774 0.48090112550572245 8.6000491096943 -0.7909065919296608 -1.1407879974187485 1.1818564694098612 5.572607766954249" Properties=species:S:1:pos:R:3 unique_starting_index=30 config_type=initial n_minim_iter=9 stress="2.404132339156251e-05 5.6471457299302255e-05 0.00034759309255933394 5.6471457299302255e-05 -0.0006371660841495372 0.0006093292393962632 0.00034759309255933394 0.0006093292393962632 0.0001932166368788961" pbc="T T T"
Si       1.95383020       8.04049565       2.41902027
Si       5.04826970       1.41842111       1.45040482
Si       2.39681295       4.50422845       1.45738425
Si       4.60528695       4.95468832       2.41204084
Si       3.58842359       2.74629395       2.75536280
Si       3.41367631       6.71262281       1.11406230
Si       5.02865126       4.76292206      -1.13050363
Si       1.97344864       4.69599470       4.99992873
Si       0.69129194       4.92050886       3.08011351
Si       6.31080796       4.53840791       0.78931159
Si       7.52472120       6.59160001       1.14985238
Si      -0.52262129       2.86731676       2.71957272
Si       1.47143612       1.65492871       2.45212946
Si       5.53066378       7.80398806       1.41729564
Si       4.38249869       7.07289592      -1.03467233
Si       2.61960121       2.38602085       4.90409743
16
Lattice="7.661247415217647 -0.3172933528652872 -0.915873953727925 0.4861278126670257 8.60782537167353 -0.8067146447424817 -1.1431045283114352 1.171999467359872 5.570027164848956" Properties=species:S:1:pos:R:3 unique_starting_index=30 config_type=initial n_minim_iter=10 stress="6.269030716264428e-05 0.00017123140439622258 4.172517067808782e-05 0.00017123140439622258 -4.163881347583619e-05 -0.00011246404803442649 4.172517067808782e-05 -0.00011246404803442649 -8.159841614100177e-05" pbc="T T T"
Si       1.95424607       8.04313523       2.40373976
Si       5.05002463       1.41939626       1.44369880
Si       2.39871909       4.50557417       1.44825856
Si       4.60555161       4.95695732       2.39918001
Si       3.58741717       2.74631753       2.74634939
Si       3.41685353       6.71621396       1.10108918
Si       5.03200582       4.77243851      -1.14154684
Si       1.97226488       4.69009298       4.98898540
Si       0.69304506       4.91763049       3.07074895
Si       6.31122564       4.54490099       0.77668961
Si       7.52655297       6.59819965       1.13181039
Si      -0.52228227       2.86433183       2.71562818
Si       1.47363302       1.65094899       2.44781912
Si       5.53063768       7.81158250       1.39961945
Si       4.38564456       7.08192840      -1.04875831
Si       2.61862614       2.38060309       4.89619688
16
Lattice="7.645366380039058 -0.3125733984075687 -0.9137515492870137 0.4890723744230059 8.627265433857607 -0.8235768130116468 -1.1387586343507683 1.1633095695071596 5.5709372048672074" Properties=species:S:1:pos:R:3 unique_starting_index=30 config_type=initial n_minim_iter=11 stress="-0.0007981354060974033 -0.00019622423730390515 2.8701103810420965e-05 -0.00019622423730390515 0.0011802962980254335 -0.000735773646734087 2.8701103810420965e-05 -0.000735773646734087 0.00012431952748207835" pbc="T T T"
Si       1.94713582       8.05578395       2.39471819
Si       5.04854430       1.42221766       1.43889065
Si       2.39913654       4.51049526       1.44222514
Si       4.59654358       4.96750634       2.39138370
Si       3.58237321       2.75218373       2.73773551
Si       3.41330691       6.72581787       1.09587334
Si       5.02363436       4.78849528      -1.15058652
Si       1.97204576       4.68950633       4.98419536
Si       0.69450900       4.92028569       3.06345161
Si       6.30117112       4.55771591       0.77015723
Si       7.51211894       6.61180745       1.11768413
Si      -0.51643882       2.86619416       2.71592471
Si       1.47992524       1.64550081       2.44652231
Si       5.51575488       7.83250080       1.38708653
Si       4.37571716       7.10062497      -1.05813110
Si       2.61996296       2.37737663       4.89173995
16
Lattice="7.661269431769645 -0.3002039963206561 -0.9186268590490199 0.5045923915672834 8.627949063824449 -0.8231652900180052 -1.143864311019715 1.1610969674648526 5.561686165375012" Properties=species:S:1:pos:R:3 unique_starting_index=30 config_type=initial n_minim_iter=12 stress="0.0005667910137161339 0.0002480758282890279 -0.0006107675481036434 0.0002480758282890279 0.001096569849948785 -0.0003961244486084665 -0.0006107675481036434 -0.0003961244486084665 -0.0010811943230881328" pbc="T T T"
Si       1.95533768       8.05735105       2.39388162
Si       5.06665983       1.43149099       1.42601239
Si       2.41171013       4.51034492       1.43809732
Si       4.61028738       4.97849711       2.38179670
Si       3.59449942       2.76052504       2.72334907
Si       3.42749809       6.72831700       1.09654494
Si       5.04190688       4.79751040      -1.15366910
Si       1.98009064       4.69133163       4.97356312
Si       0.70004581       4.92231695       3.05653109
Si       6.32195170       4.56652509       0.76336293
Si       7.53299013       6.62314046       1.10463959
Si      -0.51099262       2.86570157       2.71525442
Si       1.48969016       1.64243507       2.44050718
Si       5.53230735       7.84640696       1.37938684
Si       4.39052246       7.10803942      -1.05577180
Si       2.63147505       2.38080262       4.87566582
16
Lattice="7.655573648320595 -0.2986963108131307 -0.915171924954976 0.5050342056596132 8.618511932096673 -0.8244784359601997 -1.1393661657284462 1.1594206082402356 5.570303264546776" Properties=species:S:1:pos:R:3 unique_starting_index=30 config_type=initial n_minim_iter=13 stress="0.00024160501946250297 9.494619812444484e-05 -0.0001842093069933555 9.494619812444484e-05 0.00039703601299917587 -0.00012619889969292804 -0.0001842093069933555 -0.00012619889969292804 -0.00026834342577239866" pbc="T T T"
Si       1.95137793       8.04607793       2.40543131
Si       5.06986376       1.43315830       1.42522159
Si       2.41161551       4.50143548       1.44291336
Si       4.60962618       4.97780075       2.38773955
Si       3.59900714       2.75918204       2.72455066
Si       3.42223454       6.72005419       1.10610224
Si       5.03693172       4.79283874      -1.15239921
Si       1.98430997       4.68639749       4.98305212
Si       0.70054014       4.92078415       3.06116729
Si       6.32070155       4.55845208       0.76948561
Si       7.52440033       6.61759281       1.10781425
Si      -0.50315864       2.86164342       2.72283866
Si       1.49445956       1.63614184       2.44539324
Si       5.52678212       7.84309439       1.38525966
Si       4.38009446       7.10155887      -1.04943260
Si       2.64114723       2.37767736       4.88008551
16
Lattice="7.652061312224715 -0.29590021604071726 -0.9129086839656957 0.5073068712003771 8.61156429173552 -0.8256542342133906 -1.1362526948459244 1.1577028027045548 5.5754647727561615" Properties=species:S:1:pos:R:3 unique_starting_index=30 config_type=initial n_minim_iter=14 stress="-3.289450788287275e-05 -3.4028632798400106e-05 9.609163655983171e-05 -3.4028632798400106e-05 -0.0002486068003766305 0.00011951283917273055 9.609163655983171e-05 0.00011951283917273055 0.0002025409416941303" pbc="T T T"
Si       1.94755397       8.03704122       2.41459199
Si       5.07556152       1.43632566       1.42230986
Si       2.41234570       4.49503462       1.44527852
Si       4.61076978       4.97833225       2.39162333
Si       3.60396758       2.75921459       2.72226686
Si       3.41914791       6.71415229       1.11463500
Si       5.03369750       4.79038178      -1.15080189
Si       1.98941799       4.68298510       4.98770374
Si       0.70162055       4.91920371       3.06333982
Si       6.32149494       4.55416316       0.77356204
Si       7.51780048       6.61451143       1.10923385
Si      -0.49468499       2.85885545       2.72766800
Si       1.49982747       1.63043055       2.44851717
Si       5.52328802       7.84293633       1.38838468
Si       4.37275298       7.09744793      -1.04415358
Si       2.65036251       2.37591895       4.88105543
16
Lattice="7.649308766475019 -0.28710577701069384 -0.9115250502480554 0.5159195837326509 8.604962372354231 -0.8317539795731453 -1.1331782016892187 1.1520035661205794 5.5801317029309" Properties=species:S:1:pos:R:3 unique_starting_index=30 config_type=initial n_minim_iter=15 stress="-0.0003566029162689549 -0.00017806559585256427 0.00042293961943383723 -0.00017806559585256427 -0.0009557383194582278 0.0003546189742061134 0.00042293961943383723 0.0003546189742061134 0.0007290585531665254" pbc="T T T"
Si       1.93950987       8.02383842       2.42533990
Si       5.09254028       1.44602175       1.41151278
Si       2.41441464       4.48826194       1.44318589
Si       4.61763551       4.98159822       2.39366678
Si       3.61497458       2.76082745       2.71013750
Si       3.41707557       6.70903271       1.12671517
Si       5.03133364       4.79204529      -1.14869922
Si       2.00071651       4.67781487       4.98555189
Si       0.70582022       4.91601729       3.06178803
Si       6.32622993       4.55384287       0.77506464
Si       7.50814341       6.61517237       1.10642602
Si      -0.47609326       2.85468779       2.73042666
Si       1.51169881       1.61921742       2.45146368
Si       5.52035134       7.85064274       1.38538900
Si       4.36393406       7.09570918      -1.03886324
Si       2.66811609       2.37415098       4.87571592
16
Lattice="7.6575887729467755 -0.2798309814851307 -0.9182506151884254 0.5250821465934771 8.61999095563769 -0.8392421054683215 -1.139636592889342 1.1474118510460016 5.568761842748223" Properties=species:S:1:pos:R:3 unique_starting_index=30 config_type=initial n_minim_iter=16 stress="1.56197701364105e-05 1.800300558492125e-05 -9.059230643377704e-05 1.800300558492125e-05 0.00011876944241763703 -4.352871434365716e-05 -9.059230643377704e-05 -4.352871434365716e-05 -0.00027686633393387595" pbc="T T T"
Si       1.93636194       8.03329835       2.41128596
Si       5.10667239       1.45427348       1.39998316
Si       2.41597598       4.50125876       1.42809154
Si       4.62705835       4.98631307       2.38317758
Si       3.61807282       2.76408018       2.69291735
Si       3.42496151       6.72349164       1.11835177
Si       5.04021922       4.80607333      -1.15036029
Si       2.00281511       4.68149850       4.96162941
Si       0.71069485       4.91641475       3.04951591
Si       6.33233947       4.57115707       0.76175321
Si       7.51345274       6.63009333       1.09680033
Si      -0.47041841       2.85747850       2.71446880
Si       1.51560872       1.61803012       2.44545242
Si       5.52742561       7.86954170       1.36581670
Si       4.37412334       7.10903599      -1.04821463
Si       2.66891099       2.37853583       4.85948375
16
Lattice="7.655241085908262 -0.271497230388204 -0.9188262437702316 0.5329463212408553 8.622765081631869 -0.8526180795537059 -1.1380765269094644 1.1386429937738576 5.574813752283253" Properties=species:S:1:pos:R:3 unique_starting_index=30 config_type=initial n_minim_iter=17 stress="0.0002816182268402459 0.00012566087476301028 -6.201327491687798e-05 0.00012566087476301028 0.00044790480698870237 -0.0001042661158127896 -6.201327491687798e-05 -0.0001042661158127896 0.00039498457047515716" pbc="T T T"
Si       1.93078080       8.02907366       2.41133644
Si       5.11933008       1.46083719       1.39203299
Si       2.42135385       4.50093923       1.42070502
Si       4.62875703       4.98897162       2.38266441
Si       3.62444730       2.76387101       2.68324329
Si       3.42566358       6.72603984       1.12012614
Si       5.04498449       4.81349267      -1.15715114
Si       2.00512639       4.67641817       4.96052057
Si       0.71599013       4.91631311       3.04481828
Si       6.33412075       4.57359774       0.75855115
Si       7.50832329       6.63737180       1.09475292
Si      -0.45821241       2.85253905       2.70861651
Si       1.52543414       1.60694491       2.44935513
Si       5.52467674       7.88296594       1.35401430
Si       4.36685922       7.11420127      -1.05116807
Si       2.68325166       2.37570957       4.85453750
16
Lattice="7.653970810746508 -0.2721402942855372 -0.9165986488094233 0.5316187648032983 8.622944108296194 -0.8552335882748372 -1.13646734529754 1.1370540548445898 5.574620033534243" Properties=species:S:1:pos:R:3 unique_starting_index=30 config_type=initial n_minim_iter=18 stress="4.456885171673465e-05 1.8875095691220653e-06 1.1416494313828822e-05 1.8875095691220653e-06 7.647243151441373e-05 -8.62077467018212e-06 1.1416494313828822e-05 -8.62077467018212e-06 0.0001757983417997445" pbc="T T T"
Si       1.92605181       8.02736063       2.41107042
Si       5.12307042       1.46049724       1.39171738
Si       2.42309700       4.50266899       1.41696666
Si       4.62602523       4.98518888       2.38582114
Si       3.62490751       2.76119482       2.68051835
Si       3.42421472       6.72666305       1.12226945
Si       5.04542209       4.81288429      -1.15699281
Si       2.00370014       4.67497357       4.95978060
Si       0.71731996       4.91570801       3.04181149
Si       6.33180227       4.57214986       0.76097631
Si       7.50325874       6.63657294       1.10359571
Si      -0.45413651       2.85128493       2.69919209
Si       1.52844286       1.60238627       2.45196034
Si       5.52067937       7.88547160       1.35082746
Si       4.36048661       7.11280440      -1.05010146
Si       2.68863562       2.37505347       4.85288925
16
Lattice="7.655066296717147 -0.27217623952833453 -0.9149507691399534 0.5310777169244054 8.623686209506893 -0.8589732027803622 -1.1357701104292204 1.134611310901498 5.572665944005334" Properties=species:S:1:pos:R:3 unique_starting_index=30 config_type=initial n_minim_iter=19 stress="-0.00016129260913982113 -5.1762391906543523e-05 2.2163328715167703e-05 -5.1762391906543523e-05 -0.0003058976363047712 0.00010788627810531728 2.2163328715167703e-05 0.00010788627810531728 -0.0002580091876794505" pbc="T T T"
Si       1.92479610       8.02687936       2.40893087
Si       5.12557780       1.45924192       1.38981110
Si       2.42557340       4.50478180       1.41445352
Si       4.62480051       4.98133949       2.38428845
Si       3.62572863       2.75859334       2.67656880
Si       3.42464527       6.72752794       1.12217317
Si       5.04684506       4.81356329      -1.15728292
Si       2.00352884       4.67255799       4.95602489
Si       0.71926774       4.91501191       3.03664248
Si       6.33110616       4.57110938       0.76209949
Si       7.50134862       6.63696057       1.11132932
Si      -0.45097471       2.84916072       2.68741265
Si       1.53127833       1.59791820       2.45316137
Si       5.51909557       7.88820308       1.34558061
Si       4.35559764       7.11210516      -1.05111347
Si       2.69477626       2.37401612       4.84985545
16
Lattice="7.6571995876875745 -0.2678258095680327 -0.9147070187735609 0.5354071303528193 8.628653764882552 -0.8666461312258648 -1.1354751536231116 1.129757877427447 5.572304610735653" Properties=species:S:1:pos:R:3 unique_starting_index=30 config_type=initial n_minim_iter=20 stress="7.074711175025096e-06 8.691334130222365e-06 -4.36212329905963e-06 8.691334130222365e-06 3.419063908949104e-06 -6.519874632715442e-06 -4.36212329905963e-06 -6.519874632715442e-06 -1.478552884641526e-05" pbc="T T T"
Si       1.93008652       8.03049878       2.40529163
Si       5.12704504       1.46008705       1.38565983
Si       2.42896557       4.50635457       1.41445211
Si       4.62816600       4.98423126       2.37649935
Si       3.62771600       2.76068362       2.67178889
Si       3.42941556       6.72990221       1.11916257
Si       5.04777799       4.82018306      -1.16018575
Si       2.00935357       4.67040277       4.95113721
Si       0.72208535       4.91391975       3.03178602
Si       6.33504621       4.57666608       0.75916544
Si       7.50525152       6.64289014       1.10820049
Si      -0.44811996       2.84769569       2.68275097
Si       1.53480155       1.59575416       2.45180685
Si       5.52233001       7.89483167       1.33914461
Si       4.35712362       7.11797839      -1.05734559
Si       2.70000795       2.37260744       4.84829705
16
Lattice="7.656469312504951 -0.26516538662797123 -0.9128044117384942 0.5373749796849845 8.62906809802451 -0.8736098792370437 -1.1334029351872394 1.1252552944097793 5.575436622597356" Properties=species:S:1:pos:R:3 unique_starting_index=30 config_type=initial n_minim_iter=21 stress="4.797406206696072e-05 -4.2085016838824634e-05 -5.311363061414981e-05 -4.2085016838824634e-05 0.0003308702343505976 -2.402209667966152e-05 -5.311363061414981e-05 -2.402209667966152e-05 0.0002558192381562117" pbc="T T T"
Si       1.93248542       8.02982264       2.40644638
Si       5.12795594       1.45933537       1.38257595
Si       2.43062104       4.50188067       1.41266167
Si       4.62982032       4.98727733       2.37636066
Si       3.62818239       2.76066591       2.66988385
Si       3.43225897       6.72849210       1.11913849
Si       5.04781576       4.82220704      -1.16294226
Si       2.01262559       4.66695096       4.95196460
Si       0.72314057       4.90975861       3.03397446
Si       6.33730079       4.57939939       0.75504788
Si       7.50708423       6.64559280       1.11254117
Si      -0.44664288       2.84356520       2.67648117
Si       1.53900040       1.59258690       2.45148490
Si       5.52144096       7.89657111       1.33753743
Si       4.35276796       7.11837361      -1.05884773
Si       2.70767340       2.37078440       4.84787007
