24
Lattice="8.189867994421341 2.5269946326093837 -0.7044586083158402 -2.0091757492084 7.460652910276048 -0.08920864948776507 -0.6227354658084064 -0.4174800960632435 7.182286021927004" Properties=species:S:1:pos:R:3 unique_starting_index=90 config_type=initial n_minim_iter=1 energy=-3909.144852269795 free_energy=-3909.144852269795 pbc="T T T"
Si       5.51191068       0.70133692       5.16275719
Si       0.92114711       3.54996116      -0.66604630
Si       5.74180485       8.01722604       1.34158227
Si       2.07895239       1.35789065       2.30002069
Si       4.34120574       4.14235447       5.87320404
Si      -1.60125338       4.37620986       5.83787872
Si       0.34009755       2.80636667       1.50273322
Si       1.99952169       4.78864587       6.35892361
Si       0.18597116       7.93382462       4.48116670
Si       5.80605527       3.84671973       3.74162221
Si       2.25336561       6.63654659       1.06043084
Si       4.11139789       9.77818980       1.82699796
Si       5.55727724      10.37456381      -1.70508722
Si       8.23412372       4.04682735       4.11459250
Si      -0.18532115       6.63389103       1.33800397
Si      -1.08732432       6.59580173       6.18946563
Si      -1.49162068       1.40607668       0.99591630
Si       4.65063899       6.60921430       6.40957807
Si       3.57984447       1.76149338       5.96781720
Si      -0.19488774       4.64834828       2.87337394
Si       1.37326906       5.79199129       4.30641659
Si       4.10617876       1.49855349       1.03344069
Si       5.71016520       6.20732921       3.06608494
Si       3.31353991       6.67763572       3.18864021
24
Lattice="8.180038185471734 2.5320314841691407 -0.7006857485300225 -2.0030912734788466 7.463309003556856 -0.08984524725614178 -0.6191105201228636 -0.41781169877966867 7.179068692916258" Properties=species:S:1:pos:R:3 unique_starting_index=90 config_type=initial n_minim_iter=2 stress="-0.001255696107270708 0.00031442269523535005 0.00013707517944456805 0.00031442269523535005 -0.00011831542112155968 0.0002482923068125209 0.00013707517944456805 0.0002482923068125209 -0.0005468466603857548" pbc="T T T"
Si       5.50853725       0.70459589       5.16341278
Si       0.92020035       3.55256810      -0.66512951
Si       5.73798881       8.02356495       1.34395810
Si       2.07897654       1.35967561       2.29897988
Si       4.34037028       4.14689242       5.87317723
Si      -1.59494352       4.37694292       5.83516240
Si       0.34272340       2.80657484       1.50232379
Si       2.00259421       4.79204798       6.35749124
Si       0.19121763       7.93844720       4.47954927
Si       5.80112175       3.85268477       3.74313977
Si       2.25401039       6.64071990       1.05984474
Si       4.11067899       9.78622167       1.82690767
Si       5.55498155      10.38227282      -1.70261686
Si       8.22662637       4.05342453       4.11701643
Si      -0.18129007       6.63578883       1.33662098
Si      -1.08096188       6.59935753       6.18787981
Si      -1.48995240       1.40607304       0.99544324
Si       4.64932781       6.61504470       6.40956944
Si       3.57719008       1.76444454       5.96601965
Si      -0.19059833       4.65046705       2.87294324
Si       1.37607269       5.79460049       4.30444670
Si       4.10275160       1.50081942       1.03502049
Si       5.70805315       6.21287591       3.06752061
Si       3.31329778       6.68113253       3.18940401
24
Lattice="8.188833169946175 2.538812692639373 -0.6978648098330875 -2.0042130381278804 7.477513772193979 -0.0983079891103763 -0.6147237983820956 -0.4253969859413614 7.185890771217787" Properties=species:S:1:pos:R:3 unique_starting_index=90 config_type=initial n_minim_iter=3 stress="0.0007879024171376885 0.0003874922521177922 0.0001837415389338935 0.0003874922521177922 0.0025261645383442767 -2.5350562169642753e-05 0.0001837415389338935 -2.5350562169642753e-05 0.0013435292517957169" pbc="T T T"
Si       5.52319786       0.70282611       5.17313823
Si       0.91744274       3.56186563      -0.66777980
Si       5.74419021       8.03781755       1.34311886
Si       2.08714346       1.36064804       2.29790051
Si       4.35152214       4.15144159       5.87972428
Si      -1.59279895       4.37733133       5.83640243
Si       0.34846918       2.80591167       1.50146254
Si       2.01276645       4.79567979       6.36133272
Si       0.19552602       7.95175458       4.47637818
Si       5.80807453       3.86219544       3.74911802
Si       2.25850713       6.65258882       1.05190610
Si       4.11553103       9.80891886       1.81805700
Si       5.56408818      10.40529910      -1.71268322
Si       8.23793388       4.06130502       4.12511628
Si      -0.17914431       6.64299594       1.32848283
Si      -1.07913285       6.60850751       6.19131838
Si      -1.49542921       1.40770406       0.99590393
Si       4.65627918       6.62367920       6.41491514
Si       3.58091059       1.76396720       5.96952511
Si      -0.18566959       4.65627885       2.87375996
Si       1.38178320       5.79865924       4.30103469
Si       4.11113596       1.50185878       1.03827953
Si       5.72163890       6.22218093       3.06932489
Si       3.31892432       6.68680732       3.19044891
24
Lattice="8.191192110331691 2.528386255724731 -0.6985095521046142 -2.010146592444363 7.462703726509832 -0.10334717290351828 -0.6143528742679278 -0.4288929940032147 7.180142123008458" Properties=species:S:1:pos:R:3 unique_starting_index=90 config_type=initial n_minim_iter=4 stress="0.0002922729494997058 -0.00031209819229997317 -9.954814325699079e-05 -0.00031209819229997317 0.00015027913125269384 -0.0005364137490319477 -9.954814325699079e-05 -0.0005364137490319477 -0.00013864424857710635" pbc="T T T"
Si       5.52872881       0.69476758       5.16955624
Si       0.91324339       3.55509939      -0.66911949
Si       5.74042052       8.01520540       1.33777066
Si       2.08993414       1.35465579       2.29304766
Si       4.35227171       4.13647607       5.87335505
Si      -1.59674730       4.36379339       5.82911724
Si       0.34915389       2.79565762       1.49842237
Si       2.01255050       4.77961323       6.35324657
Si       0.19040628       7.93261135       4.46709193
Si       5.80698082       3.85040957       3.74486581
Si       2.25555351       6.63589926       1.04410934
Si       4.10970499       9.78680917       1.80755586
Si       5.56137295      10.38067813      -1.71956572
Si       8.23879240       4.04598231       4.12071548
Si      -0.18326096       6.62518745       1.32113843
Si      -1.08504645       6.59188139       6.18434053
Si      -1.49988887       1.40511833       0.99509705
Si       4.65221211       6.60265034       6.40670400
Si       3.57902234       1.75448720       5.96172883
Si      -0.18719919       4.64397256       2.86967566
Si       1.37906651       5.78024069       4.29186587
Si       4.11412083       1.49416336       1.03685254
Si       5.72321706       6.20245091       3.06326369
Si       3.31558488       6.66501189       3.18454880
24
Lattice="8.194414282668545 2.5290015322936306 -0.6946898035575904 -2.0074482010476573 7.455227142748638 -0.09563844106128486 -0.6134190203449054 -0.4209855154058892 7.183633025689129" Properties=species:S:1:pos:R:3 unique_starting_index=90 config_type=initial n_minim_iter=5 stress="0.0002993904658170163 1.6560770954228813e-05 8.165519139361934e-05 1.6560770954228813e-05 -0.00026839670251706244 0.00032103622510263767 8.165519139361934e-05 0.00032103622510263767 0.0002313354129352259" pbc="T T T"
Si       5.53216606       0.70249722       5.17448598
Si       0.91430027       3.55231617      -0.66508649
Si       5.74516652       8.01212981       1.34887110
Si       2.09255188       1.35652070       2.29552538
Si       4.35669297       4.14148916       5.88238101
Si      -1.59452524       4.36565556       5.83740714
Si       0.35138886       2.79386943       1.50249500
Si       2.01672039       4.78301619       6.36207371
Si       0.19438787       7.93083736       4.47787881
Si       5.81026626       3.85473903       3.75263870
Si       2.25950306       6.63230028       1.05174785
Si       4.11492365       9.78319563       1.81932460
Si       5.56739393      10.37269055      -1.70870266
Si       8.24320941       4.05112092       4.12922790
Si      -0.17997510       6.61969460       1.32877450
Si      -1.08157752       6.59247728       6.19561366
Si      -1.50023287       1.40471259       0.99695881
Si       4.65654183       6.60611888       6.41886030
Si       3.58120650       1.76126691       5.96725556
Si      -0.18425241       4.64249165       2.87654748
Si       1.38290308       5.77974940       4.30060669
Si       4.11673805       1.49543914       1.03929990
Si       5.72904786       6.20286160       3.07267228
Si       3.31983576       6.66282999       3.19428250
24
Lattice="8.180468976760212 2.5448767965925656 -0.7042933878545942 -1.9913891317771673 7.460054783977153 -0.10074030094456511 -0.6192985473406944 -0.42912140538987487 7.181088034806398" Properties=species:S:1:pos:R:3 unique_starting_index=90 config_type=initial n_minim_iter=6 stress="-0.001693404486973714 0.0009592127246904769 -0.000615825693871003 0.0009592127246904769 -0.00012292223755211348 0.00017355074818139592 -0.000615825693871003 0.00017355074818139592 -0.0007602355164071275" pbc="T T T"
Si       5.51777766       0.70975984       5.16673161
Si       0.91548539       3.56313793      -0.66531291
Si       5.73856912       8.02813237       1.34034998
Si       2.09608368       1.35406114       2.28705671
Si       4.35016702       4.14974158       5.87441961
Si      -1.59318404       4.36488898       5.83667269
Si       0.35614666       2.78781457       1.50021624
Si       2.01499967       4.78254404       6.34823169
Si       0.19858217       7.93546933       4.46373032
Si       5.79478026       3.87098261       3.74440821
Si       2.26639319       6.64119473       1.04101784
Si       4.11490168       9.80551916       1.80366220
Si       5.57183551      10.39915943      -1.72410629
Si       8.22437825       4.06873948       4.11720614
Si      -0.16841114       6.61709864       1.32221900
Si      -1.07466759       6.59066166       6.19177014
Si      -1.49787303       1.40801792       0.99373642
Si       4.64360691       6.61508137       6.40968531
Si       3.56822819       1.76456368       5.95752384
Si      -0.17609857       4.63873626       2.87080554
Si       1.38606718       5.77886665       4.29210172
Si       4.11340275       1.50121345       1.02698223
Si       5.73017405       6.21680225       3.05899230
Si       3.31935202       6.66209580       3.18237886
24
Lattice="8.17102622742172 2.5363583170644217 -0.6871101930489399 -1.999390875289076 7.465961075198251 -0.10711951345111051 -0.6027588726406513 -0.4304852776265002 7.179895635747404" Properties=species:S:1:pos:R:3 unique_starting_index=90 config_type=initial n_minim_iter=7 stress="-0.002034210089053218 0.0001994209671879792 0.0006037384396822257 0.0001994209671879792 -4.120192257682013e-05 0.0002626171450121588 0.0006037384396822257 0.0002626171450121588 -0.0007567061614799907" pbc="T T T"
Si       5.52515032       0.70377261       5.17841388
Si       0.90816581       3.56655137      -0.66189742
Si       5.72578323       8.02485488       1.35380647
Si       2.10302442       1.34819871       2.28918733
Si       4.35644029       4.14655207       5.88412367
Si      -1.58733353       4.36932103       5.83506858
Si       0.35704796       2.78409157       1.50098465
Si       2.02224595       4.77894504       6.34884729
Si       0.19655287       7.93740941       4.45933267
Si       5.79207924       3.86830887       3.75732699
Si       2.26113236       6.64088000       1.04348421
Si       4.10258811       9.80886470       1.80955765
Si       5.55155684      10.40103880      -1.71525245
Si       8.22204738       4.06215032       4.13475007
Si      -0.17192256       6.61546561       1.32081449
Si      -1.06794140       6.59245313       6.18963223
Si      -1.49701966       1.41314784       0.98841679
Si       4.64343759       6.61133531       6.42052541
Si       3.57625804       1.76031940       5.96389858
Si      -0.17363018       4.63678684       2.86861590
Si       1.38842006       5.77624980       4.29405274
Si       4.11364510       1.49603565       1.03125698
Si       5.73000328       6.21320184       3.06912272
Si       3.31637503       6.65486675       3.18717876
24
Lattice="8.187596371351383 2.535875098494401 -0.6929004589260243 -2.0024371088476323 7.461475127212804 -0.10698224723119047 -0.6087522591533746 -0.4314591927980156 7.1801203544806125" Properties=species:S:1:pos:R:3 unique_starting_index=90 config_type=initial n_minim_iter=8 stress="0.0001208886683697152 0.00015491458188284042 0.00022265624961836903 0.00015491458188284042 7.551740429732544e-05 4.0512425264891086e-05 0.00022265624961836903 4.0512425264891086e-05 -0.000526236885911187" pbc="T T T"
Si       5.53129106       0.70420652       5.17315340
Si       0.91031277       3.56658040      -0.66062372
Si       5.73422999       8.02171486       1.35185614
Si       2.10953258       1.34333712       2.28611509
Si       4.36181764       4.14533133       5.88092958
Si      -1.59668802       4.36815446       5.83832225
Si       0.35802799       2.77917742       1.50111498
Si       2.02194373       4.77389080       6.34405700
Si       0.19282225       7.93093097       4.45509058
Si       5.79864163       3.86863927       3.75347221
Si       2.26790416       6.63661597       1.04114837
Si       4.10904400       9.80704441       1.80599806
Si       5.56378845      10.39906416      -1.72059202
Si       8.23425042       4.06247356       4.12873796
Si      -0.17095775       6.60723404       1.32202646
Si      -1.07234224       6.58660319       6.18998319
Si      -1.49970316       1.41485021       0.98765169
Si       4.64563169       6.60781726       6.41846046
Si       3.57947222       1.75927717       5.95998368
Si      -0.17408365       4.62963885       2.86652498
Si       1.38902058       5.77072046       4.29329894
Si       4.12275229       1.49476581       1.02313064
Si       5.74331614       6.21178579       3.06358779
Si       3.32226568       6.64641670       3.18277944
24
Lattice="8.183025504506576 2.530891594793629 -0.6993352079325319 -2.0050748051879688 7.459228030014466 -0.1067811085055778 -0.6127293168355752 -0.4318599000181762 7.191057960803567" Properties=species:S:1:pos:R:3 unique_starting_index=90 config_type=initial n_minim_iter=9 stress="3.099851228214572e-05 -0.00019806863706802832 -8.970933530000317e-05 -0.00019806863706802832 -0.00010948956530493095 -0.00014141850451483579 -8.970933530000317e-05 -0.00014141850451483579 0.0006290798060465452" pbc="T T T"
Si       5.52464791       0.70088884       5.17634703
Si       0.90833820       3.56515918      -0.66172392
Si       5.72578608       8.01596116       1.35058878
Si       2.10784186       1.33987596       2.28739879
Si       4.35410972       4.14141686       5.88630287
Si      -1.60295436       4.36708512       5.84861996
Si       0.35623943       2.77646838       1.50310630
Si       2.01447896       4.76952901       6.35092049
Si       0.18548769       7.92627120       4.45968492
Si       5.79072787       3.86463734       3.75509786
Si       2.26404967       6.63222545       1.04046458
Si       4.10081009       9.80204052       1.80519460
Si       5.55725776      10.39298967      -1.72800106
Si       8.22534843       4.05722967       4.12921200
Si      -0.17425584       6.60252114       1.32434772
Si      -1.07856805       6.58348834       6.19917414
Si      -1.49992796       1.41576215       0.98969160
Si       4.63501298       6.60246046       6.42504078
Si       3.57313617       1.75624574       5.96533686
Si      -0.17748139       4.62582861       2.86977967
Si       1.38272319       5.76654742       4.29827554
Si       4.12009999       1.49158179       1.02001927
Si       5.73721070       6.20695309       3.06357609
Si       3.31605418       6.63991804       3.18434430
24
Lattice="8.190895094202485 2.5260926579159912 -0.7059393986693044 -2.011888501270786 7.463402264889826 -0.09858979988261907 -0.6212463904770655 -0.42601157473760426 7.184464779341157" Properties=species:S:1:pos:R:3 unique_starting_index=90 config_type=initial n_minim_iter=10 stress="0.0015310803207075137 -0.00048395992380031603 -0.0005622478685152846 -0.00048395992380031603 0.0004635402855590395 0.00021365635415948023 -0.0005622478685152846 0.00021365635415948023 -2.8176903223850445e-05" pbc="T T T"
Si       5.52145663       0.70225646       5.16008008
Si       0.90572010       3.56620095      -0.65491741
Si       5.71938509       8.02094724       1.35542802
Si       2.11323642       1.33283806       2.28068422
Si       4.34859813       4.14882248       5.87786007
Si      -1.62121949       4.37685386       5.85481089
Si       0.35853744       2.77361601       1.50480640
Si       2.00496958       4.77342977       6.34507912
Si       0.17278403       7.92950627       4.45755380
Si       5.78452466       3.86991352       3.74871421
Si       2.26715884       6.63206339       1.04127876
Si       4.09520009       9.81283681       1.80766479
Si       5.55981175      10.39601425      -1.72559031
Si       8.22408418       4.06237406       4.11975356
Si      -0.17692303       6.59650407       1.33391201
Si      -1.08938208       6.59347620       6.20131276
Si      -1.50170597       1.42098877       0.99227214
Si       4.62175402       6.61120123       6.42326361
Si       3.56739061       1.76023983       5.95046721
Si      -0.18094167       4.62216177       2.86851349
Si       1.37371717       5.76937525       4.29743843
Si       4.12493552       1.48756877       1.00648610
Si       5.74387363       6.21418920       3.05908674
Si       3.31479197       6.63538096       3.18263621
24
Lattice="8.193699412704238 2.5324607862055224 -0.7033816327666396 -2.004988635684506 7.45563541598914 -0.10535477994592536 -0.617507416911221 -0.4316162238917659 7.18800379595309" Properties=species:S:1:pos:R:3 unique_starting_index=90 config_type=initial n_minim_iter=11 stress="0.0017105483140151558 0.00023179723680086736 -7.074153274515714e-05 0.00023179723680086736 -5.036573652801888e-05 -0.00038122901393014715 -7.074153274515714e-05 -0.00038122901393014715 0.00037096614274271524" pbc="T T T"
Si       5.52439424       0.70323357       5.16244973
Si       0.90771510       3.56442456      -0.65579917
Si       5.72589628       8.02148953       1.35602208
Si       2.11852129       1.32873132       2.28066558
Si       4.35574043       4.14700970       5.87937924
Si      -1.61673510       4.36813794       5.85648289
Si       0.36509732       2.76898380       1.50437097
Si       2.01281654       4.76647607       6.34629474
Si       0.18197971       7.91846692       4.45274353
Si       5.78858680       3.87133268       3.75117664
Si       2.27712083       6.62717230       1.03761318
Si       4.10558069       9.81087634       1.80428991
Si       5.57023517      10.39538125      -1.73130614
Si       8.23022515       4.06637192       4.12383896
Si      -0.16845569       6.58592091       1.33196992
Si      -1.07898998       6.58386122       6.19959963
Si      -1.49895828       1.41829373       0.99147624
Si       4.62945910       6.60779218       6.42619827
Si       3.57204518       1.75820459       5.95061230
Si      -0.17358532       4.61285488       2.86551525
Si       1.38062229       5.76250784       4.29588092
Si       4.12820114       1.48806482       1.00489393
Si       5.75560349       6.21534717       3.05970139
Si       3.32490237       6.62821912       3.18165995
24
Lattice="8.179248716258174 2.5286383568975093 -0.7029035743311098 -2.006194887153033 7.461060294592733 -0.10059073105895051 -0.6172371432699931 -0.42716984534906965 7.187182141432159" Properties=species:S:1:pos:R:3 unique_starting_index=90 config_type=initial n_minim_iter=12 stress="0.0003614581696993274 8.428947214411518e-05 1.1101061433799465e-05 8.428947214411518e-05 -3.941979054158856e-05 -0.00011327987002187168 1.1101061433799465e-05 -0.00011327987002187168 7.909366684666224e-05" pbc="T T T"
Si       5.51343971       0.70318151       5.15783235
Si       0.90283661       3.56372421      -0.65320543
Si       5.70982724       8.02695474       1.36148623
Si       2.11503535       1.32708881       2.27995704
Si       4.34417599       4.15169432       5.87900817
Si      -1.61973935       4.37471162       5.86152569
Si       0.36677655       2.77075668       1.50616909
Si       2.00493203       4.77234110       6.35071454
Si       0.17597728       7.92398219       4.45700295
Si       5.77477727       3.87337258       3.75201112
Si       2.27220064       6.62903423       1.04051765
Si       4.09272650       9.81699281       1.80999282
Si       5.55679323      10.39594310      -1.72604621
Si       8.21372876       4.06809771       4.12470662
Si      -0.17119820       6.58698652       1.33767470
Si      -1.08162430       6.59426774       6.20398740
Si      -1.49630555       1.41955271       0.99388173
Si       4.61495168       6.61587386       6.43052415
Si       3.56314945       1.76095812       5.94569349
Si      -0.17545199       4.61509564       2.86788622
Si       1.37226836       5.76812381       4.29765484
Si       4.12094295       1.48532295       1.00347721
Si       5.74521084       6.22048676       3.06352766
Si       3.31708340       6.63108308       3.18620841
24
Lattice="8.170968565468506 2.526080792618629 -0.7024654985185169 -2.0072353375281935 7.464461913606122 -0.09695868923629447 -0.6171898662231832 -0.4237707734671057 7.186623084666865" Properties=species:S:1:pos:R:3 unique_starting_index=90 config_type=initial n_minim_iter=13 stress="-0.0003392300280793124 1.2707078148911745e-05 3.9596869426546455e-05 1.2707078148911745e-05 -2.809749195962221e-05 3.25985503209732e-05 3.9596869426546455e-05 3.25985503209732e-05 -6.090855296773594e-05" pbc="T T T"
Si       5.50700558       0.70423234       5.15407868
Si       0.89942984       3.56318495      -0.65147128
Si       5.69973951       8.03165328       1.36573402
Si       2.11352563       1.32531852       2.27930872
Si       4.33712243       4.15522709       5.87899382
Si      -1.62169515       4.37988033       5.86632302
Si       0.36886854       2.77142275       1.50774642
Si       1.99968895       4.77656943       6.35410131
Si       0.17136602       7.92748390       4.45999676
Si       5.76624049       3.87554346       3.75274773
Si       2.26995630       6.63015357       1.04308842
Si       4.08414700       9.82071461       1.81471346
Si       5.54821119      10.39564805      -1.72161908
Si       8.20410499       4.06961575       4.12514597
Si      -0.17279003       6.58680730       1.34157118
Si      -1.08317907       6.60089481       6.20813124
Si      -1.49435688       1.42043866       0.99439261
Si       4.60503889       6.62240789       6.43454594
Si       3.55775613       1.76340986       5.94164990
Si      -0.17644226       4.61593645       2.86992385
Si       1.36673118       5.77187349       4.29929881
Si       4.11715427       1.48326517       1.00203560
Si       5.74013234       6.22458021       3.06677597
Si       3.31273330       6.63271948       3.18971017
24
Lattice="8.160097555131042 2.5210655944536726 -0.7007606476880589 -2.0102743977172426 7.47009243399565 -0.08976768772875028 -0.6168732423419148 -0.41684125841472575 7.1851974789046755" Properties=species:S:1:pos:R:3 unique_starting_index=90 config_type=initial n_minim_iter=14 stress="-0.0010115551819865024 -7.814616451036534e-05 4.4177534892977635e-05 -7.814616451036534e-05 5.605395592626008e-06 0.00020287502031544888 4.4177534892977635e-05 0.00020287502031544888 -0.00019437130447591785" pbc="T T T"
Si       5.49858087       0.70835075       5.14586175
Si       0.89291013       3.56194807      -0.64858259
Si       5.68369868       8.04246738       1.37481886
Si       2.11316749       1.32017330       2.27763209
Si       4.32681597       4.16209005       5.87953396
Si      -1.62497020       4.39077144       5.87788907
Si       0.37488379       2.77112630       1.51130390
Si       1.99087925       4.78460958       6.36090393
Si       0.16150283       7.93318150       4.46535569
Si       5.75354837       3.88104877       3.75460121
Si       2.26835926       6.63171329       1.04922756
Si       4.06869438       9.82627187       1.82525739
Si       5.53409701      10.39300982      -1.71151061
Si       8.19110681       4.07238725       4.12581528
Si      -0.17538705       6.58434722       1.34836605
Si      -1.08562735       6.61185857       6.21802612
Si      -1.49066614       1.42198011       0.99249509
Si       4.58719160       6.63655142       6.44434207
Si       3.55007897       1.76891086       5.93254235
Si      -0.17762018       4.61566139       2.87450388
Si       1.35716958       5.77835073       4.30317163
Si       4.11323326       1.47875502       0.99840172
Si       5.73625375       6.23318054       3.07468247
Si       3.30728948       6.63480798       3.19707916
24
Lattice="8.17065287500675 2.5216508155315216 -0.698879124770549 -2.0117707686167337 7.467729420461764 -0.09149552970489486 -0.6157572730162768 -0.4179531870866446 7.184677445679747" Properties=species:S:1:pos:R:3 unique_starting_index=90 config_type=initial n_minim_iter=15 stress="0.00024406766536336032 2.3433243053634962e-05 -2.891565340911729e-05 2.3433243053634962e-05 6.77708220111491e-06 -3.873208937971793e-05 -2.891565340911729e-05 -3.873208937971793e-05 3.5717870305966526e-05" pbc="T T T"
Si       5.50731189       0.71093883       5.14587656
Si       0.89424279       3.56184032      -0.65044597
Si       5.69277843       8.04416172       1.37455531
Si       2.11796027       1.31738625       2.27704398
Si       4.33484741       4.16048653       5.88065792
Si      -1.62308867       4.39001863       5.87964473
Si       0.37702547       2.76790280       1.51127637
Si       1.99526844       4.78256305       6.35968439
Si       0.16141828       7.93021758       4.46317331
Si       5.76313082       3.88228608       3.75511719
Si       2.27319277       6.63049638       1.05027472
Si       4.07273430       9.82269719       1.82553369
Si       5.54111716      10.38977258      -1.71123243
Si       8.20297305       4.07056514       4.12549582
Si      -0.17433788       6.58126746       1.34540508
Si      -1.08413096       6.60639262       6.21913926
Si      -1.49145431       1.42112110       0.98746733
Si       4.59239326       6.63660635       6.44605335
Si       3.55661770       1.76883014       5.93210327
Si      -0.17595542       4.61191203       2.87465569
Si       1.36123342       5.77565750       4.30374987
Si       4.11954595       1.47847018       0.99735163
Si       5.74787892       6.23298529       3.07681461
Si       3.31351445       6.63260790       3.19668823
24
Lattice="8.168460289011563 2.5195633841167644 -0.6962865008473641 -2.0138040223725526 7.469587875715298 -0.09228504135684776 -0.6132090671558021 -0.4179614384090534 7.184664371640353" Properties=species:S:1:pos:R:3 unique_starting_index=90 config_type=initial n_minim_iter=16 stress="6.63794606767466e-05 -3.5555249779901157e-05 2.765621075135305e-05 -3.5555249779901157e-05 -1.0014668003468351e-05 -4.0789767328485323e-07 2.765621075135305e-05 -4.0789767328485323e-07 7.344367603278838e-05" pbc="T T T"
Si       5.50690168       0.71068755       5.14558961
Si       0.89349099       3.56114856      -0.65188425
Si       5.69132922       8.04865292       1.37615552
Si       2.11885750       1.31366527       2.27629967
Si       4.33476306       4.16037713       5.88258621
Si      -1.62296875       4.39078103       5.88273042
Si       0.37678850       2.76547244       1.51095724
Si       1.99549972       4.78293746       6.36028470
Si       0.15845144       7.93087425       4.46366967
Si       5.76411216       3.88330069       3.75630527
Si       2.27183164       6.63079216       1.05243840
Si       4.06725845       9.82459192       1.82696600
Si       5.54006764      10.38811217      -1.71170364
Si       8.20027565       4.06681685       4.12620125
Si      -0.17628443       6.58098513       1.34605662
Si      -1.08480819       6.60745537       6.22076326
Si      -1.49125540       1.42012424       0.98604024
Si       4.58784593       6.63926002       6.44875145
Si       3.55668769       1.76840767       5.93187765
Si      -0.17587391       4.60962426       2.87575895
Si       1.36071540       5.77624726       4.30581371
Si       4.11788716       1.47689480       0.99540835
Si       5.75002971       6.23533437       3.08166846
Si       3.31302639       6.63312482       3.19826399
24
Lattice="8.16772441615658 2.5192030898916435 -0.6951225733268791 -2.0143987349286516 7.470792589448443 -0.09301318566312872 -0.6120541003419966 -0.41837872064929205 7.183864077080362" Properties=species:S:1:pos:R:3 unique_starting_index=90 config_type=initial n_minim_iter=17 stress="-2.697294131523171e-05 -9.694173442315922e-06 1.07530325592119e-05 -9.694173442315922e-06 -1.9373373582793784e-06 4.48552785887826e-06 1.07530325592119e-05 4.48552785887826e-06 1.3446411650977054e-06" pbc="T T T"
Si       5.50666121       0.71098578       5.14460027
Si       0.89348971       3.56061801      -0.65308821
Si       5.69187041       8.05276071       1.37619408
Si       2.11914643       1.31175952       2.27540674
Si       4.33523843       4.16059945       5.88276077
Si      -1.62274127       4.39059687       5.88423244
Si       0.37668665       2.76373431       1.51008589
Si       1.99613966       4.78328687       6.35974800
Si       0.15728146       7.93135843       4.46329814
Si       5.76543902       3.88479660       3.75612002
Si       2.27137585       6.63138120       1.05329394
Si       4.06466036       9.82641660       1.82668356
Si       5.54078491      10.38796026      -1.71270655
Si       8.19915908       4.06505345       4.12522246
Si      -0.17722189       6.58078917       1.34630714