18
Lattice="6.878893417879254 -8.056588076894077e-18 -2.4507446814733446e-23 1.1020940440171708e-17 9.409923149746154 -1.0479201938227983e-15 4.489048405972903e-23 1.403191460536397e-15 12.600123450107231" Properties=species:S:1:pos:R:3 unique_starting_index=81 config_type=initial n_minim_iter=1 energy=-2913.973298233854 free_energy=-2913.973298233854 pbc="T T T"
Si       3.93076715       3.59211302       5.18098380
Si       3.93076715       5.81781013       7.41913965
Si       3.93076715       3.59211302       7.41913965
Si       3.93076715       5.81781013       5.18098380
Si       6.02889379       3.43132377       4.29839848
Si       6.02889379       5.97859938       8.30172497
Si       6.02889379       3.43132377       8.30172497
Si       6.02889379       5.97859938       4.29839848
Si       4.58042797       8.04135815       5.08839982
Si       4.58042797       1.36856500       7.51172363
Si       4.58042797       8.04135815       7.51172363
Si       4.58042797       1.36856500       5.08839982
Si       4.01713210       8.27072787       9.74108987
Si       4.01713210       1.13919528       2.85903358
Si       4.01713210       8.27072787       2.85903358
Si       4.01713210       1.13919528       9.74108987
Si       2.36096559       9.40992315      10.80231318
Si       2.36096559      -0.00000000       1.79781027
18
Lattice="6.798806871930715 -7.989907484528544e-18 -2.5726543240690923e-23 1.0938830980878956e-17 9.37148922043039 -1.0436422779816606e-15 4.116228046872953e-23 1.3727973890568979e-15 12.327222980966727" Properties=species:S:1:pos:R:3 unique_starting_index=81 config_type=initial n_minim_iter=2 stress="-0.0018909453931591018 -2.115387921044859e-17 1.091948488409622e-17 -2.115387921044859e-17 -0.0034641754605720114 -2.0988282840864305e-17 1.091948488409622e-17 -2.0988282840864305e-17 -0.005467150251752188" pbc="T T T"
Si       3.86795642       3.57183337       5.05492505
Si       3.86795642       5.79965585       7.27229793
Si       3.86795642       3.57183337       7.27229793
Si       3.86795642       5.79965585       5.05492505
Si       5.96380413       3.41084202       4.19614109
Si       5.96380413       5.96064720       8.13108189
Si       5.96380413       3.41084202       8.13108189
Si       5.96380413       5.96064720       4.19614109
Si       4.52947915       8.00787914       4.96675414
Si       4.52947915       1.36361008       7.36046885
Si       4.52947915       8.00787914       7.36046885
Si       4.52947915       1.36361008       4.96675414
Si       3.97825424       8.21926257       9.53449201
Si       3.97825424       1.15222665       2.79273097
Si       3.97825424       8.21926257       2.79273097
Si       3.97825424       1.15222665       9.53449201
Si       2.33683289       9.37148922      10.57952364
Si       2.33683289      -0.00000000       1.74769934
18
Lattice="6.733210924613218 -7.855430131611612e-18 -2.6525667573497895e-23 1.1122492291249166e-17 9.46101873521201 -1.0536121826573777e-15 3.8866749783579685e-23 1.3601687172176957e-15 12.213818117782631" Properties=species:S:1:pos:R:3 unique_starting_index=81 config_type=initial n_minim_iter=3 stress="-0.00012455602458690508 -1.8361799836851572e-17 -9.096594773845871e-18 -1.8361799836851572e-17 0.003272136722205817 -3.820939994624102e-18 -9.096594773845871e-18 -3.820939994624102e-18 -0.0024920406384432" pbc="T T T"
Si       3.80134511       3.59706435       4.98416546
Si       3.80134511       5.86395439       7.22965266
Si       3.80134511       3.59706435       7.22965266
Si       3.80134511       5.86395439       4.98416546
Si       5.91565582       3.43224069       4.14190059
Si       5.91565582       6.02877805       8.07191753
Si       5.91565582       3.43224069       8.07191753
Si       5.91565582       6.02877805       4.14190059
Si       4.48994441       8.08365505       4.90261231
Si       4.48994441       1.37736368       7.31120581
Si       4.48994441       8.08365505       7.31120581
Si       4.48994441       1.37736368       4.90261231
Si       3.95304562       8.26820748       9.45546551
Si       3.95304562       1.19281126       2.75835261
Si       3.95304562       8.26820748       2.75835261
Si       3.95304562       1.19281126       9.45546551
Si       2.31940814       9.46101874      10.50164799
Si       2.31940814      -0.00000000       1.71217013
18
Lattice="6.666871651273034 -7.888922405993531e-18 -2.6565477233986225e-23 1.0786884200434371e-17 9.304430189455903 -1.0361750767961642e-15 3.85304529733003e-23 1.3646699087505766e-15 12.254250046589672" Properties=species:S:1:pos:R:3 unique_starting_index=81 config_type=initial n_minim_iter=4 stress="-0.0008600111214589175 -3.859574706127468e-18 -1.4240204680700894e-18 -3.859574706127468e-18 -0.0013905001310733033 -1.5531584419360636e-17 -1.4240204680700894e-18 -1.5531584419360636e-17 0.0004938311203922894" pbc="T T T"
Si       3.73388689       3.53013616       4.97712990
Si       3.73388689       5.77429403       7.27712015
Si       3.73388689       3.53013616       7.27712015
Si       3.73388689       5.77429403       4.97712990
Si       5.86708215       3.36450007       4.14004606
Si       5.86708215       5.93993012       8.11420398
Si       5.86708215       3.36450007       8.11420398
Si       5.86708215       5.93993012       4.14004606
Si       4.45056261       7.94935538       4.90362056
Si       4.45056261       1.35507481       7.35062949
Si       4.45056261       7.94935538       7.35062949
Si       4.45056261       1.35507481       4.90362056
Si       3.92616599       8.10651521       9.49920889
Si       3.92616599       1.19791498       2.75504116
Si       3.92616599       8.10651521       2.75504116
Si       3.92616599       1.19791498       9.49920889
Si       2.30329839       9.30443019      10.55611567
Si       2.30329839      -0.00000000       1.69813437
18
Lattice="6.236735902951376 -8.019550631446961e-18 -4.15569976454422e-23 9.214957923554055e-18 8.703244475818162 -9.692325558583583e-16 1.6355756154775336e-25 1.1698621789789472e-15 10.505044446121925" Properties=species:S:1:pos:R:3 unique_starting_index=81 config_type=initial n_minim_iter=5 stress="0.013909405707087662 5.943314063762355e-17 -3.9695179711680166e-17 5.943314063762355e-17 -0.0027208634451487755 -5.0387096148603544e-17 -3.9695179711680166e-17 -5.0387096148603544e-17 -0.016673694107415638" pbc="T T T"
Si       2.98234690       3.21449009       4.02586456
Si       2.98234690       5.48875438       6.47917989
Si       2.98234690       3.21449009       6.47917989
Si       2.98234690       5.48875438       4.02586456
Si       5.65383478       2.96039879       3.31820590
Si       5.65383478       5.74284569       7.18683855
Si       5.65383478       2.96039879       7.18683855
Si       5.65383478       5.74284569       3.31820590
Si       4.25968570       7.46261813       4.06089529
Si       4.25968570       1.24062634       6.44414916
Si       4.25968570       7.46261813       6.44414916
Si       4.25968570       1.24062634       4.06089529
Si       3.85490428       7.24799493       8.39442274
Si       3.85490428       1.45524954       2.11062171
Si       3.85490428       7.24799493       2.11062171
Si       3.85490428       1.45524954       8.39442274
Si       2.28876148       8.70324448       9.34719832
Si       2.28876148      -0.00000000       1.15784613
18
Lattice="6.149804427570472 -8.112528199221736e-18 -4.095938429060759e-23 8.872995726349618e-18 8.636844032890309 -9.618292405240782e-16 1.8680495673452622e-26 1.1508586432252402e-15 10.3342952848296" Properties=species:S:1:pos:R:3 unique_starting_index=81 config_type=initial n_minim_iter=6 stress="0.011173138533421143 1.2047177166469118e-16 -6.775756468828372e-18 1.2047177166469118e-16 -0.006297423430295629 -7.407291028303002e-17 -6.775756468828372e-18 -7.407291028303002e-17 -0.02570993085989928" pbc="T T T"
Si       2.87769355       3.17868511       3.93120064
Si       2.87769355       5.45815892       6.40309464
Si       2.87769355       3.17868511       6.40309464
Si       2.87769355       5.45815892       3.93120064
Si       5.59519459       2.91470395       3.23602435
Si       5.59519459       5.72214008       7.09827093
Si       5.59519459       2.91470395       7.09827093
Si       5.59519459       5.72214008       3.23602435
Si       4.21258497       7.40946068       3.97876335
Si       4.21258497       1.22738335       6.35553194
Si       4.21258497       7.40946068       6.35553194
Si       4.21258497       1.22738335       3.97876335
Si       3.82338684       7.15069682       8.29004967
Si       3.82338684       1.48614721       2.04424562
Si       3.82338684       7.15069682       2.04424562
Si       3.82338684       1.48614721       8.29004967
Si       2.27371753       8.63684403       9.23155674
Si       2.27371753      -0.00000000       1.10273854
18
Lattice="5.830690643967758 -8.101674888641038e-18 -4.075811032008093e-23 8.13853542874413e-18 8.418177207837305 -9.374456766535543e-16 2.602134715384212e-29 1.1449663528410703e-15 10.28099948718247" Properties=species:S:1:pos:R:3 unique_starting_index=81 config_type=initial n_minim_iter=7 stress="0.008019103878010093 9.592934780670087e-17 -6.369207485197506e-17 9.592934780670087e-17 -0.0029138502716247947 -6.022372946496143e-17 -6.369207485197506e-17 -6.022372946496143e-17 -0.023236852444820582" pbc="T T T"
Si       2.50938193       3.06036000       3.82989600
Si       2.50938193       5.35781721       6.45110349
Si       2.50938193       3.06036000       6.45110349
Si       2.50938193       5.35781721       3.82989600
Si       5.37751035       2.76607846       3.12030770
Si       5.37751035       5.65209875       7.16069179
Si       5.37751035       2.76607846       7.16069179
Si       5.37751035       5.65209875       3.12030770
Si       4.03881564       7.24615367       3.93098100
Si       4.03881564       1.17202354       6.35001848
Si       4.03881564       7.24615367       6.35001848
Si       4.03881564       1.17202354       3.93098100
Si       3.69372401       6.83226702       8.38374134
Si       3.69372401       1.58591019       1.89725815
Si       3.69372401       6.83226702       1.89725815
Si       3.69372401       1.58591019       8.38374134
Si       2.22129842       8.41817721       9.29422258
Si       2.22129842      -0.00000000       0.98677691
18
Lattice="5.29909396138438 -6.290314446081928e-18 -4.213594570449733e-23 9.587506366461194e-18 8.251152514414454 -9.188518658162407e-16 6.9724221222267475e-31 1.1836603888498318e-15 10.628547165809715" Properties=species:S:1:pos:R:3 unique_starting_index=81 config_type=initial n_minim_iter=8 stress="-0.006478811052271456 8.137166762813337e-17 -1.1227655320184104e-16 8.137166762813337e-17 -0.010098166242015543 7.187347611812154e-17 -1.1227655320184104e-16 7.187347611812154e-17 -0.022176649707332824" pbc="T T T"
Si       2.10569988       2.95865954       3.90689101
Si       2.10569988       5.29249297       6.72165616
Si       2.10569988       2.95865954       6.72165616
Si       2.10569988       5.29249297       3.90689101
Si       4.96004352       2.67241134       3.14028760
Si       4.96004352       5.57874118       7.48825957
Si       4.96004352       2.67241134       7.48825957
Si       4.96004352       5.57874118       3.14028760
Si       3.69844834       7.13238113       4.06711795
Si       3.69844834       1.11877138       6.56142922
Si       3.69844834       7.13238113       6.56142922
Si       3.69844834       1.11877138       4.06711795
Si       3.40277788       6.58559696       8.79728086
Si       3.40277788       1.66555555       1.83126631
Si       3.40277788       6.58559696       1.83126631
Si       3.40277788       1.66555555       8.79728086
Si       2.07558763       8.25115251       9.65662725
Si       2.07558763      -0.00000000       0.97191992
18
Lattice="5.119830840926392 -4.990706315723611e-18 -4.3720512558151234e-23 1.1069802403399974e-17 8.290388435048085 -9.232205722231514e-16 6.605652625084535e-31 1.2281723873049358e-15 11.02824493648624" Properties=species:S:1:pos:R:3 unique_starting_index=81 config_type=initial n_minim_iter=9 stress="-0.005626009387842868 9.513691713863154e-17 -8.63918741699887e-17 9.513691713863154e-17 -0.0011032377996131276 1.16066150596068e-16 -8.63918741699887e-17 1.16066150596068e-16 -0.0037747922877655556" pbc="T T T"
Si       2.00960056       2.95950138       4.06507303
Si       2.00960056       5.33088706       6.96317191
Si       2.00960056       2.95950138       6.96317191
Si       2.00960056       5.33088706       4.06507303
Si       4.81164957       2.69920250       3.25216303
Si       4.81164957       5.59118593       7.77608190
Si       4.81164957       2.69920250       7.77608190
Si       4.81164957       5.59118593       3.25216303
Si       3.57467678       7.17043631       4.25044467
Si       3.57467678       1.11995213       6.77780026
Si       3.57467678       7.17043631       6.77780026
Si       3.57467678       1.11995213       4.25044467
Si       3.28573083       6.60848017       9.16147830
Si       3.28573083       1.68190827       1.86676664
Si       3.28573083       6.60848017       1.86676664
Si       3.28573083       1.68190827       9.16147830
Si       2.01748708       8.29038844       9.98779462
Si       2.01748708      -0.00000000       1.04045032
18
Lattice="5.004815850797788 -1.2636849509016026e-18 -4.429507816588624e-23 1.5819700315321865e-17 8.18612185180881 -9.116155452414623e-16 6.751787240815655e-31 1.2443032570733528e-15 11.17317577296314" Properties=species:S:1:pos:R:3 unique_starting_index=81 config_type=initial n_minim_iter=10 stress="-0.016639686205843256 1.1019976826042768e-16 -8.458269286137594e-17 1.1019976826042768e-16 0.002503072338674845 7.913895936552561e-17 -8.458269286137594e-17 7.913895936552561e-17 0.000462212540600332" pbc="T T T"
Si       1.88329579       2.89278702       4.09330336
Si       1.88329579       5.29333483       7.07987242
Si       1.88329579       2.89278702       7.07987242
Si       1.88329579       5.29333483       4.09330336
Si       4.74388013       2.66438186       3.25461863
Si       4.74388013       5.52173999       7.91855714
Si       4.74388013       2.66438186       7.91855714
Si       4.74388013       5.52173999       3.25461863
Si       3.50440400       7.07932145       4.32263235
Si       3.50440400       1.10680040       6.85054342
Si       3.50440400       7.07932145       6.85054342
Si       3.50440400       1.10680040       4.32263235
Si       3.23217070       6.45958724       9.35025939
Si       3.23217070       1.72653461       1.82291638
Si       3.23217070       6.45958724       1.82291638
Si       3.23217070       1.72653461       9.35025939
Si       1.99327314       8.18612185      10.11089743
Si       1.99327314      -0.00000000       1.06227835
18
Lattice="5.121566915843014 9.470875480041624e-19 -4.5088400706306813e-23 1.9230235991378264e-17 8.078386364961638 -8.996204371609004e-16 8.299859623583753e-31 1.266584153032297e-15 11.373286787467423" Properties=species:S:1:pos:R:3 unique_starting_index=81 config_type=initial n_minim_iter=11 stress="-0.003053567456641659 5.302712180847519e-17 -7.007340432636294e-17 5.302712180847519e-17 0.015183840771094076 -1.137080591524969e-17 -7.007340432636294e-17 -1.137080591524969e-17 0.021673487834515576" pbc="T T T"
Si       1.91949903       2.83525417       4.18170805
Si       1.91949903       5.24313220       7.19157874
Si       1.91949903       2.83525417       7.19157874
Si       1.91949903       5.24313220       4.18170805
Si       4.86980009       2.66343528       3.31443896
Si       4.86980009       5.41495108       8.05884783
Si       4.86980009       2.66343528       8.05884783
Si       4.86980009       5.41495108       3.31443896
Si       3.58304169       6.96793917       4.44909558
Si       3.58304169       1.11044719       6.92419121
Si       3.58304169       6.96793917       6.92419121
Si       3.58304169       1.11044719       4.44909558
Si       3.30459635       6.34854313       9.54062808
Si       3.30459635       1.72984323       1.83265871
Si       3.30459635       6.34854313       1.83265871
Si       3.30459635       1.72984323       9.54062808
Si       2.03689095       8.07838636      10.21985696
Si       2.03689095      -0.00000000       1.15342983
18
Lattice="5.407501951955658 -2.2979281279358436e-18 -4.444446367627175e-23 1.605902228385764e-17 7.686115889112608 -8.559417427603608e-16 7.426525035178756e-31 1.2484872679528444e-15 11.210857398017499" Properties=species:S:1:pos:R:3 unique_starting_index=81 config_type=initial n_minim_iter=12 stress="0.006295104527586607 -4.9441127952053724e-17 -9.393760647707297e-17 -4.9441127952053724e-17 0.015555291324372295 1.9730176466889976e-17 -9.393760647707297e-17 1.9730176466889976e-17 0.023488317355451843" pbc="T T T"
Si       1.94218232       2.64765386       4.09316325
Si       1.94218232       5.03846203       7.11769415
Si       1.94218232       2.64765386       7.11769415
Si       1.94218232       5.03846203       4.09316325
Si       5.19543600       2.56956324       3.22883002
Si       5.19543600       5.11655265       7.98202737
Si       5.19543600       2.56956324       7.98202737
Si       5.19543600       5.11655265       3.22883002
Si       3.78801354       6.58954524       4.43706909
Si       3.78801354       1.09657065       6.77378831
Si       3.78801354       6.58954524       6.77378831
Si       3.78801354       1.09657065       4.43706909
Si       3.51134859       5.93089296       9.47810214
Si       3.51134859       1.75522293       1.73275526
Si       3.51134859       5.93089296       1.73275526
Si       3.51134859       1.75522293       9.47810214
Si       2.15767905       7.68611589      10.00057435
Si       2.15767905      -0.00000000       1.21028305
18
Lattice="5.573655897700929 -7.00371668563206e-18 -4.348346014876806e-23 1.0088269937965334e-17 7.477098534340185 -8.326743343665308e-16 4.421667217922502e-31 1.2214793509010643e-15 10.968449803986811" Properties=species:S:1:pos:R:3 unique_starting_index=81 config_type=initial n_minim_iter=13 stress="0.012814222733106768 -7.851197074614014e-17 -4.602575645806711e-17 -7.851197074614014e-17 0.006265265968848657 7.523937430079945e-17 -4.602575645806711e-17 7.523937430079945e-17 0.01433212453902596" pbc="T T T"
Si       1.98119216       2.54686131       3.98941706
Si       1.98119216       4.93023723       6.97903275
Si       1.98119216       2.54686131       6.97903275
Si       1.98119216       4.93023723       3.98941706
Si       5.37774036       2.53014975       3.14961934
Si       5.37774036       4.94694878       7.81883047
Si       5.37774036       2.53014975       7.81883047
Si       5.37774036       4.94694878       3.14961934
Si       3.89917830       6.36732420       4.36177576
Si       3.89917830       1.10977433       6.60667404
Si       3.89917830       6.36732420       6.60667404
Si       3.89917830       1.10977433       4.36177576
Si       3.62648665       5.70895308       9.29249396
Si       3.62648665       1.76814545       1.67595584
Si       3.62648665       5.70895308       1.67595584
Si       3.62648665       1.76814545       9.29249396
Si       2.21594063       7.47709853       9.72425765
Si       2.21594063      -0.00000000       1.24419215
18
Lattice="5.564091000232078 -1.006195340540268e-17 -4.2055485356222943e-23 5.843462022493717e-18 7.440949573439083 -8.286925092251361e-16 1.4530911922991701e-31 1.1813075471729167e-15 10.608251430711768" Properties=species:S:1:pos:R:3 unique_starting_index=81 config_type=initial n_minim_iter=14 stress="-0.0004733868544008199 -4.385898595922928e-17 -6.509101937815079e-17 -4.385898595922928e-17 0.00041117757724680015 5.748251163908549e-17 -6.509101937815079e-17 5.748251163908549e-17 -0.00483493335197943" pbc="T T T"
Si       2.00504426       2.51502426       3.84447380
Si       2.00504426       4.92592531       6.76377763
Si       2.00504426       2.51502426       6.76377763
Si       2.00504426       4.92592531       3.84447380
Si       5.36905101       2.54493570       3.05284594
Si       5.36905101       4.89601387       7.55540549
Si       5.36905101       2.54493570       7.55540549
Si       5.36905101       4.89601387       3.05284594
Si       3.87735744       6.27761122       4.19977779
Si       3.87735744       1.16333836       6.40847364
Si       3.87735744       6.27761122       6.40847364
Si       3.87735744       1.16333836       4.19977779
Si       3.61859030       5.63893008       8.96571070
Si       3.61859030       1.80201949       1.64254073
Si       3.61859030       5.63893008       1.64254073
Si       3.61859030       1.80201949       8.96571070
Si       2.19016014       7.44094957       9.35011859
Si       2.19016014      -0.00000000       1.25813285
18
Lattice="5.630457263304083 -1.2101901574427138e-17 -4.141095872866286e-23 2.8666722272060513e-18 7.29710289085526 -8.123433021430791e-16 3.1982028772211827e-32 1.1636435740619015e-15 10.445673324040342" Properties=species:S:1:pos:R:3 unique_starting_index=81 config_type=initial n_minim_iter=15 stress="-0.00718966302140414 -2.4059821204398177e-17 -8.394490750482616e-17 -2.4059821204398177e-17 -0.006168139721562338 4.118315950172151e-17 -8.394490750482616e-17 4.118315950172151e-17 -0.010535430359588501" pbc="T T T"
Si       2.00176182       2.45070272       3.75001498
Si       2.00176182       4.84640017       6.69565834
Si       2.00176182       2.45070272       6.69565834
Si       2.00176182       4.84640017       3.75001498
Si       5.44518769       2.48632944       2.98505943
Si       5.44518769       4.81077345       7.46061389
Si       5.44518769       2.48632944       7.46061389
Si       5.44518769       4.81077345       2.98505943
Si       3.92520653       6.12317639       4.08289113
Si       3.92520653       1.17392650       6.36278220
Si       3.92520653       6.12317639       6.36278220
Si       3.92520653       1.17392650       4.08289113
Si       3.67380001       5.47044233       8.84268032
Si       3.67380001       1.82666056       1.60299300
Si       3.67380001       5.47044233       1.60299300
Si       3.67380001       1.82666056       8.84268032
Si       2.21918535       7.29710289       9.21532502
Si       2.21918535      -0.00000000       1.23034831
18
Lattice="5.791356508432952 -1.3241800016017534e-17 -4.130969813229688e-23 1.1473806116526387e-18 7.18835906306114 -8.003512848427179e-16 5.825558956781905e-33 1.1606385789039793e-15 10.420130924249603" Properties=species:S:1:pos:R:3 unique_starting_index=81 config_type=initial n_minim_iter=16 stress="0.004198185880178588 5.4832543971694067e-17 -8.247454295123722e-17 5.4832543971694067e-17 0.000296759015694581 3.3357531562424274e-18 -8.247454295123722e-17 3.3357531562424274e-18 -0.002302875410122655" pbc="T T T"
Si       2.04154641       2.40193563       3.71029031
Si       2.04154641       4.78642344       6.70984061
Si       2.04154641       2.40193563       6.70984061
Si       2.04154641       4.78642344       3.71029031
Si       5.61301828       2.43396665       2.95575898
Si       5.61301828       4.75439241       7.46437194
Si       5.61301828       2.43396665       7.46437194
Si       5.61301828       4.75439241       2.95575898
Si       4.03660299       6.00394007       4.02398814
Si       4.03660299       1.18441899       6.39614279
Si       4.03660299       6.00394007       6.39614279
Si       4.03660299       1.18441899       4.02398814
Si       3.77873384       5.33327663       8.84841499
Si       3.77873384       1.85508243       1.57171593
Si       3.77873384       5.33327663       1.57171593
Si       3.77873384       1.85508243       8.84841499
Si       2.29463526       7.18835906       9.21075525
Si       2.29463526      -0.00000000       1.20937568
18
Lattice="5.847017184059284 -1.3595741219802612e-17 -4.180700919642492e-23 8.323988546195786e-20 6.960947565042716 -7.75159701802634e-16 1.7886095192663656e-34 1.1744257131161398e-15 10.54557474495844" Properties=species:S:1:pos:R:3 unique_starting_index=81 config_type=initial n_minim_iter=17 stress="0.0019027571915091646 -2.683750717760093e-17 -2.7903459554877155e-17 -2.683750717760093e-17 0.006062744440241769 3.998160258317166e-17 -2.7903459554877155e-17 3.998160258317166e-17 0.012092199226993896" pbc="T T T"
Si       2.01689717       2.29544621       3.70092968
Si       2.01689717       4.66550135       6.84464506
Si       2.01689717       2.29544621       6.84464506
Si       2.01689717       4.66550135       3.70092968
Si       5.71843085       2.33695918       2.93382971
Si       5.71843085       4.62398838       7.61174503
Si       5.71843085       2.33695918       7.61174503
Si       5.71843085       4.62398838       2.93382971
Si       4.06132248       5.76304491       4.01643820
Si       4.06132248       1.19790265       6.52913654
Si       4.06132248       5.76304491       6.52913654
Si       4.06132248       1.19790265       4.01643820
Si       3.80029574       5.04173507       9.04712943
Si       3.80029574       1.91921249       1.49844531
Si       3.80029574       5.04173507       1.49844531
Si       3.80029574       1.91921249       9.04712943
Si       2.35996172       6.96094757       9.32514160
Si       2.35996172      -0.00000000       1.22043315
18
Lattice="6.0142220783616684 -1.3048178482670774e-17 -4.1753172137191846e-23 5.425375741755044e-22 6.650138635614657 -7.405702591919287e-16 1.5530165900046423e-36 1.1728818718118552e-15 10.531994660069369" Properties=species:S:1:pos:R:3 unique_starting_index=81 config_type=initial n_minim_iter=18 stress="-0.0009607236829921625 -5.2713765109982246e-17 -8.585663522254124e-17 -5.2713765109982246e-17 0.009698855383427381 5.340261227214364e-17 -8.585663522254124e-17 5.340261227214364e-17 0.019376531758505372" pbc="T T T"
Si       2.04767779       2.15377380       3.61849726
Si       2.04767779       4.49636484       6.91349740
Si       2.04767779       2.15377380       6.91349740
Si       2.04767779       4.49636484       3.61849726
Si       5.94403732       2.20389373       2.85176500
Si       5.94403732       4.44624491       7.68022966
Si       5.94403732       2.20389373       7.68022966
Si       5.94403732       4.44624491       2.85176500
Si       4.14687109       5.43201792       3.92781303
Si       4.14687109       1.21812072       6.60418163
Si       4.14687109       5.43201792       6.60418163
Si       4.14687109       1.21812072       3.92781303
Si       3.87468339       4.64947631       9.15639441
Si       3.87468339       2.00066233       1.37560025
Si       3.87468339       4.64947631       1.37560025
Si       3.87468339       2.00066233       9.15639441
Si       2.48684162       6.65013864       9.31083428
Si       2.48684162      -0.00000000       1.22116038
18
Lattice="6.086311722282369 -1.2874831053964243e-17 -4.1591699423934945e-23 6.697297720628319e-23 6.5616109861101535 -7.307127060729484e-16 2.6979631650976975e-37 1.1683444111892932e-15 10.491264107949108" Properties=species:S:1:pos:R:3 unique_starting_index=81 config_type=initial n_minim_iter=19 stress="0.0003182115934868708 -1.1089575511891244e-16 -4.7564418504749063e-17 -1.1089575511891244e-16 0.004933028716335862 7.427956792641813e-17 -4.7564418504749063e-17 7.427956792641813e-17 0.01877189064589138" pbc="T T T"
Si       2.07752342       2.11477508       3.58253317
Si       2.07752342       4.44683590       6.90873094
Si       2.07752342       2.11477508       6.90873094
Si       2.07752342       4.44683590       3.58253317
Si       6.02815003       2.16305847       2.81824881
Si       6.02815003       4.39855252       7.67301530
Si       6.02815003       2.16305847       7.67301530
Si       6.02815003       4.39855252       2.81824881
Si       4.18479645       5.33994376       3.88760133
Si       4.18479645       1.22166722       6.60366277
Si       4.18479645       5.33994376       6.60366277
Si       4.18479645       1.22166722       3.88760133
Si       3.90587699       4.54077894       9.15426713
Si       3.90587699       2.02083205       1.33699697
Si       3.90587699       4.54077894       1.33699697
Si       3.90587699       2.02083205       9.15426713
Si       2.53438265       6.56161099       9.27417661
Si       2.53438265      -0.00000000       1.21708749
18
Lattice="6.108453524883877 -1.3010026539242055e-17 -4.1088702899686007e-23 8.773007076758373e-24 6.630491093735684 -7.383935267713055e-16 3.453008998788405e-38 1.1542014184788847e-15 10.364386162252554" Properties=species:S:1:pos:R:3 unique_starting_index=81 config_type=initial n_minim_iter=20 stress="0.002000786975769801 -4.0597794124014726e-17 -1.1154362781282087e-16 -4.0597794124014726e-17 0.010335068065115886 5.949555780914997e-17 -1.1154362781282087e-16 5.949555780914997e-17 0.012380080974436963" pbc="T T T"
Si       2.15506888       2.14548451       3.54456185
Si       2.15506888       4.48500659       6.81982431
Si       2.15506888       2.14548451       6.81982431
Si       2.15506888       4.48500659       3.54456185
Si       6.02669959       2.17027515       2.78588126
Si       6.02669959       4.46021594       7.57850490
Si       6.02669959       2.17027515       7.57850490
Si       6.02669959       4.46021594       2.78588126
Si       4.18313804       5.40513158       3.84064396
Si       4.18313804       1.22535952       6.52374220
Si       4.18313804       5.40513158       6.52374220
Si       4.18313804       1.22535952       3.84064396
Si       3.88723318       4.60102506       9.03851292
Si       3.88723318       2.02946604       1.32587324
Si       3.88723318       4.60102506       1.32587324
Si       3.88723318       2.02946604       9.03851292
Si       2.54986062       6.63049109       9.16306955
Si       2.54986062      -0.00000000       1.20131661
18