16
Lattice="7.816808057169579 -0.2341460303197087 -1.352649467120975 0.6706831480627632 8.341542864463342 -0.41808875968365034 -1.4426523921393009 1.3903406550698099 5.729608367866181" Properties=species:S:1:pos:R:3 unique_starting_index=30 config_type=initial n_minim_iter=1 energy=-2602.524113797582 free_energy=-2602.524113797582 pbc="T T T"
Si       1.87055176       7.99605185       2.20671985
Si       5.17428705       1.50168564       1.75215029
Si       2.45501091       4.02971218       1.13365659
Si       4.58982790       5.46802531       2.82521355
Si       3.79419815       3.02990319       2.93096025
Si       3.25064066       6.46783430       1.02790989
Si       5.20685343       4.77988383      -0.77449492
Si       1.83798538       4.71785366       4.73336506
Si       0.79092801       4.85816643       2.59634661
Si       6.25391080       4.63957106       1.36252353
Si       7.57093723       6.73781873       0.67223564
Si      -0.52609842       2.75991876       3.28663450
Si       1.38528783       1.91003946       2.19687207
Si       5.65955099       7.58769803       1.76199808
Si       5.01806616       7.20194939      -0.56720113
Si       2.02677266       2.29578810       4.52607127
16
Lattice="7.810870210920349 -0.2116657333839543 -1.3628424853342014 0.6989486432621211 8.311687783801364 -0.38841598281928424 -1.4464507968536138 1.4006617294641603 5.719607583540867" Properties=species:S:1:pos:R:3 unique_starting_index=30 config_type=initial n_minim_iter=2 stress="-0.003189036747054127 -0.00044014377223754967 -0.0007538419793986086 -0.00044014377223754967 -0.004297564891440782 -0.00011415857131430438 -0.0007538419793986086 -0.00011415857131430438 -0.003267095363542912" pbc="T T T"
Si       1.89194440       7.97823936       2.22607120
Si       5.17142366       1.52244441       1.74227791
Si       2.46475149       4.02725634       1.14183882
Si       4.59861657       5.47342744       2.82651029
Si       3.79407712       3.04184265       2.92496316
Si       3.26929094       6.45884113       1.04338596
Si       5.21996678       4.77692084      -0.76423806
Si       1.84340127       4.72376294       4.73258717
Si       0.80118278       4.85332762       2.60659156
Si       6.26218527       4.64735616       1.36175756
Si       7.58486621       6.74040237       0.68029041
Si      -0.52149815       2.76028141       3.28805871
Si       1.38560764       1.91630550       2.19365517
Si       5.67776042       7.58437828       1.77469395
Si       5.03789110       7.18886685      -0.54867883
Si       2.02547696       2.31181693       4.51702794
16
Lattice="7.851360896481694 -0.1714684665804999 -1.3757095263807868 0.7549717092676607 8.340342839948487 -0.341568016758892 -1.4516360667705857 1.4294184213668322 5.74103491705178" Properties=species:S:1:pos:R:3 unique_starting_index=30 config_type=initial n_minim_iter=3 stress="0.00268506545855436 0.0010989373295844744 -0.0031864621369032645 0.0010989373295844744 0.0010902010225590896 0.0017146203691656844 -0.0031864621369032645 0.0017146203691656844 0.0003129228624532638" pbc="T T T"
Si       1.94881137       8.02152563       2.27753370
Si       5.20588517       1.57676717       1.74622367
Si       2.50200285       4.06241835       1.16857083
Si       4.65269369       5.53587445       2.85518654
Si       3.82518431       3.09164129       2.94141257
Si       3.32951223       6.50665151       1.08234481
Si       5.27896242       4.81942697      -0.74436913
Si       1.87573412       4.77886582       4.76812650
Si       0.83039789       4.89198056       2.64499708
Si       6.32429865       4.70631224       1.37876030
Si       7.66415443       6.81198544       0.71015892
Si      -0.50945789       2.78630735       3.31359846
Si       1.39953631       1.94595741       2.20499776
Si       5.75516023       7.65233538       1.81875962
Si       5.10751504       7.23595670      -0.51398508
Si       2.04718150       2.36233609       4.53774245
16
Lattice="7.822499390989393 -0.1324386418991973 -1.3045591279400848 0.7955383159368897 8.348859130374127 -0.3130000286495961 -1.3869169182784389 1.4382508111374066 5.741229573652165" Properties=species:S:1:pos:R:3 unique_starting_index=30 config_type=initial n_minim_iter=4 stress="-0.001110711700245471 0.0036337529002504567 0.0022528177575168095 0.0036337529002504567 0.001030248386078219 0.0006602287938471901 0.0022528177575168095 0.0006602287938471901 0.0001837736560357437" pbc="T T T"
Si       2.00878448       8.02883191       2.32599045
Si       5.22233631       1.62583939       1.79767997
Si       2.53052945       4.08288035       1.21239890
Si       4.70059134       5.57179095       2.91127151
Si       3.85389641       3.12100084       2.98552607
Si       3.37722438       6.53367046       1.13814434
Si       5.28954335       4.84665784      -0.68524191
Si       1.94157744       4.80801346       4.80891233
Si       0.87607508       4.91284738       2.68173296
Si       6.35504571       4.74182392       1.44193745
Si       7.69055211       6.85846308       0.79708322
Si      -0.45943132       2.79620822       3.32658719
Si       1.42217007       1.96518726       2.22251155
Si       5.80895071       7.68948404       1.90115887
Si       5.12769390       7.25805551      -0.44708460
Si       2.10342689       2.39661579       4.57075501
16
Lattice="7.846558141319025 -0.21416309448308032 -1.2901702008460625 0.7099106818594131 8.303870086947775 -0.3035465073645325 -1.39354212429798 1.4529821328485504 5.74910528834248" Properties=species:S:1:pos:R:3 unique_starting_index=30 config_type=initial n_minim_iter=5 stress="-0.0011314092010311643 -0.00022506647061175297 0.0014203281748613008 -0.00022506647061175297 0.00012044267462500428 0.0023625933626046473 0.0014203281748613008 0.0023625933626046473 0.0010206623350147454" pbc="T T T"
Si       1.93180540       7.95013569       2.35190625
Si       5.23112130       1.59255343       1.80348233
Si       2.49855648       4.04274210       1.23840082
Si       4.66437022       5.49994702       2.91698776
Si       3.82360330       3.06999714       2.99233074
Si       3.33932339       6.47269198       1.16305784
Si       5.25626129       4.76340901      -0.67482019
Si       1.90666541       4.77928011       4.83020877
Si       0.82691482       4.89722527       2.71675240
Si       6.33601188       4.64546386       1.43863618
Si       7.64232633       6.74784242       0.81137697
Si      -0.47939963       2.79484670       3.34401161
Si       1.40115149       1.94993585       2.22369414
Si       5.76177520       7.59275328       1.93169444
Si       5.05985218       7.15698002      -0.42636799
Si       2.10307452       2.38570911       4.58175657
16
Lattice="7.920535425135726 -0.21402256129001604 -1.3002329134722435 0.6948580756312708 8.270255006306535 -0.4253719974490384 -1.4257071836697301 1.3664080638909206 5.699592385411924" Properties=species:S:1:pos:R:3 unique_starting_index=30 config_type=initial n_minim_iter=6 stress="0.0004452065275132383 0.0004408259005074133 -0.0004748741646330958 0.0004408259005074133 0.0004287087330411875 -0.001864518670270355 -0.0004748741646330958 -0.001864518670270355 -0.0009308022464246196" pbc="T T T"
Si       1.91604909       7.84635469       2.23074712
Si       5.27363723       1.57628582       1.74324036
Si       2.50354347       4.00597425       1.18377184
Si       4.68614285       5.41666626       2.79021563
Si       3.82222874       3.00210342       2.90886952
Si       3.36745758       6.42053709       1.06511796
Si       5.29597973       4.72920877      -0.76273978
Si       1.89370659       4.69343174       4.73672726
Si       0.80928235       4.84775479       2.65890614
Si       6.38040397       4.57488572       1.31508133
Si       7.68574118       6.68508777       0.67384050
Si      -0.49605486       2.73755274       3.30014698
Si       1.38814690       1.90872152       2.17215253
Si       5.80153941       7.51391899       1.80183495
Si       5.07829440       7.10373381      -0.53749985
Si       2.11139192       2.31890670       4.51148732
16
Lattice="7.932435808653166 -0.2577640467146096 -1.2673653736916084 0.6579973762213158 8.203526162319374 -0.3528307204541084 -1.401881077296707 1.4119894041276804 5.7478214079855094" Properties=species:S:1:pos:R:3 unique_starting_index=30 config_type=initial n_minim_iter=7 stress="0.0015681365127095327 -0.0023180663280566753 0.00032150064147765795 -0.0023180663280566753 -0.002516123049626609 0.002447641881523235 0.00032150064147765795 0.002447641881523235 0.0041037581616918785" pbc="T T T"
Si       1.89216018       7.78644003       2.34329921
Si       5.29639193       1.57131149       1.78432610
Si       2.48581203       3.98968868       1.26154515
Si       4.70274008       5.36806284       2.86608016
Si       3.82019917       2.98792995       2.96841236
Si       3.36835294       6.36982157       1.15921296
Si       5.28597732       4.64750170      -0.71776791
Si       1.90257479       4.71024982       4.84539323
Si       0.80416195       4.84451002       2.75659158
Si       6.38439016       4.51324150       1.37103374
Si       7.67728684       6.60252384       0.76148880
Si      -0.48873474       2.75522768       3.36613652
Si       1.37585525       1.89241464       2.20857890
Si       5.81269686       7.46533688       1.91904641
Si       5.04510688       7.02229315      -0.45152512
Si       2.14344523       2.33545837       4.57915043
16
Lattice="7.899009596429838 -0.26669300522066997 -1.2501432998083188 0.6490432571206983 8.27093455277477 -0.3392839694712178 -1.3929158733429927 1.4308077958365701 5.696950266179641" Properties=species:S:1:pos:R:3 unique_starting_index=30 config_type=initial n_minim_iter=8 stress="-0.0016362140653349531 -0.002942061289454048 -4.8787099040493904e-05 -0.002942061289454048 0.002756256154152894 0.004130915689888752 -4.8787099040493904e-05 0.004130915689888752 -0.0017463254578641008" pbc="T T T"
Si       1.87395251       7.84592807       2.34680734
Si       5.28118447       1.58912128       1.76071566
Si       2.45836510       4.03676591       1.27214781
Si       4.69677188       5.39828343       2.83537519
Si       3.79606286       3.01182888       2.94011032
Si       3.35907412       6.42322046       1.16741268
Si       5.26359402       4.66533963      -0.72266404
Si       1.89154296       4.76970971       4.83018703
Si       0.80106791       4.89627457       2.76352731
Si       6.35406907       4.53877478       1.34399569
Si       7.64199948       6.64677539       0.75149183
Si      -0.48686250       2.78827395       3.35603116
Si       1.35318751       1.89178830       2.19163266
Si       5.80194947       7.54326105       1.91589034
Si       5.01074430       7.08045290      -0.43526718
Si       2.14439268       2.35459644       4.54279018
16
Lattice="7.926528394968398 -0.18708141666030723 -1.255515149118765 0.711397067536678 8.218341835913835 -0.4760996365757508 -1.396076672798284 1.3161261315163124 5.668810173706944" Properties=species:S:1:pos:R:3 unique_starting_index=30 config_type=initial n_minim_iter=9 stress="0.0005331556141645289 0.0008926380372913294 0.0008636343576908138 0.0008926380372913294 0.002139342758557802 -0.0005366582621154032 0.0008636343576908138 -0.0005366582621154032 0.0012416620758159205" pbc="T T T"
Si       1.91596748       7.74942702       2.24911062
Si       5.32588131       1.59795953       1.68808477
Si       2.44808448       4.04422949       1.23955599
Si       4.79376431       5.30315706       2.69763939
Si       3.81020055       2.96320144       2.85959486
Si       3.43164824       6.38418512       1.07760053
Si       5.32581431       4.64198308      -0.86733192
Si       1.91603448       4.70540347       4.80452731
Si       0.83843491       4.84185404       2.74378866
Si       6.40341388       4.50553251       1.19340673
Si       7.71891277       6.62088570       0.58391688
Si      -0.47706398       2.72650085       3.35327850
Si       1.32114968       1.79799257       2.15922568
Si       5.92069911       7.54939398       1.77796971
Si       5.06083763       7.08220628      -0.56255728
Si       2.18101116       2.26518027       4.49975267
16
Lattice="7.987836642908373 -0.23663117748882542 -1.260473439737714 0.6528190810239246 8.144884659758763 -0.5282662421126595 -1.43073591725395 1.278141523280838 5.612414102853982" Properties=species:S:1:pos:R:3 unique_starting_index=30 config_type=initial n_minim_iter=10 stress="-0.00018325153679604427 -0.0007635993264904151 -0.002151826523069832 -0.0007635993264904151 -0.004605562755475644 0.00021707411614407473 -0.002151826523069832 0.00021707411614407473 -0.0029025739045264965" pbc="T T T"
Si       1.85277527       7.63123458       2.19589613
Si       5.35714454       1.55516043       1.62777829
Si       2.41039247       4.00383696       1.22109124
Si       4.79952734       5.18255804       2.60258318
Si       3.79365351       2.88361645       2.78732712
Si       3.41626630       6.30277856       1.03634730
Si       5.33592771       4.57196280      -0.93830719
Si       1.87399210       4.61443221       4.76198161
Si       0.77347274       4.79380086       2.72871734
Si       6.43644707       4.39259414       1.09495708
Si       7.72244180       6.48386819       0.49658640
Si      -0.51252200       2.70252682       3.32708802
Si       1.28778127       1.74867841       2.12978137
Si       5.92213854       7.43771659       1.69389305
Si       5.03534303       6.97373573      -0.61572350
Si       2.17457678       2.21265928       4.43939793
16
Lattice="7.934268851627111 -0.23932972146583187 -1.238147817087632 0.641407845446044 8.193155251383422 -0.5524637000520475 -1.4074267040662893 1.2690319359321818 5.599766138665661" Properties=species:S:1:pos:R:3 unique_starting_index=30 config_type=initial n_minim_iter=11 stress="4.861785220327306e-05 -0.00028619894366946623 -0.0002893915260553027 -0.00028619894366946623 -0.0006705426092365944 -0.0008958094872346528 -0.0002893915260553027 -0.0008958094872346528 -2.8106351274578417e-05" pbc="T T T"
Si       1.83019762       7.65474201       2.20419398
Si       5.33805238       1.56811545       1.60496064
Si       2.36188289       4.05652526       1.24648605
Si       4.80636711       5.16633221       2.56266858
Si       3.76787006       2.87729517       2.76169900
Si       3.40037993       6.34556230       1.04745562
Si       5.30005780       4.61126909      -0.99412260
Si       1.86819220       4.61158838       4.80327722
Si       0.73930819       4.83375167       2.76860672
Si       6.42894180       4.38910580       1.04054791
Si       7.67853794       6.48575200       0.46828547
Si      -0.51028795       2.73710546       3.34086915
Si       1.25284761       1.72920044       2.14129444
Si       5.91540238       7.49365703       1.66786018
Si       4.98960239       7.00746151      -0.63121376
Si       2.17864761       2.21539596       4.44036838
16
Lattice="7.8758294654656185 -0.22675054108326065 -1.2147430797460268 0.6616334583249919 8.257266037768304 -0.4880432818836923 -1.3742305474635654 1.3182466800456085 5.608687520494926" Properties=species:S:1:pos:R:3 unique_starting_index=30 config_type=initial n_minim_iter=12 stress="-0.0003263456788471017 0.0007387386910408343 0.0005540490640613181 0.0007387386910408343 0.0011474704274845374 0.0013305197336153454 0.0005540490640613181 0.0013305197336153454 -0.000245758989809502" pbc="T T T"
Si       1.85190465       7.75552935       2.27559430
Si       5.31132773       1.59323282       1.63030686
Si       2.35616203       4.12083573       1.29197171
Si       4.80707035       5.22792645       2.61392945
Si       3.76963426       2.92637335       2.79312784
Si       3.39359812       6.42238883       1.11277332
Si       5.26864988       4.68234845      -0.95678911
Si       1.89458250       4.66641373       4.86269027
Si       0.75324967       4.89761818       2.82491736
Si       6.40998270       4.45114400       1.08098380
Si       7.65663638       6.55211092       0.54509689
Si      -0.49340400       2.79665126       3.36080427
Si       1.25739262       1.76006339       2.17906647
Si       5.90583976       7.58869878       1.72683469
Si       4.98131941       7.07923786      -0.57237455
Si       2.18191297       2.26952431       4.47827571
16
Lattice="7.843753769293314 -0.25533296070567607 -1.1917708585008535 0.6217495989448572 8.27070752661475 -0.5215872346137307 -1.3563461020074605 1.303098679553169 5.612524072966163" Properties=species:S:1:pos:R:3 unique_starting_index=30 config_type=initial n_minim_iter=13 stress="0.002127472031856821 0.0002436159539925504 0.0014520304909498552 0.0002436159539925504 0.0038043210322810665 -0.0008694233954287797 0.0014520304909498552 -0.0008694233954287797 0.0029036472606063183" pbc="T T T"
Si       1.81510159       7.75167704       2.27839141
Si       5.29405568       1.56679620       1.62077457
Si       2.32241197       4.14480476       1.31230794
Si       4.78674530       5.17366849       2.58685804
Si       3.74141351       2.89384265       2.78130280
Si       3.36774376       6.42463059       1.11786318
Si       5.21537590       4.69033395      -0.99172565
Si       1.89378137       4.62813929       4.89089163
Si       0.74219712       4.90218938       2.87628609
Si       6.36696015       4.41628386       1.02287989
Si       7.60938198       6.51036974       0.53106573
Si      -0.50022471       2.80810351       3.36810025
Si       1.23905358       1.74454518       2.20495902
Si       5.87010369       7.57392806       1.69420696
Si       4.92678501       7.07097883      -0.60352180
Si       2.18237225       2.24749442       4.50268778
16
Lattice="7.798604321706866 -0.28049905891055543 -1.1933526306766822 0.5905422016461219 8.267237170779687 -0.5242382726778151 -1.3512302945191756 1.3063575437863622 5.625937497142094" Properties=species:S:1:pos:R:3 unique_starting_index=30 config_type=initial n_minim_iter=14 stress="0.0005350197563414445 -0.0004540930650972122 6.583425748098161e-05 -0.0004540930650972122 0.0006552777956822662 -0.0005259677208116514 6.583425748098161e-05 -0.0005259677208116514 0.0022238720739832" pbc="T T T"
Si       1.78300182       7.75296450       2.29164420
Si       5.25491441       1.54013115       1.61670239
Si       2.30510578       4.15241500       1.32260515
Si       4.73281045       5.14068065       2.58574144
Si       3.70576251       2.87300288       2.78127666
Si       3.33215372       6.42009278       1.12706994
Si       5.15601733       4.69325176      -1.00113678
Si       1.88189890       4.59984389       4.90948338
Si       0.73077947       4.89929100       2.91582278
Si       6.30713676       4.39380466       0.99252382
Si       7.55064054       6.47528642       0.53895700
Si      -0.51272431       2.81780923       3.36938959
Si       1.23363613       1.75165321       2.23241449
Si       5.80428010       7.54144245       1.67593211
Si       4.87716251       7.05455882      -0.62114376
Si       2.16075372       2.23853684       4.52949036
16
Lattice="7.78644071672487 -0.299959280651259 -1.1468503830290642 0.5664413157002833 8.259984973411479 -0.5218471583634205 -1.3264815773043697 1.3066152480729365 5.578966309499833" Properties=species:S:1:pos:R:3 unique_starting_index=30 config_type=initial n_minim_iter=15 stress="-0.001014663168012821 7.32448756749909e-05 -0.0005102362319448404 7.32448756749909e-05 -0.004154192632968265 0.0004716128820838459 -0.0005102362319448404 0.0004716128820838459 -0.0038482041047549443" pbc="T T T"
Si       1.77903955       7.75344199       2.30631319
Si       5.24736090       1.51319895       1.60395557
Si       2.31597403       4.18370511       1.34209059
Si       4.71042643       5.08293583       2.56817818
Si       3.68822115       2.83957815       2.76288003
Si       3.33817930       6.42706279       1.14738874
Si       5.11541900       4.69236994      -1.00523907
Si       1.91098146       4.57427100       4.91550784
Si       0.74153503       4.90269082       2.96696016
Si       6.28486543       4.36395012       0.94330861
Si       7.54489704       6.42777182       0.57296777
Si      -0.51849658       2.83886912       3.33730100
Si       1.24711035       1.75682326       2.26118888
Si       5.77929010       7.50981768       1.64907989
Si       4.84918796       7.04270315      -0.62731139
Si       2.17721250       2.22393779       4.53758015
16
Lattice="7.679142683011478 -0.3112580434060812 -1.1586043216796897 0.5460816570471966 8.3337643260174 -0.5330287537921115 -1.311876411536911 1.3150776977238305 5.608867003572849" Properties=species:S:1:pos:R:3 unique_starting_index=30 config_type=initial n_minim_iter=16 stress="-0.003829245096708592 -0.0003259111579482583 -0.0031651346925733632 -0.0003259111579482583 -0.003410158556611687 0.0016371598049840458 -0.0031651346925733632 0.0016371598049840458 -0.00434303122093947" pbc="T T T"
Si       1.76140888       7.84265568       2.32347492
Si       5.15193905       1.49492830       1.59375901
Si       2.32995356       4.25086822       1.34283238
Si       4.58339437       5.08671576       2.57440155
Si       3.61266743       2.82727798       2.77197217
Si       3.30068050       6.51030600       1.14526176
Si       5.01693809       4.73405350      -1.04305314
Si       1.89640984       4.60353048       4.96028707
Si       0.72224940       4.94700874       3.00911317
Si       6.19109852       4.39057524       0.90812076
Si       7.45306449       6.45600424       0.59817662
Si      -0.53971656       2.88157974       3.31905731
Si       1.26498309       1.79719211       2.31275318
Si       5.64836484       7.54039187       1.60448075
Si       4.77345504       7.11159338      -0.67936140
Si       2.13989289       2.22599060       4.59659533
16
Lattice="7.6006582115465005 -0.3307351592341542 -1.1225633496066862 0.5141064017079043 8.39941954066778 -0.5590085867322941 -1.2746332504711133 1.3106931291022599 5.6084993038235" Properties=species:S:1:pos:R:3 unique_starting_index=30 config_type=initial n_minim_iter=17 stress="-0.004756131170851613 -0.0011856778489439674 -0.003658531192627197 -0.0011856778489439674 -0.002083124773001585 0.0010674104305672307 -0.003658531192627197 0.0010674104305672307 -0.0035630298385193105" pbc="T T T"
Si       1.74902266       7.90793920       2.34684217
Si       5.09110870       1.47143831       1.58008520
Si       2.33887704       4.33801119       1.36897581
Si       4.50125433       5.04136632       2.55795156
Si       3.55397665       2.78862610       2.76941078
Si       3.28615472       6.59075141       1.15751659
Si       4.93192060       4.76642735      -1.09683847
Si       1.90821076       4.61295017       5.02376584
Si       0.70399570       4.99286131       3.07514393
Si       6.13613566       4.38651620       0.85178344
Si       7.39384639       6.44672508       0.63199412
Si      -0.55371503       2.93265243       3.29493324
Si       1.27946580       1.81134650       2.36885986
Si       5.56066556       7.56803101       1.55806751
Si       4.69896939       7.16151009      -0.72792848
Si       2.14116197       2.21786742       4.65485585
16
Lattice="7.61839198461267 -0.3109616628368828 -1.0409586407522542 0.5332695205184294 8.447559518593295 -0.5621095839456904 -1.2169346680787068 1.3079734463117372 5.595328336562743" Properties=species:S:1:pos:R:3 unique_starting_index=30 config_type=initial n_minim_iter=18 stress="-0.0007508113666507791 0.000544840454249073 -0.00010655189347316731 0.000544840454249073 0.0016106112304904857 0.0005641999642965322 -0.00010655189347316731 0.0005641999642965322 -0.0006975357372276278" pbc="T T T"
Si       1.82196569       7.96099451       2.39089142
Si       5.11276115       1.48357679       1.60136869
Si       2.41669099       4.42359385       1.41720199
Si       4.51803585       5.02097746       2.57505812
Si       3.57040293       2.76679137       2.79723791
Si       3.36432390       6.67777993       1.19502220
Si       4.94900757       4.78408543      -1.10143651
Si       1.98571927       4.66048587       5.09369662
Si       0.73163071       5.03802288       3.11899425
Si       6.20309613       4.40654843       0.87326587
Si       7.47181827       6.47412790       0.73029714
Si      -0.53709144       2.97044340       3.26196297
Si       1.33335830       1.82328372       2.41332327
Si       5.60136853       7.62128758       1.57893685
Si       4.72103646       7.20554583      -0.72581494
Si       2.21369038       2.23902547       4.71807505
16
Lattice="7.6651800313731835 -0.30526321203572904 -1.0517917833513437 0.5409320204036575 8.423723370096544 -0.5753913774271426 -1.2322742079216726 1.2949630308953906 5.598866476228614" Properties=species:S:1:pos:R:3 unique_starting_index=30 config_type=initial n_minim_iter=19 stress="0.0037986934061138905 0.001022947886111351 0.0014846106502683083 0.001022947886111351 0.002293227110586568 0.00025748495895893574 0.0014846106502683083 0.00025748495895893574 0.0018355996529604995" pbc="T T T"
Si       1.83015800       7.92743667       2.36995474
Si       5.14367985       1.48598652       1.60172858
Si       2.41400685       4.39590442       1.40771608
Si       4.55983099       5.01751877       2.56396724
Si       3.59468629       2.76368274       2.79840716
Si       3.37915155       6.64974045       1.17327616
Si       5.00052525       4.75361664      -1.09875164
Si       1.97331259       4.65980655       5.07043495
Si       0.72796016       5.01319366       3.07429954
Si       6.24587769       4.40022953       0.89738377
Si       7.50883228       6.47327640       0.71013320
Si      -0.53499444       2.94014679       3.26155011
Si       1.32614969       1.79670082       2.38567487
Si       5.64768815       7.61672237       1.58600844
Si       4.75190601       7.17415625      -0.72998147
Si       2.22193183       2.23926694       4.70166479
16
Lattice="7.581876662155451 -0.3501151441877897 -1.110019866571294 0.4696552634920922 8.461964122223009 -0.694010930018402 -1.2593747519762453 1.2372370756316895 5.656148371317765" Properties=species:S:1:pos:R:3 unique_starting_index=30 config_type=initial n_minim_iter=20 stress="0.002038583756152257 -0.0028090712872312026 0.002168764863704099 -0.0028090712872312026 0.001824399231232817 -0.0027718335570914546 0.002168764863704099 -0.0027718335570914546 0.0112819052415551" pbc="T T T"
Si       1.75637776       7.93226689       2.30456582
Si       5.03577941       1.41681917       1.54755175
Si       2.33006895       4.43113107       1.40418094
Si       4.46208822       4.91795499       2.44793664
Si       3.49408601       2.67791055       2.78581398
Si       3.29807117       6.67117550       1.06630360
Si       4.95593476       4.69701301      -1.18967335
Si       1.83622242       4.65207304       5.04179093
Si       0.65287340       4.97564401       2.99679851
Si       6.13928378       4.37344205       0.85531907
Si       7.36544553       6.46202777       0.63750141
Si      -0.57328835       2.88705828       3.21461616
Si       1.27188132       1.70833684       2.37235325
Si       5.52027586       7.64074921       1.47976433
Si       4.63514960       7.10841608      -0.89792822
Si       2.15700758       2.24066997       4.75004580
16
Lattice="7.623994350459092 -0.3383618396360942 -1.0768844476211483 0.48577494681842054 8.518188654352173 -0.693711555921662 -1.2522890128834783 1.2400951100205837 5.589084269170975" Properties=species:S:1:pos:R:3 unique_starting_index=30 config_type=initial n_minim_iter=21 stress="0.00042750159010922196 -0.0011994849033813504 0.0022438897121690757 -0.0011994849033813504 -0.0006505539001633856 -0.0018228686304316284 0.0022438897121690757 -0.0018228686304316284 0.004614474971206366" pbc="T T T"
Si       1.82766072       8.01557340       2.29177054
Si       5.02981957       1.40434853       1.52671773
Si       2.39832378       4.50261937       1.40851076
Si       4.45915650       4.91730256       2.40997750
Si       3.49807828       2.66283359       2.77731843
Si       3.35940201       6.75708833       1.04116984
Si       5.00850336       4.71092189      -1.14087315
Si       1.84897692       4.70900004       4.95936142
Si       0.68584358       4.99056024       2.93976523
Si       6.17163671       4.42936168       0.87872304
Si       7.43272061       6.53711421       0.71891503
Si      -0.57524032       2.88280772       3.09957323
Si       1.32082816       1.72170983       2.36433108
Si       5.53665212       7.69821209       1.45415718
Si       4.67199232       7.11426148      -0.93647353
Si       2.18548797       2.30566044       4.75496179
