16
Lattice="7.387774016025368 -0.25570212880614407 -0.14670172162609038 0.4605066589362966 8.39864234759084 -0.7537886042963767 -0.5462396058393179 1.1324921149457043 5.419974296216267" Properties=species:S:1:pos:R:3 unique_starting_index=30 config_type=initial n_minim_iter=1 energy=-2605.3800642052865 free_energy=-2605.3800642052865 pbc="T T T"
Si       2.01987216       7.95673088       2.43760654
Si       5.28216891       1.31870145       2.08187743
Si       2.54168966       4.56179391       1.84336039
Si       4.76035141       4.71363843       2.67612358
Si       3.65001510       2.62964200       3.19730468
Si       3.65202597       6.64579034       1.32217929
Si       4.89151463       4.70605758      -0.74199712
Si       2.41052644       4.56937476       5.26148109
Si       0.82828076       4.63230487       3.51287183
Si       6.47376030       4.64312746       1.00661214
Si       7.36954073       6.42052733       2.37519080
Si      -0.06749966       2.85490500       2.14429317
Si       1.92300284       1.56062720       1.91506850
Si       5.37903823       7.71480513       2.60441547
Si       4.08569051       6.96860681      -1.08788331
Si       3.21635056       2.30682552       5.60736728
16
Lattice="7.382642554264084 -0.2599576107652605 -0.14600610995448435 0.4545774197751972 8.378371796486258 -0.7537406736126788 -0.5459745052584384 1.1305844211304354 5.424694072364338" Properties=species:S:1:pos:R:3 unique_starting_index=30 config_type=initial n_minim_iter=2 stress="-0.0008680467646526549 3.154586552088131e-05 3.624076791210374e-05 3.154586552088131e-05 -0.0006675828342490224 0.0002344581452192545 3.624076791210374e-05 0.0002344581452192545 -0.0011502303392576102" pbc="T T T"
Si       2.01404347       7.93662084       2.44051944
Si       5.27720200       1.31237777       2.08442785
Si       2.53705951       4.54948790       1.84573452
Si       4.75418595       4.69951070       2.67921277
Si       3.64589429       2.62097883       3.20086372
Si       3.64535118       6.62801978       1.32408357
Si       4.88457773       4.69148894      -0.74184577
Si       2.40666774       4.55750967       5.26679306
Si       0.82486966       4.62086929       3.51635914
Si       6.46637581       4.62812932       1.00858815
Si       7.36057939       6.40056324       2.37831553
Si      -0.06933393       2.84843537       2.14663175
Si       1.92059272       1.55575974       1.91700151
Si       5.37065275       7.69323887       2.60794578
Si       4.07808724       6.94948431      -1.08765668
Si       3.21315823       2.29951430       5.61260396
16
Lattice="7.387549672447834 -0.26323329438858345 -0.14603195232176241 0.45088548558888114 8.372474537119603 -0.757388747786852 -0.5467086811625111 1.1286887277433355 5.435539345978587" Properties=species:S:1:pos:R:3 unique_starting_index=30 config_type=initial n_minim_iter=3 stress="0.0004698849010610632 -0.0002241637133041662 0.0001635062831452198 -0.0002241637133041662 -0.00020391520269014146 0.0001695493010440993 0.0001635062831452198 0.0001695493010440993 0.0007876245215928661" pbc="T T T"
Si       2.01258183       7.92928893       2.44358933
Si       5.27914464       1.30864104       2.08852931
Si       2.53649550       4.54463525       1.84864857
Si       4.75523098       4.69329472       2.68347007
Si       3.64685873       2.61610666       3.20721481
Si       3.64486775       6.62182331       1.32490383
Si       4.88520542       4.68583833      -0.74461255
Si       2.40652106       4.55209164       5.27673119
Si       0.82305979       4.61604412       3.52250794
Si       6.46866668       4.62188585       1.00961071
Si       7.36277072       6.39190323       2.38134969
Si      -0.07104424       2.84602674       2.15076896
Si       1.92076193       1.55321419       1.92041929
Si       5.37096454       7.68471578       2.61169936
Si       4.07738718       6.94327368      -1.09127073
Si       3.21433930       2.29465629       5.62338938
16
Lattice="7.381670071718906 -0.262233859438775 -0.15128483389368413 0.4518679162091148 8.370333539214696 -0.769934139368031 -0.5502066681574835 1.1206413486219997 5.43787302451452" Properties=species:S:1:pos:R:3 unique_starting_index=30 config_type=initial n_minim_iter=4 stress="-0.00028742857710912443 3.1434909461702925e-05 -0.00018419918166108766 3.1434909461702925e-05 -0.00025563316347888956 -0.0008926703100772745 -0.00018419918166108766 -0.0008926703100772745 0.0005963669748275016" pbc="T T T"
Si       2.01419256       7.92209849       2.43275389
Si       5.26913876       1.30664254       2.08390016
Si       2.53293329       4.54025581       1.84240088
Si       4.75039803       4.68848521       2.67425317
Si       3.64058860       2.60859196       3.20437152
Si       3.64274272       6.62014907       1.31228253
Si       4.88144977       4.68451135      -0.75616292
Si       2.40188155       4.54422968       5.27281697
Si       0.81939686       4.60814022       3.51806290
Si       6.46393446       4.62060080       0.99859115
Si       7.35721089       6.38651764       2.36650170
Si      -0.07387957       2.84222339       2.15015235
Si       1.91624329       1.54993228       1.91711448
Si       5.36708803       7.67880875       2.59953957
Si       4.07531150       6.94398874      -1.10381300
Si       3.20801982       2.28475229       5.62046705
16
Lattice="7.385544237924095 -0.26695439824945 -0.15677396155201082 0.4475661808017129 8.36554628698917 -0.7483375457452673 -0.5547319954027767 1.1345917228497582 5.439331026453492" Properties=species:S:1:pos:R:3 unique_starting_index=30 config_type=initial n_minim_iter=5 stress="0.00018154049615280978 -2.6356776788637797e-05 -9.616705501598878e-05 -2.6356776788637797e-05 -0.00032407948846663385 -4.920794622370881e-05 -9.616705501598878e-05 -4.920794622370881e-05 -0.00018544785360156076" pbc="T T T"
Si       2.02448796       7.92188828       2.45157977
Si       5.25389046       1.31129533       2.08263975
Si       2.52801153       4.54120349       1.85512028
Si       4.75036690       4.69198012       2.67909923
Si       3.63412435       2.60551805       3.21360217
Si       3.64425408       6.62766557       1.32061735
Si       4.87873404       4.67486470      -0.75012713
Si       2.39964439       4.55831891       5.28434665
Si       0.81193741       4.61110739       3.52976288
Si       6.46644101       4.62207622       1.00445664
Si       7.36184263       6.38534340       2.37045263
Si      -0.08346421       2.84784021       2.16376689
Si       1.90842097       1.55189348       1.91558025
Si       5.36995745       7.68129013       2.61863927
Si       4.07336091       6.94212700      -1.08455946
Si       3.20501752       2.29105661       5.61877898
16
Lattice="7.375118418291556 -0.26765433559491564 -0.1543094936155143 0.44617354777903445 8.372091637878968 -0.7444163073259403 -0.5520422504529624 1.1383464900263505 5.44377167603095" Properties=species:S:1:pos:R:3 unique_starting_index=30 config_type=initial n_minim_iter=6 stress="-0.0005811825513137327 7.9120697321124e-05 0.0001749317544586064 7.9120697321124e-05 0.00027648196832547495 6.672625951534809e-05 0.0001749317544586064 6.672625951534809e-05 0.0002958319125184586" pbc="T T T"
Si       2.02409937       7.92876793       2.45822533
Si       5.24515035       1.31401586       2.08682055
Si       2.52477120       4.54556537       1.86030353
Si       4.74447852       4.69721843       2.68474235
Si       3.62860237       2.60845060       3.21931059
Si       3.64064734       6.63433319       1.32573528
Si       4.87200327       4.67813696      -0.74744954
Si       2.39724645       4.56464683       5.29249542
Si       0.81156064       4.61616763       3.53589853
Si       6.45768908       4.62661616       1.00914735
Si       7.35399349       6.39193056       2.37685523
Si      -0.08474377       2.85085323       2.16819065
Si       1.90485423       1.55444169       1.91739115
Si       5.36439549       7.68834210       2.62765473
Si       4.06773331       6.94770477      -1.07939067
Si       3.20151641       2.29507902       5.62443655
16
Lattice="7.377044426500429 -0.27225350234834755 -0.15742356820430314 0.4414918471874537 8.37256638431428 -0.7397556704043644 -0.5550617539503885 1.141848968256263 5.4433339555858575" Properties=species:S:1:pos:R:3 unique_starting_index=30 config_type=initial n_minim_iter=7 stress="-0.0002323379234198877 -4.138102260814015e-05 -0.00010989655518144733 -4.138102260814015e-05 0.0006942874347851526 -2.9623000406213343e-07 -0.00010989655518144733 -2.9623000406213343e-07 0.00020287871414353947" pbc="T T T"
Si       2.02391659       7.92768845       2.46112914
Si       5.23955793       1.31447340       2.08502558
Si       2.52186204       4.54492306       1.86242488
Si       4.74161248       4.69723879       2.68372983
Si       3.62191246       2.60735240       3.21979759
Si       3.64156206       6.63480945       1.32635713
Si       4.87370596       4.67610562      -0.74995598
Si       2.38976856       4.56605623       5.29611070
Si       0.80671553       4.61694877       3.53997828
Si       6.45675899       4.62521308       1.00617644
Si       7.35718432       6.39099544       2.37285897
Si      -0.09370980       2.85116641       2.17329574
Si       1.89918025       1.55601829       1.91363403
Si       5.36429427       7.68614356       2.63252069
Si       4.06832168       6.94674833      -1.07433778
Si       3.19515284       2.29541352       5.62049250
16
Lattice="7.38128400035607 -0.26873468199315237 -0.15177995875420144 0.4449801159774706 8.365762403811102 -0.7379918419075411 -0.5507288615081986 1.1415076085587013 5.4422452518542075" Properties=species:S:1:pos:R:3 unique_starting_index=30 config_type=initial n_minim_iter=8 stress="0.00012155497889888314 0.0006195451024359427 0.0005313071625725521 0.0006195451024359427 6.871602211504796e-05 -0.00011407825734166862 0.0005313071625725521 -0.00011407825734166862 0.00010818770462104662" pbc="T T T"
Si       2.03332677       7.92112889       2.46318060
Si       5.24220849       1.31740644       2.08929285
Si       2.52688317       4.54215482       1.86539343
Si       4.74865208       4.69638051       2.68708002
Si       3.62441010       2.60776192       3.22240410
Si       3.65112515       6.63077341       1.33006935
Si       4.88094042       4.67525886      -0.74770241
Si       2.39459484       4.56327647       5.30017586
Si       0.81149632       4.61365379       3.54243758
Si       6.46403893       4.62488154       1.01003587
Si       7.37062297       6.39034161       2.37670668
Si      -0.09508772       2.84819372       2.17576677
Si       1.89925021       1.55732645       1.91273414
Si       5.37628504       7.68120888       2.63973931
Si       4.07629591       6.94278668      -1.06847047
Si       3.19923934       2.29574865       5.62094392
16
Lattice="7.3814669552094845 -0.2774394874894614 -0.15690163201100704 0.4356427171400157 8.36481356593485 -0.7351039101492929 -0.5557392498245842 1.1441425282525108 5.442436299307388" Properties=species:S:1:pos:R:3 unique_starting_index=30 config_type=initial n_minim_iter=9 stress="-2.067010249978284e-06 -0.00010368856891025773 -0.00014208986871877983 -0.00010368856891025773 -1.4161443086686245e-05 4.298367768225972e-05 -0.00014208986871877983 4.298367768225972e-05 -5.034169054298497e-06" pbc="T T T"
Si       2.02417483       7.91872871       2.46411102
Si       5.23719560       1.31278790       2.08631974
Si       2.52025890       4.53952270       1.86578864
Si       4.74111152       4.69199391       2.68464211
Si       3.61583001       2.60586733       3.21965059
Si       3.64554042       6.62564928       1.33078016
Si       4.87836395       4.67000584      -0.75097777
Si       2.38300647       4.56151077       5.30140852
Si       0.80319974       4.61391654       3.54448195
Si       6.45817068       4.61760006       1.00594880
Si       7.36487078       6.38317433       2.37189035
Si      -0.10350036       2.84834228       2.17854041
Si       1.89319863       1.55728943       1.91001094
Si       5.36817179       7.67422718       2.64041982
Si       4.07188692       6.93716715      -1.06768282
Si       3.18948351       2.29434946       5.61811358
16
Lattice="7.384952686280691 -0.28353412920982535 -0.15166805763180724 0.42849220187722603 8.369094175931203 -0.737792559884596 -0.5532233536635482 1.1429095022024514 5.437954409962006" Properties=species:S:1:pos:R:3 unique_starting_index=30 config_type=initial n_minim_iter=10 stress="0.00017327350279148452 -0.000307819106007557 0.00018340502001836003 -0.000307819106007557 -0.0002564223740620611 -8.918529161516475e-05 0.00018340502001836003 -8.918529161516475e-05 -0.0002397836266978806" pbc="T T T"
Si       2.02469819       7.92193708       2.45877036
Si       5.23552334       1.30653246       2.08972343
Si       2.51711029       4.53961480       1.86626603
Si       4.74311125       4.68885475       2.68222776
Si       3.61317038       2.60722120       3.21345654
Si       3.64705116       6.62124835       1.33503726
Si       4.87718419       4.66814195      -0.74930562
Si       2.38303734       4.56032759       5.29779942
Si       0.80038893       4.61591656       3.53908747
Si       6.45983261       4.61255299       1.00940633
Si       7.36625756       6.37781760       2.37140999
Si      -0.10603603       2.85065195       2.17708380
Si       1.88837693       1.55797269       1.90881974
Si       5.37184461       7.67049686       2.63967405
Si       4.07271936       6.93578124      -1.06890903
Si       3.18750217       2.29268831       5.61740282
16
Lattice="7.383310227378524 -0.279833071067726 -0.15661789474843651 0.43320790066358117 8.370427816027856 -0.7348009715698752 -0.5560297168298406 1.1451348156679164 5.440937336145034" Properties=species:S:1:pos:R:3 unique_starting_index=30 config_type=initial n_minim_iter=11 stress="4.261031276774203e-05 0.00015302792723019128 -0.00019085728647619173 0.00015302792723019128 -0.0003689080800719604 0.00015837991489617368 -0.00019085728647619173 0.00015837991489617368 5.5593917744793085e-05" pbc="T T T"
Si       2.03052841       7.92592288       2.46078804
Si       5.22996000       1.30980668       2.08873043
Si       2.51683152       4.54274330       1.86842876
Si       4.74365690       4.69298626       2.68108971
Si       3.60877422       2.61244938       3.21138971
Si       3.65171419       6.62328018       1.33812876
Si       4.87950870       4.67047465      -0.75097308
Si       2.38097972       4.56525492       5.30049155
Si       0.79914724       4.61928481       3.54162856
Si       6.46134117       4.61644475       1.00788991
Si       7.36823863       6.38294936       2.36908518
Si      -0.10775022       2.85278020       2.18043329
Si       1.88380156       1.56104701       1.90835318
Si       5.37668685       7.67468255       2.64116529
Si       4.07922029       6.93788462      -1.06951951
Si       3.18126812       2.29784494       5.61903798
16
Lattice="7.381604959488632 -0.2845305595007196 -0.1536453238093427 0.4276569342624502 8.376766306220176 -0.735834007702215 -0.5544667798629896 1.1454422611868031 5.439200044369264" Properties=species:S:1:pos:R:3 unique_starting_index=30 config_type=initial n_minim_iter=12 stress="-1.2668283858939432e-05 -2.3318201951005482e-05 5.577966313359849e-05 -2.3318201951005482e-05 5.405933716278936e-05 -1.815872881890327e-05 5.577966313359849e-05 -1.815872881890327e-05 8.45117339387717e-06" pbc="T T T"
Si       2.03046688       7.93046772       2.45857390
Si       5.22432824       1.30721029       2.09114681
Si       2.51334276       4.54451871       1.86903531
Si       4.74145235       4.69315930       2.68068540
Si       3.60448861       2.61242940       3.21054076
Si       3.65030650       6.62524861       1.33917995
Si       4.87547211       4.67005896      -0.74994205
Si       2.37932300       4.56761905       5.29966276
Si       0.79641183       4.62204781       3.54057034
Si       6.45838329       4.61563020       1.00915037
Si       7.36606269       6.38257027       2.36873608
Si      -0.11126757       2.85510774       2.18098463
Si       1.87933861       1.56141765       1.90743382
Si       5.37545651       7.67626036       2.64228690
Si       4.07671180       6.94060225      -1.06876569
Si       3.17808332       2.29707575       5.61848640
16
Lattice="7.378444098380609 -0.28673776342318014 -0.153708345988195 0.4251948908291372 8.385423236140207 -0.7389492226188378 -0.5546870494390137 1.1445909461082928 5.43718925221767" Properties=species:S:1:pos:R:3 unique_starting_index=30 config_type=initial n_minim_iter=13 stress="-7.838489733293188e-05 -6.007700527767476e-05 0.0001169452348508214 -6.007700527767476e-05 0.0005471276963145282 -0.00010080111642010087 0.0001169452348508214 -0.00010080111642010087 -6.498645208066551e-06" pbc="T T T"
Si       2.03381613       7.93688175       2.45151115
Si       5.21513581       1.30639467       2.09302054
Si       2.51086769       4.54832169       1.86555651
Si       4.73808425       4.69495473       2.67897517
Si       3.59732275       2.61348407       3.20944897
Si       3.65162919       6.62979235       1.33508272
Si       4.87175975       4.66942808      -0.74946299
Si       2.37719219       4.57384834       5.29399467
Si       0.79339987       4.62636538       3.53981504
Si       6.45555207       4.61691104       1.00471665
Si       7.36647002       6.38622558       2.36428819
Si      -0.11751808       2.85705084       2.18024350
Si       1.87249645       1.56074287       1.90579027
Si       5.37645549       7.68253355       2.63874142
Si       4.08000614       6.94520039      -1.07114376
Si       3.16894580       2.29807603       5.61567545
16
Lattice="7.380630347739948 -0.2832210308274137 -0.15553804938670762 0.4292771241737762 8.380710802335496 -0.7427540482903884 -0.5557705390020753 1.141276525117173 5.436994420866985" Properties=species:S:1:pos:R:3 unique_starting_index=30 config_type=initial n_minim_iter=14 stress="1.097747832612272e-05 2.4198227059172802e-05 -3.962570815035865e-05 2.4198227059172802e-05 -0.0001248474389408716 3.724485906377677e-05 -3.962570815035865e-05 3.724485906377677e-05 3.5858765052445135e-06" pbc="T T T"
Si       2.03459818       7.93222183       2.44674049
Si       5.21953875       1.30654446       2.09196183
Si       2.51394191       4.54658286       1.86107080
Si       4.74019503       4.69218344       2.67763153
Si       3.59930837       2.61334019       3.20830174
Si       3.65482856       6.62542611       1.33040058
Si       4.87510453       4.66792100      -0.75043775
Si       2.37903240       4.57084530       5.28914007
Si       0.79528333       4.62362973       3.53754576
Si       6.45885361       4.61513657       1.00115656
Si       7.37031557       6.38480197       2.36196409
Si      -0.11617864       2.85396433       2.17673824
Si       1.87459805       1.55862761       1.90624615
Si       5.37953888       7.68013869       2.63245618
Si       4.08639191       6.94088224      -1.07649795
Si       3.16774503       2.29788405       5.61520027
16
Lattice="7.38004186831715 -0.2847058845985552 -0.1552473059375529 0.42760022579499296 8.384671838318434 -0.745756590078248 -0.5558169153897154 1.1398639928049754 5.435650753242162" Properties=species:S:1:pos:R:3 unique_starting_index=30 config_type=initial n_minim_iter=15 stress="4.5563110767369293e-05 -2.765224363361453e-05 4.91197955548411e-05 -2.765224363361453e-05 -4.170204757303781e-05 -5.1454300994223814e-05 4.91197955548411e-05 -5.1454300994223814e-05 -1.8967295308076406e-06" pbc="T T T"
Si       2.03491479       7.93355830       2.44306951
Si       5.21691039       1.30627165       2.09157734
Si       2.51225684       4.54895446       1.85894849
Si       4.73956834       4.69087549       2.67569836
Si       3.59555067       2.61346102       3.20864170
Si       3.65627451       6.62636893       1.32600516
Si       4.87375009       4.66817279      -0.75135951
Si       2.37807509       4.57165716       5.28600637
Si       0.79364170       4.62473615       3.53336633
Si       6.45818348       4.61509380       1.00128053
Si       7.36997949       6.38528457       2.35960252
Si      -0.11815431       2.85454538       2.17504433
Si       1.87218138       1.55787687       1.90586235
Si       5.37964380       7.68195308       2.62878451
Si       4.08939699       6.94074248      -1.08080483
Si       3.16242819       2.29908747       5.61545168
16
Lattice="7.379087997028282 -0.2849657473289693 -0.1563094364958268 0.4274147893932795 8.386581258215482 -0.7460092705571217 -0.5565611923372825 1.140007968622008 5.4356139828794605" Properties=species:S:1:pos:R:3 unique_starting_index=30 config_type=initial n_minim_iter=16 stress="9.534735386774066e-06 -9.842690920381404e-06 2.0870031760890598e-05 -9.842690920381404e-06 2.1609821631772983e-06 -3.367481289893053e-05 2.0870031760890598e-05 -3.367481289893053e-05 -7.4256085952914205e-06" pbc="T T T"
Si       2.03541368       7.93391918       2.44261463
Si       5.21452791       1.30770430       2.09068065
Si       2.51146462       4.55104345       1.85821486
Si       4.73847698       4.69058003       2.67508041
Si       3.59267681       2.61367534       3.21029023
Si       3.65726478       6.62794814       1.32300504
Si       4.87323138       4.66838830      -0.75209353
Si       2.37671022       4.57323517       5.28538881
Si       0.79266139       4.62549313       3.53185784
Si       6.45728021       4.61613035       1.00143744
Si       7.36935129       6.38674299       2.35848480
Si      -0.11940970       2.85488049       2.17481047
Si       1.87070135       1.55756667       1.90604976
Si       5.37924024       7.68405681       2.62724551
Si       4.09166021       6.94049386      -1.08290541
Si       3.15828139       2.30112962       5.61620069
16
Lattice="7.37819400770562 -0.28547491921746654 -0.15756839768239203 0.4270011832877124 8.38861329891741 -0.7448925525620339 -0.5574489624305141 1.1411202872915946 5.436082763785752" Properties=species:S:1:pos:R:3 unique_starting_index=30 config_type=initial n_minim_iter=17 stress="-4.425496206772075e-05 3.116542623513666e-05 -4.94267211456287e-05 3.116542623513666e-05 4.501121790541091e-05 2.715263603571372e-05 -4.94267211456287e-05 2.715263603571372e-05 8.942153065710258e-06" pbc="T T T"
Si       2.03624615       7.93384804       2.44341918
Si       5.21150007       1.31041062       2.09020263
Si       2.51127342       4.55413391       1.85811873
Si       4.73647281       4.69012476       2.67550308
Si       3.58940847       2.61408932       3.21322272
Si       3.65833776       6.63016935       1.32039910
Si       4.87325075       4.66817173      -0.75254247
Si       2.37449548       4.57608694       5.28616428
Si       0.79199556       4.62641151       3.53120644
Si       6.45575067       4.61784716       1.00241538
Si       7.36813269       6.38891808       2.35859324
Si      -0.12038646       2.85534059       2.17502857
Si       1.86901583       1.55722975       1.90757963
Si       5.37873039       7.68702892       2.62604218
Si       4.09432406       6.93994414      -1.08474869
Si       3.15342217       2.30431453       5.61837050
16
Lattice="7.379827918772033 -0.28713241518535526 -0.15567255961903165 0.42506419870510626 8.389219991061726 -0.7439913144220285 -0.5564175017181958 1.1418145170005087 5.435652619634389" Properties=species:S:1:pos:R:3 unique_starting_index=30 config_type=initial n_minim_iter=18 stress="2.0379683708922133e-06 1.8995884110213056e-06 6.314538581148687e-07 1.8995884110213056e-06 1.6386844585825734e-05 8.290449412467534e-06 6.314538581148687e-07 8.290449412467534e-06 -2.5709996309312316e-06" pbc="T T T"
Si       2.03661643       7.93312772       2.44331913
Si       5.21185818       1.31077437       2.09266962
Si       2.51262470       4.55510093       1.85881648
Si       4.73584991       4.68880116       2.67717227
Si       3.59012245       2.61430886       3.21331863
Si       3.65835216       6.62959323       1.32267012
Si       4.87432502       4.66671309      -0.75136979
Si       2.37414959       4.57718900       5.28735854
Si       0.79311827       4.62647581       3.53179194
Si       6.45535635       4.61742628       1.00419681
Si       7.36787788       6.38815728       2.36130242
Si      -0.11940326       2.85574481       2.17468633
Si       1.86890369       1.55698462       1.91032262
Si       5.37957093       7.68691747       2.62566612
Si       4.09426731       6.93949255      -1.08436583
Si       3.15420731       2.30440955       5.62035458
16
Lattice="7.380315636281876 -0.28768079469227326 -0.15585955559132916 0.42449002787373713 8.389460199272769 -0.7444219524783773 -0.5566810547620278 1.1416226056462524 5.435672805246374" Properties=species:S:1:pos:R:3 unique_starting_index=30 config_type=initial n_minim_iter=19 stress="-4.063584310605687e-07 -2.8721898369567066e-05 1.8721662450662284e-05 -2.8721898369567066e-05 -9.491900292721343e-05 -3.129677351669024e-05 1.8721662450662284e-05 -3.129677351669024e-05 1.5901590941446888e-05" pbc="T T T"
Si       2.03656919       7.93127319       2.44236078
Si       5.21155541       1.31212882       2.09303052
Si       2.51216014       4.55609175       1.85857803
Si       4.73596447       4.68731026       2.67681327
Si       3.58885725       2.61424484       3.21379299
Si       3.65926736       6.62915717       1.32159831
Si       4.87439676       4.66611463      -0.75246219
Si       2.37372785       4.57728738       5.28785348
Si       0.79324832       4.62623923       3.53086675
Si       6.45487629       4.61716278       1.00452455
Si       7.36810689       6.38701223       2.36114685
Si      -0.11998228       2.85638978       2.17424444
Si       1.86859737       1.55678953       1.91183316
Si       5.37952724       7.68661248       2.62355813
Si       4.09545017       6.93876426      -1.08574106
Si       3.15267444       2.30463775       5.62113236
16
Lattice="7.380172273716142 -0.2869119496519561 -0.1562839413543349 0.4254712834132186 8.391129183234815 -0.7436625941407183 -0.5568542254300376 1.1422319696528678 5.4351000596492005" Properties=species:S:1:pos:R:3 unique_starting_index=30 config_type=initial n_minim_iter=20 stress="6.905174362051973e-07 1.5876887814536638e-06 1.2222534588593794e-06 1.5876887814536638e-06 4.368905138540975e-06 -2.5807599666058185e-06 1.2222534588593794e-06 -2.5807599666058185e-06 -7.7655239585812e-06" pbc="T T T"
Si       2.03710095       7.93272376       2.44201911
Si       5.21168839       1.31372545       2.09313441
Si       2.51226901       4.55758759       1.85851515
Si       4.73652032       4.68886161       2.67663837
Si       3.58880638       2.61567185       3.21327682
Si       3.65998296       6.63077736       1.32187670
Si       4.87445812       4.66734117      -0.75249760
Si       2.37433121       4.57910803       5.28765112
Si       0.79393809       4.62768774       3.53133078
Si       6.45485124       4.61876146       1.00382274
Si       7.36894454       6.38868973       2.36104157
Si      -0.12015521       2.85775947       2.17411196
Si       1.86870462       1.55753693       1.91223387
Si       5.38008471       7.68891227       2.62291965
Si       4.09595841       6.94090817      -1.08486076
Si       3.15283092       2.30554103       5.62001428
