16
Lattice="4.8066300153958625 -1.224127517892378e-07 1.3154946548934052 -7.691736496669272e-07 11.492898230713244 3.879917282612414e-06 0.3776519990856272 -5.746451479144146 7.076759525711906" Properties=species:S:1:pos:R:3 unique_starting_index=69 config_type=initial n_minim_iter=1 energy=-2601.2635637540457 free_energy=-2601.2635637540457 pbc="T T T"
Si       1.56489287       1.21878163       5.14018996
Si       3.61938813       6.96523152       3.25206751
Si       3.61938830       4.52766385       3.25206668
Si       1.56489304      -1.21878604       5.14018914
Si       3.72119859       8.89860373       1.98533413
Si       1.46308216       3.15215297       6.40692465
Si       1.46308258      -3.15215825       6.40692252
Si       3.72119901       2.59429251       1.98533200
Si       3.18306377       4.47350146       5.61876328
Si       2.00121757      -1.27294677       2.77349251
Si       2.00121740       1.27294402       2.77349337
Si       3.18306360       7.01939225       5.61876414
Si       1.06548546       8.34814565       1.64068877
Si       4.11879537       2.60169501       6.75156963
Si       4.11879572      -2.60170017       6.75156788
Si       1.06548580       3.14475047       1.64068701
16
Lattice="4.865173577410713 -1.330365731762526e-07 1.3585699708927814 -7.4797239862922e-07 11.176111739777255 3.7729725107026496e-06 0.4484782178718572 -5.588058225473436 7.066502849597011" Properties=species:S:1:pos:R:3 unique_starting_index=69 config_type=initial n_minim_iter=2 stress="-0.008871248662189054 2.366434537506296e-10 0.00023527181072669027 2.366434537506296e-10 -0.01359391986592645 -5.269429621778488e-10 0.00023527181072669027 -5.269429621778488e-10 -0.011986394304593088" pbc="T T T"
Si       1.62220271       1.18276778       5.14160768
Si       3.69144809       6.77082441       3.28346830
Si       3.69144825       4.40528449       3.28346750
Si       1.62220286      -1.18277215       5.14160688
Si       3.77385686       8.65605568       2.01246153
Si       1.53979368       3.06799817       6.41261572
Si       1.53979410      -3.06800341       6.41261365
Si       3.77385727       2.52005409       2.01245946
Si       3.27076133       4.35225530       5.63378881
Si       2.04288979      -1.23579969       2.79128554
Si       2.04288962       1.23579696       2.79128637
Si       3.27076117       6.82385195       5.63378964
Si       1.08005015       8.11368190       1.64749423
Si       4.23360047       2.52562451       6.77758266
Si       4.23360080      -2.52562964       6.77758095
Si       1.08005049       3.06242775       1.64749252
16
Lattice="4.991174726651857 -1.4860263760850024e-07 1.4296580734323086 -7.368632989883065e-07 11.010120935298414 3.7169352448953522e-06 0.535936003742151 -5.505062850814507 7.165538503744201" Properties=species:S:1:pos:R:3 unique_starting_index=69 config_type=initial n_minim_iter=3 stress="0.005429344592328546 7.400815355864149e-10 0.000618474956151457 7.400815355864149e-10 -0.008748614808444603 -4.044852206401444e-09 0.000618474956151457 -4.044852206401444e-09 0.003355455588696212" pbc="T T T"
Si       1.70589846       1.16173647       5.22276951
Si       3.82121127       6.66679770       3.37243014
Si       3.82121143       4.34332037       3.37242935
Si       1.70589862      -1.16174087       5.22276872
Si       3.87970659       8.53175978       2.07380358
Si       1.64740289       3.02669766       6.52139733
Si       1.64740330      -3.02670294       6.52139528
Si       3.87970699       2.47835918       2.07380154
Si       3.41253447       4.29023927       5.73878151
Si       2.11457558      -1.21482031       2.85641653
Si       2.11457542       1.21481756       2.85641735
Si       3.41253430       6.71987714       5.73878233
Si       1.10630129       7.98692532       1.68069463
Si       4.42080827       2.48186331       6.91450591
Si       4.42080860      -2.48186849       6.91450423
Si       1.10630162       3.02319352       1.68069295
16
Lattice="5.034990316164045 -1.6990059156804253e-07 1.5014320301828143 -7.422202591023551e-07 11.09016397839225 3.743957183357214e-06 0.6505093378745798 -5.545084357960242 7.145593586358027" Properties=species:S:1:pos:R:3 unique_starting_index=69 config_type=initial n_minim_iter=4 stress="0.008084059916545457 -4.937743322140004e-10 0.002723135153736839 -4.937743322140004e-10 0.0017257551771269807 1.9243917268865487e-09 0.002723135153736839 1.9243917268865487e-09 -0.0034347345371634236" pbc="T T T"
Si       1.77046401       1.16460882       5.21456343
Si       3.91503461       6.70969156       3.43246528
Si       3.91503477       4.38046952       3.43246450
Si       1.77046417      -1.16461322       5.21456265
Si       3.92311229       8.60396224       2.10863389
Si       1.76238608       3.05887861       6.53839611
Si       1.76238649      -3.05888390       6.53839404
Si       3.92311270       2.48619973       2.10863182
Si       3.52894026       4.32356103       5.75807996
Si       2.15655868      -1.22152009       2.88894714
Si       2.15655852       1.22151732       2.88894797
Si       3.52894010       6.76659843       5.75808079
Si       1.09813078       8.03274204       1.68542043
Si       4.58736767       2.48765850       6.96160919
Si       4.58736800      -2.48766370       6.96160751
Si       1.09813111       3.05741984       1.68541875
16
Lattice="4.9954739649562825 -1.9128302784619928e-07 1.5569361065256548 -7.390801176932227e-07 11.043244361918546 3.7281174685781226e-06 0.6988979756521574 -5.521624583767676 7.256030689544689" Properties=species:S:1:pos:R:3 unique_starting_index=69 config_type=initial n_minim_iter=5 stress="0.001385831116986462 -1.036229733050772e-09 0.0029620980751692157 -1.036229733050772e-09 0.001927434400938271 -5.915938677679041e-10 0.0029620980751692157 -5.915938677679041e-10 0.004267045438774277" pbc="T T T"
Si       1.76567485       1.15619726       5.29124270
Si       3.92869606       6.67782019       3.52172716
Si       3.92869621       4.36542122       3.52172637
Si       1.76567501      -1.15620170       5.29124192
Si       3.89316995       8.57704121       2.14911148
Si       1.80120070       3.05541737       6.66385966
Si       1.80120111      -3.05542273       6.66385759
Si       3.89317036       2.46620111       2.14910942
Si       3.55033640       4.30546077       5.85977967
Si       2.14403482      -1.21616052       2.95318858
Si       2.14403466       1.21615771       2.95318940
Si       3.55033624       6.73777900       5.85978050
Si       1.06056515       7.98795607       1.71194920
Si       4.63380558       2.46633230       7.10102153
Si       4.63380591      -2.46633758       7.10101987
Si       1.06056548       3.05528618       1.71194754
16
Lattice="5.047663120676508 -1.8227758816913819e-07 1.5406068730340574 -7.30611671354572e-07 10.916709886615697 3.6854003671413085e-06 0.6753624353317234 -5.458357352125368 7.269164814258184" Properties=species:S:1:pos:R:3 unique_starting_index=69 config_type=initial n_minim_iter=6 stress="-0.00026281798479053947 -3.573112840670253e-10 0.0008233970093575286 -3.573112840670253e-10 0.000922648627269742 5.827687728514431e-10 0.0008233970093575286 5.827687728514431e-10 -0.0006403655147520455" pbc="T T T"
Si       1.70238222       1.14505857       5.27327497
Si       4.02064232       6.60341426       3.53649973
Si       4.02064248       4.31329269       3.53649895
Si       1.70238237      -1.14506300       5.27327419
Si       3.91499715       8.49373346       2.10179512
Si       1.80802714       3.03537682       6.70798085
Si       1.80802754      -3.03538220       6.70797880
Si       3.91499756       2.42297444       2.10179307
Si       3.60052939       4.25117960       5.85136835
Si       2.12249546      -1.20717447       2.95840475
Si       2.12249530       1.20717166       2.95840557
Si       3.60052923       6.66552573       5.85136916
Si       0.98488882       7.87938668       1.69769562
Si       4.73813555       2.42103016       7.11207993
Si       4.73813587      -2.42103542       7.11207829
Si       0.98488914       3.03732110       1.69769399
16
Lattice="4.987670392916289 -1.438641796626632e-07 1.4149273335580337 -7.408296501246927e-07 11.069385681114582 3.736942583811908e-06 0.49415752921536743 -5.534695250961012 7.237940406769993" Properties=species:S:1:pos:R:3 unique_starting_index=69 config_type=initial n_minim_iter=7 stress="-0.0014545246636735584 1.5696097254043915e-09 -0.006498527908427526 1.5696097254043915e-09 0.007872869245351662 7.767411417830677e-11 -0.006498527908427526 7.767411417830677e-11 0.00635448727335" pbc="T T T"
Si       1.52970726       1.19425446       5.22793457
Si       3.95211966       6.72894807       3.42493626
Si       3.95211982       4.34043472       3.42493545
Si       1.52970742      -1.19425889       5.22793377
Si       3.82590064       8.61064058       1.99487433
Si       1.65592603       3.07594602       6.65799777
Si       1.65592644      -3.07595141       6.65799570
Si       3.82590106       2.45874315       1.99487226
Si       3.46729414       4.27988992       5.78470984
Si       2.01453311      -1.25480203       2.86815934
Si       2.01453294       1.25479926       2.86816018
Si       3.46729397       6.78949121       5.78471069
Si       0.91962934       8.00484682       1.66740415
Si       4.56219742       2.47015243       6.98546755
Si       4.56219775      -2.47015764       6.98546588
Si       0.91962967       3.06453675       1.66740248
16
Lattice="5.094579991912204 -1.7247729531675319e-07 1.520877961906124 -7.345592439865271e-07 10.975694045997393 3.705312982148481e-06 0.6605790674126556 -5.48784941975855 7.230517458821903" Properties=species:S:1:pos:R:3 unique_starting_index=69 config_type=initial n_minim_iter=8 stress="-0.0035342810992183347 -7.067810941098688e-11 -0.0014337667400373905 -7.067810941098688e-11 0.0047540842089640245 9.880848617313694e-10 -0.0014337667400373905 9.880848617313694e-10 0.0015429918795942651" pbc="T T T"
Si       1.63530147       1.20442445       5.24725706
Si       4.11985657       6.69227223       3.50414144
Si       4.11985673       4.28341890       3.50414062
Si       1.63530163      -1.20442888       5.24725624
Si       3.90705224       8.53943140       2.06614041
Si       1.84810554       3.05158268       6.68525933
Si       1.84810595      -3.05158804       6.68525727
Si       3.90705265       2.43626068       2.06613835
Si       3.67037636       4.22119497       5.86901865
Si       2.08478200      -1.26665115       2.88237817
Si       2.08478183       1.26664839       2.88237903
Si       3.67037620       6.75449451       5.86901951
Si       0.94993001       7.94934238       1.68106571
Si       4.80522785       2.46149379       7.07033363
Si       4.80522818      -2.46149902       7.07033197
Si       0.94993034       3.02634956       1.68106404
16
Lattice="5.235366570020577 -1.8335042268899791e-07 1.5809960140229202 -7.247824489020364e-07 10.829610365922495 3.655996214201208e-06 0.7701252523285637 -5.414807560087227 7.194075974065117" Properties=species:S:1:pos:R:3 unique_starting_index=69 config_type=initial n_minim_iter=9 stress="0.0033038006051314033 1.683019590918584e-10 9.422103562665404e-05 1.683019590918584e-10 0.00031377558364340213 1.438127096757581e-09 9.422103562665404e-05 1.438127096757581e-09 -0.003927493373804017" pbc="T T T"
Si       1.73059205       1.20625831       5.23910904
Si       4.27489873       6.62106424       3.53596598
Si       4.27489889       4.20854323       3.53596517
Si       1.73059222      -1.20626270       5.23910822
Si       4.01017224       8.42131143       2.11608793
Si       1.99531830       3.00650458       6.65898830
Si       1.99531870      -3.00650989       6.65898627
Si       4.01017265       2.40829696       2.11608590
Si       3.85201560       4.14373614       5.91262148
Si       2.15347551      -1.27106813       2.86245187
Si       2.15347534       1.27106540       2.86245273
Si       3.85201543       6.68586967       5.91262234
Si       1.00750955       7.87055691       1.68452015
Si       4.99798106       2.45575017       7.09055572
Si       4.99798139      -2.45575537       7.09055406
Si       1.00750988       2.95905137       1.68451849
16
Lattice="5.234340308973547 -1.9142395839412987e-07 1.6047075890764777 -7.218317271437928e-07 10.78552103767186 3.641111983943435e-06 0.79168868032852 -5.392762910882928 7.242549127255081" Properties=species:S:1:pos:R:3 unique_starting_index=69 config_type=initial n_minim_iter=10 stress="0.0005557796884931886 -3.1672584607091817e-10 0.0011329315918481998 -3.1672584607091817e-10 -0.0004265522187183985 -3.0983860329557483e-10 0.0011329315918481998 -3.0983860329557483e-10 0.0007158353190366355" pbc="T T T"
Si       1.73071610       1.20051570       5.26781966
Si       4.29531185       6.59327696       3.57944006
Si       4.29531201       4.19224116       3.57943925
Si       1.73071626      -1.20052010       5.26781885
Si       4.00772360       8.39050830       2.13808431
Si       2.01830411       2.99774610       6.70917663
Si       2.01830451      -2.99775144       6.70917460
Si       4.00772400       2.39501076       2.13808228
Si       3.87634922       4.12768021       5.96073303
Si       2.14967906      -1.26507939       2.88652503
Si       2.14967889       1.26507665       2.88652588
Si       3.87634905       6.65783624       5.96073388
Si       0.99712639       7.83974985       1.69402511
Si       5.02890140       2.44698775       7.15323545
Si       5.02890172      -2.44699299       7.15323380
Si       0.99712671       2.94576910       1.69402346
16
Lattice="5.16435825697558 -1.9100037580667735e-07 1.5895792918380194 -7.185524328817567e-07 10.73652222843403 3.624570348233146e-06 0.7413909223179866 -5.368263537416496 7.324856212347024" Properties=species:S:1:pos:R:3 unique_starting_index=69 config_type=initial n_minim_iter=11 stress="-0.0062122009159868066 2.936761978584268e-10 -0.0008349306272383881 2.936761978584268e-10 -0.0063886641187334775 -4.304599617170771e-09 -0.0008349306272383881 -4.304599617170771e-09 0.006196687810921257" pbc="T T T"
Si       1.65985366       1.17920329       5.27908491
Si       4.24589449       6.54746513       3.63535355
Si       4.24589465       4.18905414       3.63535276
Si       1.65985382      -1.17920770       5.27908411
Si       3.94267052       8.35853264       2.16102967
Si       1.96307739       2.99026984       6.75341001
Si       1.96307779      -2.99027521       6.75340799
Si       3.94267092       2.37798759       2.16102765
Si       3.82453073       4.12895708       6.00403446
Si       2.08121775      -1.23930311       2.91040237
Si       2.08121758       1.23930035       2.91040320
Si       3.82453057       6.60756053       6.00403530
Si       0.96760376       7.82563262       1.69061082
Si       4.93814422       2.45736991       7.22382850
Si       4.93814455      -2.45737520       7.22382684
Si       0.96760409       2.91088752       1.69060916
16
Lattice="5.217809219163152 -2.0224811685937112e-07 1.6334931708250897 -7.256481170664933e-07 10.84254507929307 3.6603628769505583e-06 0.8131910592288836 -5.421274954406152 7.314090063787237" Properties=species:S:1:pos:R:3 unique_starting_index=69 config_type=initial n_minim_iter=12 stress="-0.0002024726038021679 -6.625831604722635e-10 0.0019868146662786637 -6.625831604722635e-10 -0.00032426308591871223 -7.38096959317982e-10 0.0019868146662786637 -7.38096959317982e-10 0.0022559686553644165" pbc="T T T"
Si       1.66752827       1.19463381       5.22974584
Si       4.36347096       6.61590704       3.71784040
Si       4.36347112       4.22663503       3.71783960
Si       1.66752843      -1.19463820       5.22974503
Si       3.96109265       8.44252276       2.23402138
Si       2.06990633       3.02124858       6.71356609
Si       2.06990674      -3.02125392       6.71356405
Si       3.96109306       2.40002025       2.23401934
Si       3.96757130       4.17570568       6.05510415
Si       2.06342826      -1.24556592       2.89248044
Si       2.06342809       1.24556316       2.89248128
Si       3.96757113       6.66683476       6.05510499
Si       0.97902457       7.96124550       1.66085149
Si       5.05197448       2.53997133       7.28673566
Si       5.05197482      -2.53997666       7.28673394
Si       0.97902491       2.88129751       1.66084978
16
Lattice="5.188021531823654 -1.9285036865587666e-07 1.5997503736153864 -7.335352651899307e-07 10.960393893645946 3.7001477641115377e-06 0.7697825514998556 -5.4801993538658085 7.28262625955302" Properties=species:S:1:pos:R:3 unique_starting_index=69 config_type=initial n_minim_iter=13 stress="7.455353303962947e-05 -1.2327320375223252e-10 -6.103266930000847e-05 -1.2327320375223252e-10 0.0022243512872036587 1.0938281263193586e-09 -6.103266930000847e-05 1.0938281263193586e-09 -0.0010278291365041342" pbc="T T T"
Si       1.61824062       1.20979860       5.18657035
Si       4.33956241       6.68999624       3.69580935
Si       4.33956257       4.27039465       3.69580853
Si       1.61824079      -1.20980298       5.18656953
Si       3.92011617       8.52927075       2.23577252
Si       2.03768661       3.04907219       6.64660841
Si       2.03768702      -3.04907750       6.64660635
Si       3.92011658       2.43112106       2.23577047
Si       3.93638341       4.22994718       6.02443066
Si       2.02141995      -1.25024883       2.85794737
Si       2.02141979       1.25024607       2.85794822
Si       3.93638324       6.73044208       6.02443151
Si       0.97097150       8.07729541       1.62806893
Si       4.98683135       2.59709683       7.25431170
Si       4.98683169      -2.59710216       7.25430994
Si       0.97097185       2.88309642       1.62806718
16
Lattice="5.210977719693666 -1.8165939594794343e-07 1.5711519761202835 -7.391843153715927e-07 11.044801304525285 3.7286430809157864e-06 0.7401441032468299 -5.5224030481359705 7.243664834697158" Properties=species:S:1:pos:R:3 unique_starting_index=69 config_type=initial n_minim_iter=14 stress="0.0006254602150462336 2.6741169636924976e-10 -0.0014972288409832355 2.6741169636924976e-10 0.004182249464034089 2.6898170031888975e-09 -0.0014972288409832355 2.6898170031888975e-09 -0.004082207044941741" pbc="T T T"
Si       1.57245100       1.22990825       5.14874059
Si       4.37866977       6.75230959       3.66607933
Si       4.37866994       4.29248872       3.66607850
Si       1.57245116      -1.22991262       5.14873976
Si       3.89930146       8.57714344       2.27153164
Si       2.05181907       3.05474122       6.54328952
Si       2.05181947      -3.05474647       6.54328745
Si       3.89930187       2.46765575       2.27152958
Si       3.95230766       4.28311234       5.99938770
Si       1.99881344      -1.23928736       2.81543056
Si       1.99881328       1.23928463       2.81543139
Si       3.95230749       6.76168433       5.99938853
Si       0.96251915       8.18708428       1.56141677
Si       4.98860143       2.66468197       7.25340412
Si       4.98860179      -2.66468731       7.25340232
Si       0.96251951       2.85771500       1.56141497
16
Lattice="5.307615227050214 -1.762425729159735e-07 1.5742644206232839 -7.33185263812912e-07 10.955164209517953 3.6983822620566935e-06 0.75072943509432 -5.477584501884909 7.249473729225248" Properties=species:S:1:pos:R:3 unique_starting_index=69 config_type=initial n_minim_iter=15 stress="0.0020153726985111054 6.847872787734787e-10 -0.002062690622241212 6.847872787734787e-10 0.002188128282877909 1.0621441933087513e-09 -0.002062690622241212 1.0621441933087513e-09 -0.0013670169277340098" pbc="T T T"
Si       1.54630417       1.23261115       5.14740972
Si       4.51203945       6.71019395       3.67633151
Si       4.51203961       4.24496729       3.67633067
Si       1.54630433      -1.23261551       5.14740889
Si       3.92242529       8.49182840       2.33229922
Si       2.13591808       3.01424477       6.49144321
Si       2.13591849      -3.01424996       6.49144117
Si       3.92242569       2.46333367       2.33229719
Si       4.05120690       4.26300581       6.02382026
Si       2.00713704      -1.21457535       2.79991932
Si       2.00713688       1.21457263       2.79992014
Si       4.05120674       6.69215378       6.02382108
Si       0.94748726       8.16560799       1.50170772
Si       5.11085615       2.68802420       7.32203449
Si       5.11085651      -2.68802956       7.32203268
Si       0.94748762       2.78955423       1.50170591
16
Lattice="5.419978888590252 -1.808040419520559e-07 1.6100516954624986 -7.237229806071896e-07 10.81377992905436 3.6506519776372434e-06 0.8053320599986578 -5.406892366528494 7.274740056595381" Properties=species:S:1:pos:R:3 unique_starting_index=69 config_type=initial n_minim_iter=16 stress="0.0011258452020552377 4.293793456062499e-10 -0.000906952037120192 4.293793456062499e-10 -0.0007149792784304469 -9.751344862486626e-10 -0.000906952037120192 -9.751344862486626e-10 0.0019937200887009017" pbc="T T T"
Si       1.53672530       1.22212755       5.15995592
Si       4.68858460       6.62901821       3.72483886
Si       4.68858477       4.18475875       3.72483803
Si       1.53672546      -1.22213191       5.15995509
Si       3.95499774       8.37290351       2.40507869
Si       2.27031193       2.96601205       6.47971726
Si       2.27031233      -2.96601721       6.47971525
Si       3.95499813       2.44087425       2.40507669
Si       4.19407806       4.21190178       6.07349619
Si       2.03123217      -1.19498723       2.81129695
Si       2.03123201       1.19498452       2.81129776
Si       4.19407790       6.60187353       6.07349700
Si       0.92209498       8.09863081       1.45524434
Si       5.30321473       2.69173912       7.42955143
Si       5.30321509      -2.69174451       7.42954961
Si       0.92209534       2.71514718       1.45524252
16
Lattice="5.4123689084828674 -1.8677332100845736e-07 1.6262249558681994 -7.23057212077776e-07 10.803832072338118 3.6472936550936363e-06 0.8284329212104752 -5.401918436763697 7.275152899372132" Properties=species:S:1:pos:R:3 unique_starting_index=69 config_type=initial n_minim_iter=17 stress="-0.0010623700753851534 -4.852190494944344e-10 0.0014716811618902615 -4.852190494944344e-10 -0.001235839166179001 -4.5776473405117077e-10 0.0014716811618902615 -4.5776473405117077e-10 0.0004118845276573737" pbc="T T T"
Si       1.56258908       1.21589004       5.17347211
Si       4.67821170       6.61780677       3.72790876
Si       4.67821186       4.18602233       3.72790794
Si       1.56258924      -1.21589440       5.17347129
Si       3.96152296       8.36698779       2.39791413
Si       2.27927759       2.96507025       6.50346792
Si       2.27927798      -2.96507542       6.50346591
Si       3.96152336       2.43684211       2.39791213
Si       4.19065598       4.19553065       6.07400898
Si       2.05014512      -1.20638444       2.82737025
Si       2.05014496       1.20638172       2.82737107
Si       4.19065582       6.60829681       6.07400980
Si       0.92869726       8.07767396       1.47554087
Si       5.31210333       2.67575621       7.42584098
Si       5.31210369      -2.67576160       7.42583918
Si       0.92869761       2.72615616       1.47553906
16
Lattice="5.415424043645301 -1.8193280180999305e-07 1.6124922734247777 -7.229292709761194e-07 10.801920370123296 3.646648278769958e-06 0.8092058449635229 -5.400962586016215 7.272407392743179" Properties=species:S:1:pos:R:3 unique_starting_index=69 config_type=initial n_minim_iter=18 stress="-0.0008557995042381031 -4.0358000608066663e-10 0.001094673026987157 -4.0358000608066663e-10 -0.0003473804383741486 -4.912268426288192e-10 0.001094673026987157 -4.912268426288192e-10 0.001324723376481865" pbc="T T T"
Si       1.53683481       1.19400149       5.17091799
Si       4.68779403       6.59496237       3.71398468
Si       4.68779419       4.20695504       3.71398387
Si       1.53683497      -1.19400585       5.17091718
Si       3.94443038       8.36044178       2.38563482
Si       2.28019823       2.95948009       6.49926904
Si       2.28019862      -2.95948525       6.49926704
Si       3.94443078       2.44147643       2.38563282
Si       4.17314161       4.16542948       6.03808579
Si       2.05148756      -1.23552977       2.84681523
Si       2.05148740       1.23552704       2.84681607
Si       4.17314144       6.63648629       6.03808662
Si       0.91941194       8.09111852       1.48372181
Si       5.30521670       2.69015663       7.40118186
Si       5.30521706      -2.69016199       7.40118005
Si       0.91941230       2.71079990       1.48371999
16
Lattice="5.4239022720923895 -1.6927637070650738e-07 1.5766827848507705 -7.260266940607748e-07 10.84820165676728 3.6622724988003335e-06 0.7689529923533166 -5.424103217472948 7.229280782349959" Properties=species:S:1:pos:R:3 unique_starting_index=69 config_type=initial n_minim_iter=19 stress="0.001767322076206746 2.9293647866511977e-10 -0.0006892177521296343 2.9293647866511977e-10 0.0008668973792615096 8.475010923992271e-10 -0.0006892177521296343 8.475010923992271e-10 -0.0017801592748699936" pbc="T T T"
Si       1.50040896       1.19075701       5.14806927
Si       4.69244527       6.61485855       3.65789731
Si       4.69244543       4.23334018       3.65789651
Si       1.50040911      -1.19076137       5.14806847
Si       3.93190986       8.37745332       2.37600100
Si       2.26094413       2.95335101       6.42996678
Si       2.26094452      -2.95335613       6.42996479
Si       3.93191026       2.47074618       2.37599900
Si       4.14308956       4.18565950       5.96319374
Si       2.04976500      -1.23844041       2.84277121
Si       2.04976483       1.23843768       2.84277205
Si       4.14308939       6.66253760       5.96319457
Si       0.90482066       8.14609944       1.45332978
Si       5.28803336       2.72199691       7.35263784
Si       5.28803373      -2.72200225       7.35263600
Si       0.90482102       2.70210027       1.45332795
16
Lattice="5.376196729222985 -1.8062093591737635e-07 1.6008297135310907 -7.294303174364629e-07 10.899058174554948 3.6794412830368013e-06 0.788891023704766 -5.449531489668219 7.27263423562883" Properties=species:S:1:pos:R:3 unique_starting_index=69 config_type=initial n_minim_iter=20 stress="-0.000627518340522819 3.847274206969014e-10 -0.0013249492733428004 3.847274206969014e-10 0.0003073287919630105 -2.6866184081779807e-10 -0.0013249492733428004 -2.6866184081779807e-10 0.0008404841495520366" pbc="T T T"
Si       1.47878763       1.19990421       5.19010100
Si       4.68629908       6.64943402       3.68336598
Si       4.68629924       4.24962120       3.68336517
Si       1.47878779      -1.19990861       5.19010019
Si       3.89904852       8.38788994       2.41618042
Si       2.26603795       2.93835938       6.45728774
Si       2.26603835      -2.93836453       6.45728575
Si       3.89904891       2.51116603       2.41617844
Si       4.14059297       4.20329133       5.99279249
Si       2.02449406      -1.24623685       2.88067284
Si       2.02449390       1.24623408       2.88067369
Si       4.14059280       6.69576226       5.99279333
Si       0.89708292       8.23003407       1.45929510
Si       5.26800357       2.78050326       7.41417295
Si       5.26800395      -2.78050865       7.41417107
Si       0.89708329       2.66902215       1.45929322
16
Lattice="5.394733613356272 -1.854673083227571e-07 1.618860238461148 -7.274724265809444e-07 10.869803601168275 3.669565156347061e-06 0.8130244843035316 -5.434904206132387 7.286771574677346" Properties=species:S:1:pos:R:3 unique_starting_index=69 config_type=initial n_minim_iter=21 stress="-0.0006969258013888517 -2.47339007086171e-11 5.068099193464461e-05 -2.47339007086171e-11 -0.0005830052043073419 -3.440677139496673e-10 5.068099193464461e-05 -3.440677139496673e-10 0.0004462254199801002" pbc="T T T"
Si       1.47565323       1.19436658       5.20634701
Si       4.73210382       6.62926911       3.69928783
Si       4.73210398       4.24053154       3.69928702
Si       1.47565339      -1.19437098       5.20634620
Si       3.90948434       8.35492837       2.42719375
Si       2.29827247       2.92002509       6.47844225
Si       2.29827286      -2.92003025       6.47844028
Si       3.90948474       2.51487303       2.42719177
Si       4.17582121       4.18828085       6.00023787
Si       2.03193616      -1.24662005       2.90539531
Si       2.03193600       1.24661727       2.90539615
Si       4.17582105       6.68151817       6.00023871
Si       0.88762499       8.22490854       1.46222858
Si       5.32013184       2.79000502       7.44340733
Si       5.32013221      -2.79001042       7.44340544
Si       0.88762537       2.64489310       1.46222670
