16
Lattice="6.414324429481187 0.5949106166840634 1.7210444432903311 2.7960142676888067 4.3512330492014275 0.9271319173333028 6.295470642191481 1.736190088763023 14.251977506641875" Properties=species:S:1:pos:R:3 unique_starting_index=3 config_type=initial n_minim_iter=1 energy=-2605.889691228132 free_energy=-2605.889691228132 pbc="T T T"
Si       9.00259589       5.14154249       8.73775339
Si       9.73952627       2.90258090      15.20823972
Si       2.36594206       2.97417098       4.15908098
Si       6.17028477       3.30560355       2.89636829
Si       8.55684380       1.37077291       6.86698809
Si       9.98659776       3.08043387       9.41643063
Si       4.67501087       3.18834457       4.70162005
Si       8.45452101       3.52546562       3.54729423
Si       6.29575454       1.75175559      10.24664245
Si       8.42653832       1.44711830       9.26458504
Si      10.92821469       3.85772858      11.43730745
Si       4.64754657       1.10025845       5.92003192
Si       7.19764333       4.68279904      11.27196120
Si       7.17542761       2.59460528      12.32055295
Si       9.45689689       2.64713188      12.88876928
Si       5.73869023       1.37451261       1.57253151
16
Lattice="6.424095635159357 0.6104176722869021 1.7320060712165328 2.809200169967969 4.3657451324298 0.933956883991728 6.327497199467711 1.7597078917261513 14.266644582832194" Properties=species:S:1:pos:R:3 unique_starting_index=3 config_type=initial n_minim_iter=2 stress="0.0014402404344586043 0.00023071749526987767 0.000245913796979057 0.00023071749526987767 0.0011781239619675777 -0.0001616550531599857 0.000245913796979057 -0.0001616550531599857 0.0011340539624679423" pbc="T T T"
Si       9.03610192       5.17466938       8.75749968
Si       9.77827094       2.93663185      15.22931151
Si       2.38082197       2.98755643       4.16527796
Si       6.18712558       3.32592581       2.90882180
Si       8.57809081       1.39481549       6.88345039
Si      10.01751880       3.11299447       9.43627109
Si       4.69430515       3.20660295       4.71215955
Si       8.47545598       3.55075002       3.56302273
Si       6.32061223       1.77325505      10.26055765
Si       8.45140977       1.47149153       9.28084745
Si      10.96475812       3.89252438      11.46019601
Si       4.66361976       1.11510122       5.92883261
Si       7.23171415       4.71250777      11.28845085
Si       7.20554191       2.62088388      12.33665575
Si       9.49219453       2.67809519      12.90816771
Si       5.75011367       1.38999941       1.58251513
16
Lattice="6.416117757124408 0.6175837620889834 1.7340336143600368 2.8100026705198293 4.36687376881171 0.9368248687725125 6.32914949079021 1.7730460211846368 14.250712611339793" Properties=species:S:1:pos:R:3 unique_starting_index=3 config_type=initial n_minim_iter=3 stress="-0.0007133886108637576 0.0008722865830384641 0.0008137801063645774 0.0008722865830384641 -0.0005176146786631065 1.9455993227782188e-05 0.0008137801063645774 1.9455993227782188e-05 -0.0010213124976724659" pbc="T T T"
Si       9.03429175       5.18633044       8.75412618
Si       9.77619400       2.95410544      15.21502120
Si       2.38291844       2.99175614       4.16220483
Si       6.18279914       3.33164519       2.91065417
Si       8.57066270       1.40665558       6.88018232
Si      10.01213887       3.12796349       9.43063742
Si       4.69459118       3.21248605       4.71058306
Si       8.46872135       3.55833296       3.56474035
Si       6.31841462       1.78415910      10.25109607
Si       8.44578269       1.48366843       9.27305572
Si      10.96006674       3.90642496      11.45322904
Si       4.66181532       1.12266919       5.92282677
Si       7.23291258       4.72392326      11.27876233
Si       7.20363322       2.63400045      12.32463102
Si       9.48982124       2.69314927      12.89632870
Si       5.74483041       1.39602755       1.58454468
16
Lattice="6.406184075488637 0.6131148206554059 1.723657791461037 2.8004770756071875 4.369405056769138 0.9384253435662747 6.293859645825928 1.7883028298618069 14.250196616360162" Properties=species:S:1:pos:R:3 unique_starting_index=3 config_type=initial n_minim_iter=4 stress="-0.0005706254010261012 0.0004070110282307753 0.00011489290727397312 0.0004070110282307753 -1.3137400598217985e-05 0.0006399784516416253 0.00011489290727397312 0.0006399784516416253 -0.0002925303607774425" pbc="T T T"
Si       9.00633358       5.19569599       8.75316964
Si       9.73341484       2.97070603      15.21081984
Si       2.36894553       3.00271233       4.16421438
Si       6.16687281       3.32981611       2.90587519
Si       8.54608250       1.40829852       6.87173423
Si       9.98253392       3.13772715       9.42209976
Si       4.68162763       3.21815654       4.71206222
Si       8.45027130       3.55222295       3.55331156
Si       6.28526388       1.79223056      10.25106193
Si       8.41743614       1.48590130       9.26285727
Si      10.92488277       3.90768084      11.44734240
Si       4.64593694       1.12759847       5.91506218
Si       7.19900432       4.73793474      11.27701711
Si       7.16257654       2.64788938      12.32198838
Si       9.45573131       2.70259580      12.88804279
Si       5.73874170       1.39313797       1.57617567
16
Lattice="6.408429618174516 0.6020631887581631 1.719439796837324 2.796577802862549 4.363059548027464 0.9285859212680982 6.289352059763131 1.7526610235135984 14.241452541287597" Properties=species:S:1:pos:R:3 unique_starting_index=3 config_type=initial n_minim_iter=5 stress="0.0001447360316209265 5.7483012780170475e-05 6.729158051873192e-05 5.7483012780170475e-05 0.00012083083572143735 -0.0007216902497612525 6.729158051873192e-05 -0.0007216902497612525 -0.0008399482516460878" pbc="T T T"
Si       9.00414342       5.16864735       8.74040270
Si       9.72834483       2.93085132      15.19834587
Si       2.36487455       2.99491095       4.15599671
Si       6.16443871       3.31405769       2.89637207
Si       8.54502954       1.38496344       6.86501619
Si       9.98149142       3.10989760       9.40989832
Si       4.68227591       3.20386304       4.70548951
Si       8.45001856       3.53037423       3.54015135
Si       6.27877508       1.76282403      10.24572630
Si       8.41588076       1.45534511       9.25390640
Si      10.92302925       3.86656374      11.43454504
Si       4.64588428       1.11066753       5.90639427
Si       7.19209644       4.70698836      11.26108090
Si       7.15253037       2.61628813      12.31082963
Si       9.45391827       2.66449039      12.87484823
Si       5.74265260       1.38309875       1.57111878
16
Lattice="6.404623861674018 0.6000883163026017 1.7227361788585838 2.792935251858392 4.358588011654955 0.934307313067806 6.284279945340449 1.7618273526397414 14.268571667255161" Properties=species:S:1:pos:R:3 unique_starting_index=3 config_type=initial n_minim_iter=6 stress="0.0002040219141404136 -5.744520868341721e-05 0.00014074916390682297 -5.744520868341721e-05 -0.0007082623581787658 0.00010802904315387288 0.00014074916390682297 0.00010802904315387288 0.0005837425503211862" pbc="T T T"
Si       8.99781406       5.16969736       8.76257920
Si       9.72078173       2.93894704      15.22812537
Si       2.36212277       2.99757367       4.16577253
Si       6.15887930       3.30995010       2.90448076
Si       8.53862053       1.38717603       6.87854351
Si       9.97432797       3.11288347       9.42872990
Si       4.68039252       3.20405182       4.71849954
Si       8.44389901       3.52417155       3.54808818
Si       6.27220905       1.76667974      10.26731047
Si       8.40970165       1.45739730       9.27197344
Si      10.91568560       3.86623362      11.45921589
Si       4.64330197       1.11354244       5.91565872
Si       7.18423627       4.71004212      11.28440593
Si       7.14359598       2.62378931      12.33457249
Si       9.44665990       2.66906142      12.89914871
Si       5.74017289       1.38018713       1.57559116
16
Lattice="6.392981824614719 0.6001539115995491 1.716470742974268 2.785966154525797 4.368445619151711 0.9347505840342983 6.26068803372669 1.7746107231546184 14.257676041742632" Properties=species:S:1:pos:R:3 unique_starting_index=3 config_type=initial n_minim_iter=7 stress="-0.0004402142279390038 -0.0002853414707102081 -0.0002501847610182674 -0.0002853414707102081 0.0007392290009852535 0.0003048841646154471 -0.0002501847610182674 0.0003048841646154471 0.0005179823638207914" pbc="T T T"
Si       8.97529844       5.18796668       8.75669012
Si       9.69121281       2.95382554      15.21381918
Si       2.35417043       3.01024472       4.16289723
Si       6.14479120       3.31672259       2.90018904
Si       8.51787699       1.39433083       6.86880571
Si       9.94915723       3.12451739       9.41648049
Si       4.67053011       3.21464798       4.71653789
Si       8.42649463       3.52926623       3.54017302
Si       6.25151598       1.77394036      10.26055520
Si       8.38715251       1.46269915       9.26261967
Si      10.88805671       3.87731330      11.44756776
Si       4.63137280       1.11944064       5.90705379
Si       7.15841069       4.72617346      11.27456581
Si       7.11726926       2.63874762      12.32339239
Si       9.41726349       2.68027402      12.88587339
Si       5.73019431       1.38120496       1.57196125
16
Lattice="6.39844545194421 0.6026333738185645 1.7084585339912874 2.789085135441421 4.370027887868408 0.9334079454362552 6.254718349419762 1.7845287205918787 14.232634428625115" Properties=species:S:1:pos:R:3 unique_starting_index=3 config_type=initial n_minim_iter=8 stress="0.0006411761424886173 -0.00013130062990346513 -0.0006198888574150129 -0.00013130062990346513 0.00047175923443821004 0.0006837769366398627 -0.0006198888574150129 0.0006837769366398627 -0.00019640672850709375" pbc="T T T"
Si       8.97971612       5.20040044       8.74230829
Si       9.68979340       2.96377631      15.18326823
Si       2.35523153       3.01796594       4.15442849
Si       6.14856538       3.31951121       2.89205875
Si       8.52055675       1.40454893       6.85159530
Si       9.95155382       3.13296692       9.39321727
Si       4.67615893       3.22103099       4.71039858
Si       8.43383703       3.53078574       3.52800188
Si       6.24967845       1.77716318      10.24466694
Si       8.38791833       1.46745778       9.24641168
Si      10.89211646       3.88449896      11.42370400
Si       4.63304068       1.12502982       5.89175361
Si       7.15172314       4.73275271      11.25180563
Si       7.11137715       2.65125009      12.29903811
Si       9.41178060       2.68787393      12.85970213
Si       5.73548498       1.38137764       1.56822039
16
Lattice="6.385977593134375 0.6004047860772238 1.7128413639720717 2.7842224367964605 4.3705086482459246 0.927836307255586 6.25001672234854 1.7593306455973887 14.247306953241193" Properties=species:S:1:pos:R:3 unique_starting_index=3 config_type=initial n_minim_iter=9 stress="-0.00035546297899125153 0.00014662401077048567 -0.000263944380322403 0.00014662401077048567 0.000625266960180957 -7.373420684499958e-05 -0.000263944380322403 -7.373420684499958e-05 0.00021798358416724373" pbc="T T T"
Si       8.96941610       5.19884242       8.75396254
Si       9.68241892       2.93325511      15.19480868
Si       2.35812316       3.02140315       4.14957570
Si       6.13585030       3.31540248       2.89172801
Si       8.50636033       1.40390013       6.85966281
Si       9.93463716       3.11724364       9.39627016
Si       4.67796716       3.21990138       4.71824051
Si       8.42006987       3.52116554       3.52689041
Si       6.24481569       1.74810906      10.26265458
Si       8.37651259       1.44671439       9.26823917
Si      10.88024027       3.86154207      11.43473251
Si       4.63099275       1.11737548       5.89182981
Si       7.13084782       4.71008856      11.25137124
Si       7.09888879       2.63777589      12.30755344
Si       9.38853802       2.66038923      12.87129367
Si       5.72387165       1.37428765       1.57775761
16
Lattice="6.393114168048599 0.594791039738109 1.7187714523841318 2.784249223423788 4.365412782299543 0.9300936502145213 6.269917071716077 1.7524172977416739 14.245077249460047" Properties=species:S:1:pos:R:3 unique_starting_index=3 config_type=initial n_minim_iter=10 stress="0.00011685119704076166 -0.0002597995169643093 0.0003203256641370718 -0.0002597995169643093 0.00010660435003672775 0.0001110137957145979 0.0003203256641370718 0.0001110137957145979 -0.0002823932652047857" pbc="T T T"
Si       8.98322321       5.19001258       8.75900487
Si       9.70600188       2.92070215      15.19478655
Si       2.36439714       3.01834715       4.14853470
Si       6.14187846       3.30852359       2.89639880
Si       8.52117006       1.39892145       6.86495326
Si       9.95093056       3.10653329       9.39968243
Si       4.68543095       3.21522819       4.72083326
Si       8.42924005       3.51162689       3.53358775
Si       6.26038336       1.73815783      10.26399095
Si       8.39450107       1.43807672       9.27346579
Si      10.89943823       3.84861442      11.43933051
Si       4.64133410       1.11375295       5.89277826
Si       7.14265304       4.70031606      11.24953935
Si       7.11552579       2.63068487      12.30843471
Si       9.40745681       2.64956180      12.87275856
Si       5.72943514       1.36728323       1.58386666
16
Lattice="6.399074497892285 0.5966047264050236 1.716692650797569 2.7897343511542023 4.35888893616414 0.9250544624364572 6.273309108706714 1.7394354050260252 14.243340160662626" Properties=species:S:1:pos:R:3 unique_starting_index=3 config_type=initial n_minim_iter=11 stress="0.00045756948526952986 3.814022689301738e-05 0.000294304102528645 3.814022689301738e-05 -0.0010178826969584026 -5.175321552986726e-05 0.000294304102528645 -5.175321552986726e-05 -0.0003411977225682832" pbc="T T T"
Si       8.99365680       5.18263080       8.75423737
Si       9.71379133       2.90251199      15.18941299
Si       2.37269610       3.01230110       4.14394221
Si       6.14992780       3.30502351       2.89156826
Si       8.53046008       1.40258742       6.86345636
Si       9.95930654       3.09933506       9.39223008
Si       4.69112521       3.21154127       4.71781324
Si       8.43998626       3.50734547       3.52789996
Si       6.26369605       1.72205773      10.26365786
Si       8.40468632       1.43137438       9.27428364
Si      10.90886038       3.83492492      11.43405962
Si       4.64600474       1.11206928       5.89111120
Si       7.14264238       4.68550890      11.23845556
Si       7.11791742       2.62017093      12.30854738
Si       9.41243331       2.63688194      12.86749247
Si       5.73476889       1.36445600       1.58239052
16
Lattice="6.397704785674197 0.5964806748446232 1.7138150342468168 2.789645783485918 4.358495293909698 0.9214315701784558 6.266945301149665 1.7319389631372564 14.24068430399691" Properties=species:S:1:pos:R:3 unique_starting_index=3 config_type=initial n_minim_iter=12 stress="0.0003374911081515112 -5.997313503691261e-06 0.00028458280131833235 -5.997313503691261e-06 -0.000835096697910296 -5.166678921593288e-05 0.00028458280131833235 -5.166678921593288e-05 -0.00023983378213858616" pbc="T T T"
Si       8.99163136       5.18481837       8.75102414
Si       9.70720435       2.88883419      15.18252512
Si       2.37817102       3.01336924       4.13960140
Si       6.14941366       3.30439025       2.88768704
Si       8.52972277       1.40941313       6.86233301
Si       9.95431134       3.09748256       9.38320190
Si       4.69039709       3.21468312       4.71563092
Si       8.44006902       3.50421497       3.52171289
Si       6.25621719       1.70598747      10.26371078
Si       8.40503261       1.42515363       9.27481615
Si      10.90239245       3.82370898      11.42866091
Si       4.64490914       1.11389898       5.88859323
Si       7.12770680       4.67849490      11.22427210
Si       7.10665942       2.61596939      12.30936590
Si       9.40358089       2.62841032      12.86021152
Si       5.73331822       1.36028783       1.58075384
16
Lattice="6.3925188850213495 0.5978102662680221 1.7087961790131616 2.7881212707973786 4.361366375058926 0.9183538178025948 6.251868103971047 1.7310601602028644 14.237991154268585" Properties=species:S:1:pos:R:3 unique_starting_index=3 config_type=initial n_minim_iter=13 stress="7.7520680068843e-05 9.386006751706261e-06 3.816691999890565e-05 9.386006751706261e-06 -0.0001785092613719188 -2.0872023610253685e-05 3.816691999890565e-05 -2.0872023610253685e-05 -2.6865503342000134e-05" pbc="T T T"
Si       8.98238461       5.19269293       8.74624774
Si       9.68930769       2.88502379      15.17548212
Si       2.37881402       3.01759528       4.13672667
Si       6.14480201       3.30639354       2.88347312
Si       8.52160267       1.41712658       6.85907164
Si       9.94142572       3.10244715       9.37377963
Si       4.68599973       3.22142009       4.71276373
Si       8.43464582       3.50499221       3.51399669
Si       6.24185540       1.69735303      10.26232045
Si       8.39602221       1.42365559       9.27238288
Si      10.88602655       3.82098528      11.42156074
Si       4.63900004       1.11837971       5.88582704
Si       7.10743007       4.67770515      11.21169377
Si       7.08809593       2.61764095      12.30812418
Si       9.38590368       2.62796467      12.85245361
Si       5.72834341       1.35941342       1.57712171
16
Lattice="6.382037900755365 0.5994232604926063 1.701004410737148 2.7844336990210534 4.365527349184392 0.9135122282577327 6.22508176903108 1.728877562888558 14.237342898218161" Properties=species:S:1:pos:R:3 unique_starting_index=3 config_type=initial n_minim_iter=14 stress="-0.0003925453438650012 1.498810295706283e-05 -0.00035494505247983245 1.498810295706283e-05 0.0010367642906536885 6.753566184467327e-05 -0.00035494505247983245 6.753566184467327e-05 0.00030936525011875533" pbc="T T T"
Si       8.96621505       5.20567493       8.73949690
Si       9.65562515       2.87758492      15.16812592
Si       2.37790023       3.02482736       4.13404889
Si       6.13564445       3.30701082       2.87911006
Si       8.50699897       1.42783216       6.85692203
Si       9.91765996       3.11215748       9.36124800
Si       4.67847370       3.23469273       4.70845561
Si       8.42401699       3.50437100       3.50273497
Si       6.21588647       1.68030956      10.26189857
Si       8.37868932       1.41950121       9.27124058
Si      10.85411171       3.81564169      11.41266649
Si       4.62854617       1.12778146       5.88469458
Si       7.06977390       4.67071113      11.19064530
Si       7.05500883       2.61876053      12.30772298
Si       9.35340907       2.62742158      12.84335845
Si       5.71688349       1.35827657       1.57181759
16
Lattice="6.3854660269706445 0.5952555572690272 1.706124274198206 2.7853244584829597 4.353768410761959 0.9120474943004143 6.236701162775544 1.7102562813867277 14.251207362209081" Properties=species:S:1:pos:R:3 unique_starting_index=3 config_type=initial n_minim_iter=15 stress="-8.359237860268802e-06 1.7896337950230815e-05 4.709285137765951e-05 1.7896337950230815e-05 -0.00012910401151183882 -1.4815615889889879e-05 4.709285137765951e-05 -1.4815615889889879e-05 -7.538590478475944e-05" pbc="T T T"
Si       8.98265225       5.18973183       8.74300559
Si       9.66552050       2.85240250      15.18413639
Si       2.37806611       3.01622788       4.13947663
Si       6.14185359       3.28947889       2.88806340
Si       8.52055112       1.41439201       6.87132987
Si       9.92771962       3.10113537       9.37303492
Si       4.68723981       3.23164213       4.71037642
Si       8.43261094       3.48909496       3.51079479
Si       6.22361147       1.65648598      10.26926955
Si       8.39026030       1.40433534       9.28623863
Si      10.86077770       3.79557081      11.42535093
Si       4.63745455       1.12914491       5.89816642
Si       7.06906987       4.63213709      11.18663120
Si       7.06438890       2.59634189      12.31439202
Si       9.36261546       2.60948224      12.85811321
Si       5.71433096       1.35428110       1.57667853
16
Lattice="6.388715597464188 0.590403620492819 1.7012175234757485 2.786969816816257 4.341617198832588 0.9004846060538686 6.231442802400406 1.673585588559962 14.249840403940643" Properties=species:S:1:pos:R:3 unique_starting_index=3 config_type=initial n_minim_iter=16 stress="0.0007776709425755374 -0.00018364438962378908 0.0004402440869998696 -0.00018364438962378908 -0.0005606046710021043 -0.00010079975791577309 0.0004402440869998696 -0.00010079975791577309 0.00039124648849163304" pbc="T T T"
Si       9.00881658       5.18906743       8.72462474
Si       9.65923944       2.79285759      15.17481809
Si       2.38257280       3.01569338       4.13703169
Si       6.15324727       3.26924408       2.88292623
Si       8.53840483       1.41306236       6.87586153
Si       9.92203052       3.07998404       9.35632325
Si       4.69652561       3.23360280       4.70753575
Si       8.44272807       3.46955135       3.50637088
Si       6.20926959       1.59335691      10.26269924
Si       8.40651856       1.37963077       9.29982117
Si      10.85862679       3.75327049      11.42225221
Si       4.65021480       1.14489233       5.90223633
Si       7.02126046       4.57434545      11.13433472
Si       7.04382206       2.55547635      12.30704327
Si       9.35049197       2.56032829      12.84784104
Si       5.71098591       1.33873909       1.57167574
16
Lattice="6.373053288132608 0.5953554772764886 1.6820683596348227 2.782010896662803 4.347907002257279 0.8935510799337862 6.182686078677532 1.6845611301538626 14.216891970440415" Properties=species:S:1:pos:R:3 unique_starting_index=3 config_type=initial n_minim_iter=17 stress="-0.0008238453118840938 9.27941892502361e-05 -0.00036846858739719013 9.27941892502361e-05 -0.00026411603748360493 0.0002229986504692412 -0.00036846858739719013 0.0002229986504692412 -0.0006530236281610841" pbc="T T T"
Si       8.99816848       5.21902520       8.68239790
Si       9.59781810       2.80551837      15.13568297
Si       2.35975653       3.03113794       4.13760969
Si       6.14128781       3.27090921       2.86681510
Si       8.51353042       1.41911435       6.84950579
Si       9.87720487       3.09960345       9.32392270
Si       4.68201816       3.24536052       4.69218865
Si       8.42105811       3.47891405       3.48852759
Si       6.16055538       1.59231585      10.22270067
Si       8.36954633       1.39117869       9.27330667
Si      10.81092331       3.77007468      11.38929275
Si       4.63621595       1.17016674       5.88812804
Si       6.96112080       4.57406456      11.08543000
Si       6.99104971       2.55557141      12.26347663
Si       9.29913485       2.56153948      12.80879330
Si       5.69756036       1.34301799       1.54968671
16
Lattice="6.383024072451642 0.5849944086707574 1.6832419075324807 2.782277324255038 4.346467630275423 0.8836910262784471 6.193814615508712 1.6430941794476916 14.225488179092336" Properties=species:S:1:pos:R:3 unique_starting_index=3 config_type=initial n_minim_iter=18 stress="0.0009118921347639801 0.00022844608040007984 0.00029478951825912463 0.00022844608040007984 0.0021798436635212925 -0.0003535087627483135 0.00029478951825912463 -0.0003535087627483135 0.0013801857226799538" pbc="T T T"
Si       9.04073281       5.20475953       8.66846967
Si       9.61045380       2.75735636      15.14912566
Si       2.35975481       3.02488331       4.14746561
Si       6.14698140       3.25915661       2.86040812
Si       8.53469958       1.39806378       6.85278105
Si       9.89031814       3.08013741       9.33395328
Si       4.68544404       3.22866736       4.68104829
Si       8.43169517       3.46848296       3.49006960
Si       6.16145395       1.54953220      10.20994151
Si       8.38148948       1.35916413       9.29081995
Si      10.82259947       3.73950707      11.40027675
Si       4.65091391       1.16219632       5.89789018
Si       6.95358863       4.53347666      11.07487014
Si       7.00106035       2.50969299      12.25877928
Si       9.30565552       2.50712612      12.81556357
Si       5.71031565       1.32927719       1.54219319
16
Lattice="6.386295313226386 0.5701081397020801 1.662861699879809 2.778870100598597 4.324533205088339 0.8606711266836619 6.163477002607231 1.5814886948771407 14.188031502538886" Properties=species:S:1:pos:R:3 unique_starting_index=3 config_type=initial n_minim_iter=19 stress="0.0006432994031963847 -5.795857275911112e-05 0.00021194643925757234 -5.795857275911112e-05 0.00034773751635840984 -0.0003310196859588196 0.00021194643925757234 -0.0003310196859588196 0.00039231718714796503" pbc="T T T"
Si       9.07723540       5.18280093       8.60740969
Si       9.57681465       2.66894668      15.10071350
Si       2.35775706       3.01336187       4.14019683
Si       6.14634227       3.22641060       2.83140421
Si       8.54633394       1.38303595       6.82520270
Si       9.87128696       3.04718297       9.28866536
Si       4.68223115       3.21022298       4.64658569
Si       8.43533968       3.43349912       3.46093798
Si       6.12132747       1.45961056      10.15837478
Si       8.37867643       1.31017417       9.28158890
Si      10.79409399       3.67098278      11.36388792
Si       4.65600135       1.16397547       5.88786514
Si       6.87847121       4.44491757      10.98973317
Si       6.96026255       2.44165888      12.20809121
Si       9.26230335       2.42158926      12.76662775
Si       5.71341161       1.29834861       1.51709110
16
Lattice="6.384182182853973 0.5725858729661015 1.659303859634486 2.777851637404311 4.323680603224023 0.8656763665127399 6.1568861973298254 1.6041299378098501 14.170076390426452" Properties=species:S:1:pos:R:3 unique_starting_index=3 config_type=initial n_minim_iter=20 stress="-0.0008305078497505103 -0.00018219981473882143 -0.00015215138528396364 -0.00018219981473882143 -0.0015335726417542409 0.0005558619163999559 -0.00015215138528396364 0.0005558619163999559 -0.0009492340030686341" pbc="T T T"
Si       9.06278234       5.18240763       8.60530075
Si       9.57297705       2.70018429      15.08152162
Si       2.35942814       3.01175492       4.13205822
Si       6.13739947       3.23516269       2.82475496
Si       8.53478729       1.39208405       6.80861572
Si       9.86781998       3.05573198       9.27754670
Si       4.67692776       3.20709196       4.64057965
Si       8.42822053       3.43804510       3.45353715
Si       6.11975708       1.48929581      10.14787397
Si       8.37052757       1.32807733       9.26486909
Si      10.78550256       3.68679403      11.35395137
Si       4.64465637       1.15477445       5.87865358
Si       6.89069302       4.47027646      11.00317820
Si       6.96035165       2.46809291      12.19468687
Si       9.25562221       2.44772509      12.75389097
Si       5.71564487       1.30015570       1.51523521
16
Lattice="6.380465760172037 0.5722171915074632 1.642595071194799 2.7784296500918306 4.320858690278145 0.8485266549524576 6.123332982350483 1.572728586351019 14.153651594303845" Properties=species:S:1:pos:R:3 unique_starting_index=3 config_type=initial n_minim_iter=21 stress="-0.0004927609661843792 2.233462821467348e-05 -0.00013465263736086292 2.233462821467348e-05 -0.0005239461391483765 -3.0115920533475074e-05 -0.00013465263736086292 -3.0115920533475074e-05 -0.00046141820288288807" pbc="T T T"
Si       9.08986042       5.19257381       8.56105567
Si       9.53574486       2.66408362      15.05416709
Si       2.35579622       3.01491429       4.12151962
Si       6.13357734       3.22544996       2.80020811
Si       8.53365784       1.39091847       6.78889265
Si       9.84446415       3.04971547       9.24461604
Si       4.68057850       3.20889152       4.61828137
Si       8.42330113       3.42665725       3.42960037
Si       6.07635169       1.44137162      10.11691037
Si       8.36448458       1.31523451       9.26424943
Si      10.74695271       3.65570302      11.34566536
Si       4.63846760       1.16143244       5.87997362
Si       6.83022977       4.42061959      10.95682926
Si       6.91587218       2.43652805      12.15919304
Si       9.21267009       2.41008120      12.73165495
Si       5.71357857       1.28951630       1.49349062
