12
Lattice="5.4900360941982385 -1.0949347590379352 -5.488949333088948e-10 -0.9900513807495965 3.6753241984671132 7.116247638652657e-10 8.312977035515313e-10 -2.258142487029793e-09 12.819162048033576" Properties=species:S:1:pos:R:3 unique_starting_index=57 config_type=initial n_minim_iter=1 energy=-1956.655002692906 free_energy=-1956.655002692906 pbc="T T T"
Si       0.63096635       2.55917482       0.78281876
Si       3.86901837       0.02121461       7.19239978
Si       3.36139115       1.88671547       8.55910927
Si       1.13859357       0.69367396       2.14952824
Si       1.52811975       1.82786373      10.05753698
Si       2.97186497       0.75252571       3.64795596
Si       1.08348551       3.55165028       5.66084369
Si       3.41649921      -0.97126084      12.07042471
Si       4.28085187       1.25692999      12.07313759
Si       0.21913286       1.32345944       5.66355656
Si       4.80851601      -0.69394895       3.66980169
Si      -0.30853129       3.27433838      10.07938272
12
Lattice="5.504294950119168 -1.1014366758742027 -5.509649288934754e-10 -0.9950854466532603 3.684800972018998 7.136205817141117e-10 8.340582561565727e-10 -2.2656412700752554e-09 12.861731600475448" Properties=species:S:1:pos:R:3 unique_starting_index=57 config_type=initial n_minim_iter=2 stress="0.001997057016108544 -0.0001072022082040335 -1.1587010334511945e-13 -0.0001072022082040335 0.001612581352491371 2.0319854486384327e-13 -1.1587010334511945e-13 2.0319854486384327e-13 0.0004989371276682606" pbc="T T T"
Si       0.63018639       2.56359957       0.78516848
Si       3.87902312       0.01976472       7.21603428
Si       3.36897931       1.88863412       8.58748760
Si       1.14023020       0.69473017       2.15662180
Si       1.53055685       1.83038377      10.09080556
Si       2.97865266       0.75298052       3.65993976
Si       1.08297196       3.55906738       5.68003950
Si       3.42623756      -0.97570309      12.11090530
Si       4.29073583       1.25688616      12.11402039
Si       0.21847368       1.32647813       5.68315459
Si       4.82133339      -0.69878892       3.68122483
Si      -0.31212388       3.28215321      10.11209064
12
Lattice="5.488153068739913 -1.1035724118933672 -5.502943770552655e-10 -0.994807955744021 3.6787656036898513 7.125394346662318e-10 8.370469424627197e-10 -2.2737597569897284e-09 12.907819125925785" Properties=species:S:1:pos:R:3 unique_starting_index=57 config_type=initial n_minim_iter=3 stress="-0.0004714748674026589 -0.0002556692865162996 1.4934422568877451e-13 -0.0002556692865162996 -0.0005067592420974562 -5.1700167210969e-13 1.4934422568877451e-13 -5.1700167210969e-13 0.0025227005193797242" pbc="T T T"
Si       0.62356379       2.55184296       0.78670210
Si       3.86978134       0.02335022       7.24061166
Si       3.36061739       1.88176205       8.61791395
Si       1.13272773       0.69343114       2.16400439
Si       1.52434390       1.82200189      10.12651760
Si       2.96900123       0.75319130       3.67260804
Si       1.07341562       3.55040126       5.70234349
Si       3.41992950      -0.97520807      12.15625305
Si       4.27790508       1.25154362      12.16141835
Si       0.21544005       1.32364957       5.70750879
Si       4.80963281      -0.69952703       3.69054696
Si      -0.31628769       3.27472022      10.14445652
12
Lattice="5.49107773339597 -1.107909255399429 -5.51247986780072e-10 -0.9963971035120276 3.6879993917989906 7.142690535018892e-10 8.319417388978464e-10 -2.2598919488320437e-09 12.829093500308495" Properties=species:S:1:pos:R:3 unique_starting_index=57 config_type=initial n_minim_iter=4 stress="-0.0018318332435619397 -0.0016977750935420885 -2.532212607002108e-13 -0.0016977750935420885 0.0018841798384900284 6.406307107891486e-13 -2.532212607002108e-13 6.406307107891486e-13 -0.0011274847015885808" pbc="T T T"
Si       0.61637702       2.54192219       0.77917872
Si       3.87830361       0.03816795       7.19372546
Si       3.36952762       1.88456068       8.56365546
Si       1.12515302       0.69552946       2.14910871
Si       1.52523388       1.81668374      10.06442039
Si       2.96944676       0.76340639       3.64987364
Si       1.06504159       3.55629490       5.67195361
Si       3.42963905      -0.97620476      12.08650036
Si       4.28353866       1.25440464      12.09626973
Si       0.21114198       1.32568549       5.68172298
Si       4.81875266      -0.69712037       3.65938176
Si      -0.32407202       3.27721050      10.07392851
12
Lattice="5.503241869472324 -1.0916483199224 -5.49172383804318e-10 -0.9899206968803301 3.676888790312126 7.118918978719066e-10 8.319687516078101e-10 -2.2599653263330257e-09 12.829510054215598" Properties=species:S:1:pos:R:3 unique_starting_index=57 config_type=initial n_minim_iter=5 stress="-3.2425883437747126e-05 0.00020672304992041187 4.0519497781367783e-14 0.00020672304992041187 -0.000624838167713076 -1.2895433007705203e-13 4.0519497781367783e-14 -1.2895433007705203e-13 3.06118523873998e-05" pbc="T T T"
Si       0.62306705       2.53429247       0.77900947
Si       3.89025413       0.05094800       7.19376449
Si       3.38452874       1.88938833       8.56287396
Si       1.12879244       0.69585213       2.14811894
Si       1.53405032       1.81398521      10.06473719
Si       2.97927086       0.77125526       3.64998216
Si       1.07506079       3.55029911       5.67326457
Si       3.43826039      -0.96505865      12.08801960
Si       4.29884124       1.26234513      12.09842617
Si       0.21447994       1.32289534       5.68367114
Si       4.83076959      -0.68154360       3.65787420
Si      -0.31744841       3.26678407      10.07262922
12
Lattice="5.503109383844148 -1.088166396147889 -5.485504387052227e-10 -0.9861996093087851 3.6837390055697288 7.128572831692591e-10 8.320962387534342e-10 -2.2603116332443207e-09 12.831475990572471" Properties=species:S:1:pos:R:3 unique_starting_index=57 config_type=initial n_minim_iter=6 stress="0.00046269594558853244 0.0015527125526728705 3.1348206151676727e-13 0.0015527125526728705 0.0015359464057832178 -2.0180435384052637e-14 3.1348206151676727e-13 -2.0180435384052637e-14 0.0010777766944521441" pbc="T T T"
Si       0.62662535       2.53879733       0.77866488
Si       3.89028444       0.05677528       7.19440287
Si       3.38162618       1.91119723       8.55938937
Si       1.13528360       0.68437537       2.14365137
Si       1.53929895       1.81223944      10.06639764
Si       2.97761083       0.78333316       3.65065965
Si       1.07939535       3.56034366       5.67863058
Si       3.43751443      -0.96477105      12.09436857
Si       4.29996391       1.26837147      12.10072206
Si       0.21694587       1.32720114       5.68498407
Si       4.82437491      -0.66652959       3.65863858
Si      -0.30746513       3.26210219      10.07437658
12
Lattice="5.51524892669522 -1.099151216314603 -5.51272680852903e-10 -0.9966729537880642 3.6790743507669452 7.127147630906051e-10 8.311758713858503e-10 -2.2578115413427816e-09 12.817283315218774" Properties=species:S:1:pos:R:3 unique_starting_index=57 config_type=initial n_minim_iter=7 stress="0.002147876821345173 -0.0004957939706989249 -2.0072464574123614e-13 -0.0004957939706989249 -0.0005087917410299424 -1.2729709415565395e-13 -2.0072464574123614e-13 -1.2729709415565395e-13 0.00039557491418971003" pbc="T T T"
Si       0.62141970       2.52785580       0.77716513
Si       3.89715628       0.05206733       7.18580679
Si       3.38134501       1.90732770       8.54698992
Si       1.13723097       0.67259543       2.13834826
Si       1.53988143       1.79866509      10.05562076
Si       2.97869455       0.78125804       3.64697910
Si       1.07177410       3.55131558       5.67543029
Si       3.44680188      -0.97139245      12.08407195
Si       4.30436886       1.25479034      12.08889939
Si       0.21420712       1.32513279       5.68025773
Si       4.83163171      -0.66919519       3.65316250
Si      -0.31305572       3.24911832      10.06180416
12
Lattice="5.505819736884405 -1.0988420512279446 -5.506067556838643e-10 -0.9940927206034134 3.6824479846464944 7.13141717992771e-10 8.305178994472533e-10 -2.2560242220906395e-09 12.807136951445727" Properties=species:S:1:pos:R:3 unique_starting_index=57 config_type=initial n_minim_iter=8 stress="-2.779462820884816e-05 -5.489846860185295e-05 -1.9340280341682353e-14 -5.489846860185295e-05 9.853531962658574e-05 5.200419569177772e-14 -1.9340280341682353e-14 5.200419569177772e-14 -0.0001777990372472934" pbc="T T T"
Si       0.62013515       2.51968334       0.77509909
Si       3.89159187       0.06392259       7.17866757
Si       3.37695395       1.91753264       8.53737190
Si       1.13477307       0.66607329       2.13380343
Si       1.54076874       1.79121043      10.04849580
Si       2.97095828       0.79239549       3.64492732
Si       1.06791042       3.55574961       5.67481460
Si       3.44381660      -0.97214368      12.07838307
Si       4.29793178       1.25629916      12.08280281
Si       0.21379524       1.32730677       5.67923433
Si       4.82185846      -0.65845208       3.64638802
Si      -0.31013143       3.24205801      10.04995650
12
Lattice="5.497885568818618 -1.1008447612976566 -5.504450250662707e-10 -0.9938734072214382 3.6830958891079746 7.132416266979119e-10 8.306625257336398e-10 -2.256417085875341e-09 12.809367184722776" Properties=species:S:1:pos:R:3 unique_starting_index=57 config_type=initial n_minim_iter=9 stress="-0.00171109259305528 2.9595755051256368e-05 8.220864806962555e-14 2.9595755051256368e-05 -3.5489565403903464e-05 8.464942622665832e-14 8.220864806962555e-14 8.464942622665832e-14 -0.0005273385043852994" pbc="T T T"
Si       0.62307093       2.50035078       0.77428081
Si       3.88094124       0.08190035       7.17896440
Si       3.37235345       1.92505171       8.53797622
Si       1.13165872       0.65719941       2.13329262
Si       1.54454324       1.77639885      10.05449284
Si       2.95946893       0.80585228       3.64980924
Si       1.06370337       3.56049635       5.67697625
Si       3.44030880      -0.97824522      12.08165984
Si       4.28920081       1.25157941      12.08493712
Si       0.21481136       1.33067171       5.68025353
Si       4.81005146      -0.64490185       3.64340780
Si      -0.30603929       3.22715297      10.04809139
12
Lattice="5.5055908297343885 -1.1003107390614728 -5.508506262580272e-10 -0.9952140386274521 3.6815485681989717 7.130559977724296e-10 8.315525663990369e-10 -2.2588347981258764e-09 12.82309220221088" Properties=species:S:1:pos:R:3 unique_starting_index=57 config_type=initial n_minim_iter=10 stress="0.00033834325740636153 -7.623098017756109e-05 -2.974038903845054e-14 -7.623098017756109e-05 -8.495096822512288e-07 -9.913811080718402e-15 -2.974038903845054e-14 -9.913811080718402e-15 8.262307101682511e-05" pbc="T T T"
Si       0.62920173       2.49840208       0.77647975
Si       3.88117507       0.08283575       7.18802585
Si       3.37568174       1.92516403       8.55027510
Si       1.13469506       0.65607379       2.13872900
Si       1.54917667       1.77496808      10.06808605
Si       2.96120013       0.80626974       3.65653995
Si       1.06867775       3.56364688       5.67814137
Si       3.44169905      -0.98240906      12.08968747
Si       4.29386737       1.24778893      12.09243664
Si       0.21650943       1.33344889       5.68089054
Si       4.81302763      -0.64343554       3.65033870
Si      -0.30265083       3.22467336      10.06188480
12
Lattice="5.503004532098324 -1.0959440106087692 -5.499136946326266e-10 -0.9919856999854688 3.680739374208127 7.127041038020249e-10 8.319538785286697e-10 -2.2599249250041464e-09 12.829280701468878" Properties=species:S:1:pos:R:3 unique_starting_index=57 config_type=initial n_minim_iter=11 stress="8.712356586274117e-05 0.00016728541279518948 3.00438447617976e-14 0.00016728541279518948 1.328644588576163e-05 -2.4645439284129032e-14 3.00438447617976e-14 -2.4645439284129032e-14 9.112800798726195e-05" pbc="T T T"
Si       0.62951156       2.49480328       0.77730079
Si       3.88150728       0.08999208       7.19194114
Si       3.37767201       1.93280099       8.55762869
Si       1.13334683       0.65199437       2.14298834
Si       1.55205979       1.76995155      10.07448079
Si       2.95895905       0.81484381       3.65984044
Si       1.07015229       3.56985337       5.67650674
Si       3.44086655      -0.98505801      12.09114709
Si       4.29794116       1.24434558      12.09740776
Si       0.21307768       1.34044978       5.68276740
Si       4.80946314      -0.63642207       3.65213076
Si      -0.29844430       3.22121743      10.06677111
12
Lattice="5.501639182413863 -1.0953803402796418 -5.497258617643708e-10 -0.991379154198055 3.6806539999203154 7.126497314940555e-10 8.32112175245352e-10 -2.260354923234589e-09 12.831721741849663" Properties=species:S:1:pos:R:3 unique_starting_index=57 config_type=initial n_minim_iter=12 stress="-3.967385559377392e-05 3.395934346440647e-05 9.263741079491306e-15 3.395934346440647e-05 -5.10331712833951e-06 -5.198882874043468e-15 9.263741079491306e-15 -5.198882874043468e-15 1.0286680643081543e-05" pbc="T T T"
Si       0.62900282       2.49220763       0.77780530
Si       3.88125722       0.09306602       7.19366617
Si       3.37801289       1.93657157       8.56079865
Si       1.13224714       0.64870208       2.14493778
Si       1.55302338       1.76598124      10.07676293
Si       2.95723666       0.81929241       3.66090206
Si       1.06939800       3.57395922       5.67565003
Si       3.44086203      -0.98868556      12.09151090
Si       4.29992461       1.23983702      12.09909249
Si       0.21033542       1.34543664       5.68323162
Si       4.80695465      -0.63348016       3.65311593
Si      -0.29669461       3.21875382      10.06897680
12
Lattice="5.500022497652965 -1.0948620513132687 -5.495297243994473e-10 -0.9906797569727231 3.680959255597712 7.12658148854476e-10 8.321856137703246e-10 -2.260554412121323e-09 12.83285421262177" Properties=species:S:1:pos:R:3 unique_starting_index=57 config_type=initial n_minim_iter=13 stress="-0.0001622387629515303 -0.0001450074562499472 -2.0857446794471736e-14 -0.0001450074562499472 -4.445777563943991e-05 1.6411767166624106e-14 -2.0857446794471736e-14 1.6411767166624106e-14 -8.684969418934558e-05" pbc="T T T"
Si       0.62907769       2.48780093       0.77896213
Si       3.88026506       0.09829627       7.19538924
Si       3.37966422       1.94207614       8.56337787
Si       1.12967853       0.64402106       2.14695076
Si       1.55414149       1.75959154      10.07619949
Si       2.95520126       0.82650566       3.65977238
Si       1.06692891       3.58414741       5.67471824
Si       3.44241384      -0.99805021      12.09114535
Si       4.30421414       1.22924247      12.09863173
Si       0.20512861       1.35685473       5.68220462
Si       4.80282055      -0.62874195       3.65494051
Si      -0.29347780       3.21483915      10.07136762
12
Lattice="5.501806767815236 -1.0963901563147955 -5.49914612155645e-10 -0.9917322193933246 3.6824248623270774 7.129845710030142e-10 8.3161579026668e-10 -2.2590065398510276e-09 12.824067156190859" Properties=species:S:1:pos:R:3 unique_starting_index=57 config_type=initial n_minim_iter=14 stress="2.1859745900590288e-05 2.6351614640720806e-05 4.595270460193918e-15 2.6351614640720806e-05 2.7631135916497868e-05 -1.796052321205205e-15 4.595270460193918e-15 -1.796052321205205e-15 2.568882347104744e-05" pbc="T T T"
Si       0.63182809       2.48794617       0.77964593
Si       3.87824647       0.09808854       7.19167951
Si       3.38256392       1.93924790       8.55510960
Si       1.12751064       0.64678680       2.14307602
Si       1.55300047       1.76105979      10.06340137
Si       2.95707408       0.82497492       3.65136779
Si       1.06292212       3.59471545       5.67633288
Si       3.44715244      -1.00868075      12.08836646
Si       4.30633038       1.21996289      12.08927015
Si       0.20374417       1.36607181       5.67723657
Si       4.80307031      -0.62958709       3.65510094
Si      -0.29299575       3.21562179      10.06713452
12
Lattice="5.502770802142967 -1.0975055574367745 -5.501736099102538e-10 -0.9927776870328288 3.6817985685514807 7.129420435948937e-10 8.315332430113491e-10 -2.258782307949925e-09 12.822794222754153" Properties=species:S:1:pos:R:3 unique_starting_index=57 config_type=initial n_minim_iter=15 stress="-6.167485724574217e-05 -1.1287003270191854e-05 -3.227091012708136e-15 -1.1287003270191854e-05 -2.0704513048765442e-05 9.935857673403218e-15 -3.227091012708136e-15 9.935857673403218e-15 -7.572933669743395e-05" pbc="T T T"
Si       0.63146072       2.48674785       0.77867829
Si       3.87853241       0.09754515       7.19007540
Si       3.38283442       1.93901432       8.55368150
Si       1.12715870       0.64527869       2.14228439
Si       1.55503703       1.76042032      10.06287086
Si       2.95495609       0.82387269       3.65147375
Si       1.06025758       3.59965076       5.67633220
Si       3.44973555      -1.01535776      12.08772931
Si       4.30647342       1.21425861      12.08952539
Si       0.20351970       1.37003439       5.67812828
Si       4.80366296      -0.62903975       3.65372090
Si      -0.29366984       3.21333275      10.06511802
12
Lattice="5.503203386330474 -1.0975907407826102 -5.502166675119923e-10 -0.9929546127210954 3.681588536466637 7.12916518958038e-10 8.316028686981911e-10 -2.2589714396183686e-09 12.823867897032958" Properties=species:S:1:pos:R:3 unique_starting_index=57 config_type=initial n_minim_iter=16 stress="-1.967043671331325e-06 -3.7119902904074753e-06 -1.6079214599895131e-15 -3.7119902904074753e-06 -2.4050953770201235e-06 1.114548564317966e-15 -1.6079214599895131e-15 1.114548564317966e-15 -1.040147829463393e-05" pbc="T T T"
Si       0.63145171       2.48660274       0.77839892
Si       3.87879707       0.09739506       7.19033287
Si       3.38313539       1.93868828       8.55422385
Si       1.12711339       0.64530951       2.14228990
Si       1.55559711       1.76060480      10.06398986
Si       2.95465167       0.82339300       3.65205591
Si       1.05983265       3.60095626       5.67693861
Si       3.45041614      -1.01695847      12.08887256
Si       4.30682803       1.21281746      12.09084354
Si       0.20342075       1.37118033       5.67890959
Si       4.80405878      -0.62901815       3.65383185
Si      -0.29381000       3.21301594      10.06576580
12
Lattice="5.5033205769951925 -1.0975014480010388 -5.502085378469644e-10 -0.9929483752803512 3.6814260506516536 7.128874919989334e-10 8.316869680787636e-10 -2.2591998877225703e-09 12.825164765270523" Properties=species:S:1:pos:R:3 unique_starting_index=57 config_type=initial n_minim_iter=17 stress="3.642839624114931e-05 -7.502033087371824e-08 -2.0918650869714454e-16 -7.502033087371824e-08 9.086056193122188e-06 -6.082382789443659e-15 -2.0918650869714454e-16 -6.082382789443659e-15 4.068963959035884e-05" pbc="T T T"
Si       0.63138022       2.48646635       0.77792236
Si       3.87899199       0.09745825       7.19050474
Si       3.38318742       1.93836020       8.55469345
Si       1.12718479       0.64556440       2.14211107
Si       1.55595018       1.76086287      10.06563042
Si       2.95442203       0.82306173       3.65304804
Si       1.05974099       3.60185524       5.67782976
Si       3.45063122      -1.01793064      12.09041214
Si       4.30723251       1.21162671      12.09213999
Si       0.20313970       1.37229789       5.67955760
Si       4.80412054      -0.62891452       3.65413857
Si      -0.29374833       3.21283912      10.06672096
