1
Lattice="2.8294086786382406 2.0081584898094745e-16 -2.357166620389651e-50 1.41470433931912 2.4503397933888773 -4.1180640102952077e-50 2.7610846836052528e-49 4.7544602239093935e-49 2.6410398092271596" Properties=species:S:1:pos:R:3:forces:R:3 cutoff=-1.0 nneightol=1.2 n_minim_iter=1 energy=-162.6673204007555 stress="0.08854989789015813 -3.67235841173546e-17 -2.4442914420580434e-17 -3.67235841173546e-17 0.08854989789015806 1.1368797404921131e-17 -2.4442914420580434e-17 1.1368797404921131e-17 0.09446062638103764" free_energy=-162.6673204007555 pbc="T T T"
Si       0.00000000       0.00000000       0.00000000       0.00000000      -0.00000000       0.00000000
