14
Lattice="5.880386474571071 -0.4196396872084007 0.6076158177639069 -0.46942914132037716 5.471311864680279 -1.621753035981765 1.168108561367493 -4.334933684096165 9.275415085680327" Properties=species:S:1:pos:R:3 unique_starting_index=196 config_type=initial n_minim_iter=4 energy=-2280.1157974217476 free_energy=-2280.1157974217476 pbc="T T T"
Si       4.41547519      -2.46917875       9.64577367
Si       5.20399066       0.28511944       5.11755850
Si       3.08246532      -0.33454045       6.97315379
Si       0.11335647       3.46537887       0.89202662
Si       1.64915993       3.69729187       2.73397424
Si       6.42736171      -1.22631291       6.54120235
Si       3.51414676       0.06324695       3.36482241
Si       2.90379096      -2.74778207       7.14445918
Si       2.13909881      -2.88640231       9.34258789
Si       1.53805677       1.48999211       3.72683097
Si      -0.23202311       4.72383459      -1.18801574
Si       5.21012684      -3.02397254       7.49521601
Si       3.28578067       4.22324696      -0.28280947
Si       3.96169507       2.37267825       2.55983526
