18
Lattice="5.963731837570411 -1.4787474440984478e-15 4.24046449981411e-14 -2.9818659187852044 5.164743272694029 9.289257856484398e-14 -8.066015440242287e-14 -2.5060008944538725e-13 11.34393486501683" Properties=species:S:1:pos:R:3 unique_starting_index=28 config_type=initial n_minim_iter=1 energy=-2927.7219928716586 free_energy=-2927.7219928716586 pbc="T T T"
Si      -1.43079515       3.74326153       2.42451446
Si       0.97529123       4.53221745       2.42451446
Si       0.45550391       2.05400757       2.42451446
Si      -0.97529123       4.53221745       8.09648189
Si      -0.45550392       2.05400757       8.09648189
Si       1.43079514       3.74326153       8.09648189
Si      -1.86721144       4.34242556       4.70998391
Si       1.71239064       4.61058303       4.70998391
Si       0.15482079       1.37647796       4.70998391
Si      -1.71239065       4.61058303      10.38195134
Si      -0.15482079       1.37647796      10.38195134
Si       1.86721143       4.34242556      10.38195134
Si       4.32879573       1.15591453       0.86348505
Si       1.81851940       0.83793894       0.86348505
Si       2.79828262       3.17088980       0.86348505
Si       4.14521243       0.83793894       6.53545249
Si       3.16544921       3.17088980       6.53545249
Si       1.63493611       1.15591453       6.53545249
18
Lattice="5.992386146549973 -1.221652494221611e-15 4.2608389202783335e-14 -2.996193073274985 5.1895586321982154 9.333890524763283e-14 -8.123684611211505e-14 -2.5239179186775377e-13 11.4250400059679" Properties=species:S:1:pos:R:3 unique_starting_index=28 config_type=initial n_minim_iter=2 stress="0.002539245792978717 -4.4997126221360267e-17 2.851380394235503e-18 -4.4997126221360267e-17 0.0025392457929787966 -5.218416721504975e-17 2.851380394235503e-18 -5.218416721504975e-17 0.002425587454302493" pbc="T T T"
Si      -1.43737685       3.76269522       2.44082907
Si       0.98108499       4.55301589       2.44082907
Si       0.45629185       2.06340616       2.44082907
Si      -0.98108500       4.55301589       8.15334908
Si      -0.45629186       2.06340616       8.15334908
Si       1.43737684       3.76269522       8.15334908
Si      -1.87495331       4.36373548       4.74324138
Si       1.72038936       4.63144808       4.74324138
Si       0.15456394       1.38393370       4.74324138
Si      -1.72038936       4.63144808      10.45576138
Si      -0.15456394       1.38393370      10.45576138
Si       1.87495330       4.36373548      10.45576138
Si       4.34961146       1.16167380       0.87109574
Si       1.82742636       0.84184772       0.87109574
Si       2.81154140       3.18603712       0.87109574
Si       4.16495978       0.84184772       6.58361574
Si       3.18084475       3.18603712       6.58361574
Si       1.64277469       1.16167380       6.58361574
18
Lattice="5.919885218402408 -1.3723066121615917e-15 4.2092877069798873e-14 -2.9599426092012027 5.126770986624475 9.220961265913248e-14 -8.204664431178702e-14 -2.5490772433495514e-13 11.538928927938658" Properties=species:S:1:pos:R:3 unique_starting_index=28 config_type=initial n_minim_iter=3 stress="-0.004912280280047018 -9.827639589439148e-18 -7.870037187349253e-17 -9.827639589439148e-18 -0.0049122802800471 -1.1064020053916977e-16 -7.870037187349253e-17 -1.1064020053916977e-16 0.008418916354390713" pbc="T T T"
Si      -1.41013532       3.75954275       2.43503413
Si       1.00098458       4.46821262       2.43503413
Si       0.40915074       2.02578660       2.43503413
Si      -1.00098458       4.46821262       8.20449859
Si      -0.40915074       2.02578660       8.20449859
Si       1.41013532       3.75954275       8.20449859
Si      -1.82144001       4.32542205       4.77894650
Si       1.69670277       4.54147329       4.77894650
Si       0.12473724       1.38664665       4.77894650
Si      -1.69670277       4.54147329      10.54841096
Si      -0.12473724       1.38664665      10.54841096
Si       1.82144001       4.32542205      10.54841096
Si       4.29828431       1.15316713       0.92148236
Si       1.80947248       0.82776402       0.92148236
Si       2.77207103       3.14583984       0.92148236
Si       4.11041273       0.82776402       6.69094682
Si       3.14781419       3.14583984       6.69094682
Si       1.62160091       1.15316713       6.69094682
18
Lattice="5.979654375916662 -1.401445556356867e-15 4.251786095157959e-14 -2.98982718795833 5.178532595394613 9.314059200417449e-14 -7.988049131227607e-14 -2.4817778264997435e-13 11.2342841040332" Properties=species:S:1:pos:R:3 unique_starting_index=28 config_type=initial n_minim_iter=4 stress="0.0009287518584679033 -1.097843596696901e-16 -7.763094619084917e-17 -1.097843596696901e-16 0.0009287518584678217 2.12547626569807e-16 -7.763094619084917e-17 2.12547626569807e-16 -0.0036103043508735576" pbc="T T T"
Si      -1.41016302       3.86439422       2.32933858
Si       1.06191788       4.46757249       2.32933858
Si       0.34824513       2.02509849       2.32933858
Si      -1.06191789       4.46757249       7.94648063
Si      -0.34824514       2.02509849       7.94648063
Si       1.41016302       3.86439422       7.94648063
Si      -1.79339401       4.38944406       4.63754263
Si       1.70823988       4.53693533       4.63754263
Si       0.08515412       1.43068580       4.63754263
Si      -1.70823988       4.53693533      10.25468469
Si      -0.08515413       1.43068580      10.25468469
Si       1.79339400       4.38944406      10.25468469
Si       4.34832447       1.17404424       0.95379350
Si       1.83241709       0.82575102       0.95379350
Si       2.78874000       3.17873734       0.95379350
Si       4.14723728       0.82575102       6.57093555
Si       3.19091437       3.17873734       6.57093555
Si       1.63132990       1.17404424       6.57093555
18
Lattice="5.951140404381998 -1.3568588254452896e-15 4.2315114605273843e-14 -2.9755702021909975 5.153838771682803 9.269645125252411e-14 -8.014974913070489e-14 -2.490143299375666e-13 11.272152158920791" Properties=species:S:1:pos:R:3 unique_starting_index=28 config_type=initial n_minim_iter=5 stress="-0.0024571791299260745 6.101350344761201e-18 -1.1833408431813173e-16 6.101350344761201e-18 -0.0024571791299264857 4.7205184246310346e-17 -1.1833408431813173e-16 4.7205184246310346e-17 0.002496677596707057" pbc="T T T"
Si      -1.38540050       3.91512761       2.30181244
Si       1.10773001       4.39606700       2.30181244
Si       0.27767049       1.99648294       2.30181244
Si      -1.10773002       4.39606700       7.93788852
Si      -0.27767049       1.99648294       7.93788852
Si       1.38540050       3.91512761       7.93788852
Si      -1.75106964       4.39330483       4.64839675
Si       1.70467821       4.47365715       4.64839675
Si       0.04639143       1.44071557       4.64839675
Si      -1.70467821       4.47365715      10.28447283
Si      -0.04639143       1.44071557      10.28447283
Si       1.75106964       4.39330483      10.28447283
Si       4.34002406       1.18169946       0.99716420
Si       1.82893992       0.80441795       0.99716420
Si       2.75774662       3.16772136       0.99716420
Si       4.12220048       0.80441795       6.63324028
Si       3.19339379       3.16772136       6.63324028
Si       1.61111634       1.18169946       6.63324028
18
Lattice="6.022835641459922 -1.20803563007946e-15 4.282489793543537e-14 -3.01141782072996 5.21592866832263 9.381319419542932e-14 -7.954376167928987e-14 -2.471316096445987e-13 11.186926904533447" Properties=species:S:1:pos:R:3 unique_starting_index=28 config_type=initial n_minim_iter=6 stress="0.004480467241446165 -5.781198267997955e-17 -4.880847718063847e-17 -5.781198267997955e-17 0.0044804672414456796 2.438844296663618e-16 -4.880847718063847e-17 2.438844296663618e-16 0.0012754198476741011" pbc="T T T"
Si      -1.39250757       3.96826581       2.30932500
Si       1.12145496       4.43774270       2.30932500
Si       0.27105260       2.02584884       2.30932500
Si      -1.12145496       4.43774270       7.90278845
Si      -0.27105261       2.02584884       7.90278845
Si       1.39250757       3.96826581       7.90278845
Si      -1.80672809       4.46112453       4.64023742
Si       1.75539339       4.55003883       4.64023742
Si       0.05133469       1.42069399       4.64023742
Si      -1.75539339       4.55003883      10.23370087
Si      -0.05133470       1.42069399      10.23370087
Si       1.80672808       4.46112453      10.23370087
Si       4.40141068       1.20267049       0.93772334
Si       1.85225567       0.80285996       0.93772334
Si       2.78058710       3.21039822       0.93772334
Si       4.17057997       0.80285996       6.53118679
Si       3.24224854       3.21039822       6.53118679
Si       1.62142495       1.20267049       6.53118679
18
Lattice="6.027540439352866 -1.2925231043434101e-15 4.2858351029885636e-14 -3.0137702196764318 5.220003142817592 9.388647730402733e-14 -7.923253066416944e-14 -2.461646573643161e-13 11.143155796113732" Properties=species:S:1:pos:R:3 unique_starting_index=28 config_type=initial n_minim_iter=7 stress="0.0023567435194648896 -5.1931991581417216e-17 3.36449640580828e-17 -5.1931991581417216e-17 0.002356743519464484 2.3163568196223593e-16 3.36449640580828e-17 2.3163568196223593e-16 -0.0002662488966365975" pbc="T T T"
Si      -1.38193871       4.00913862       2.29205689
Si       1.14921502       4.41222787       2.29205689
Si       0.23272368       2.01863980       2.29205689
Si      -1.14921503       4.41222787       7.86363479
Si      -0.23272369       2.01863980       7.86363479
Si       1.38193871       4.00913862       7.86363479
Si      -1.80525644       4.48484486       4.63049079
Si       1.77284758       4.54097865       4.63049079
Si       0.03240886       1.41418277       4.63049079
Si      -1.77284759       4.54097865      10.20206869
Si      -0.03240886       1.41418277      10.20206869
Si       1.80525644       4.48484486      10.20206869
Si       4.41194356       1.21075461       0.93387748
Si       1.85634269       0.79377064       0.93387748
Si       2.77302441       3.21547790       0.93387748
Si       4.17119774       0.79377064       6.50545538
Si       3.25451603       3.21547790       6.50545538
Si       1.61559688       1.21075461       6.50545538
18
Lattice="6.02577838652178 -1.3440271757403517e-15 4.284582209216589e-14 -3.012889193260889 5.2184771603030615 9.385903112846057e-14 -7.91420969924681e-14 -2.45883692290729e-13 11.130437327013535" Properties=species:S:1:pos:R:3 unique_starting_index=28 config_type=initial n_minim_iter=8 stress="-0.0006713598610248219 1.2053818713137579e-17 1.0071282740582056e-16 1.2053818713137579e-17 -0.0006713598610255528 1.3893612095669104e-16 1.0071282740582056e-16 1.3893612095669104e-16 -0.0003648134747469775" pbc="T T T"
Si      -1.37327542       4.03687520       2.28524305
Si       1.16978499       4.38933096       2.28524305
Si       0.20349042       2.01074816       2.28524305
Si      -1.16978500       4.38933096       7.85046171
Si      -0.20349043       2.01074816       7.85046171
Si       1.37327542       4.03687520       7.85046171
Si      -1.80746790       4.50373304       4.63534807
Si       1.79119198       4.53192376       4.63534807
Si       0.01627592       1.40129753       4.63534807
Si      -1.79119198       4.53192376      10.20056673
Si      -0.01627592       1.40129753      10.20056673
Si       1.80746790       4.50373304      10.20056673
Si       4.41146610       1.21195570       0.92686695
Si       1.85674056       0.79205760       0.92686695
Si       2.77046091       3.21446386       0.92686695
Si       4.16903782       0.79205760       6.49208562
Si       3.25531747       3.21446386       6.49208562
Si       1.61431228       1.21195570       6.49208562
18
Lattice="6.049282328252316 -1.2227363848151238e-15 4.301294501658405e-14 -3.0246411641261575 5.238832170930777 9.422513440292921e-14 -7.867300416912787e-14 -2.4442628492078085e-13 11.06446474770171" Properties=species:S:1:pos:R:3 unique_starting_index=28 config_type=initial n_minim_iter=9 stress="-0.0038839895315412308 -1.1018455561200395e-16 -2.912925033420794e-17 -1.1018455561200395e-16 -0.0038839895315421224 -6.221627924643327e-17 -2.912925033420794e-17 -6.221627924643327e-17 0.0015293609774184966" pbc="T T T"
Si      -1.36704612       4.10448676       2.26433637
Si       1.21347169       4.37048546       2.26433637
Si       0.15357442       2.00269213       2.26433637
Si      -1.21347170       4.37048546       7.79656874
Si      -0.15357442       2.00269213       7.79656874
Si       1.36704612       4.10448676       7.79656874
Si      -1.82424096       4.57219510       4.63079166
Si       1.84711642       4.53257363       4.63079166
Si      -0.02287547       1.37289561       4.63079166
Si      -1.84711642       4.53257363      10.16302404
Si       0.02287546       1.37289561      10.16302404
Si       1.82424095       4.57219510      10.16302404
Si       4.40750168       1.20036422       0.90581641
Si       1.86043623       0.82164163       0.90581641
Si       2.80598557       3.21682632       0.90581641
Si       4.18884609       0.82164163       6.43804878
Si       3.24329675       3.21682632       6.43804878
Si       1.64178064       1.20036422       6.43804878
18
Lattice="6.101540052453292 -7.559334646432839e-16 4.3384519444057964e-14 -3.0507700262266457 5.284088687632777 9.503911378415784e-14 -7.752508157470668e-14 -2.408598461137941e-13 10.903022468825982" Properties=species:S:1:pos:R:3 unique_starting_index=28 config_type=initial n_minim_iter=10 stress="0.0015000097502571388 2.2423949506711277e-17 1.1717303192943499e-16 2.2423949506711277e-17 0.0015000097502557645 2.7177195141584585e-16 1.1717303192943499e-16 2.7177195141584585e-16 -0.000657716584308642" pbc="T T T"
Si      -1.38124665       4.14650408       2.21721193
Si       1.23083117       4.40703134       2.21721193
Si       0.15041548       2.01464196       2.21721193
Si      -1.23083117       4.40703134       7.66872316
Si      -0.15041548       2.01464196       7.66872316
Si       1.38124665       4.14650408       7.66872316
Si      -1.82665574       4.63475157       4.56171133
Si       1.87637044       4.54864318       4.56171133
Si      -0.04971470       1.38478263       4.56171133
Si      -1.87637044       4.54864318      10.01322257
Si       0.04971470       1.38478263      10.01322257
Si       1.82665574       4.63475157      10.01322257
Si       4.40288846       1.16964630       0.90819713
Si       1.86226920       0.88625228       0.90819713
Si       2.88715241       3.22819011       0.90819713
Si       4.23927085       0.88625228       6.35970836
Si       3.21438764       3.22819011       6.35970836
Si       1.69865158       1.16964630       6.35970836
18
Lattice="6.104081838848549 -4.325919920121391e-16 4.340259261580473e-14 -3.052040919424274 5.286289939222062 9.507870528472279e-14 -7.721527616697654e-14 -2.398973230010749e-13 10.859451855898728" Properties=species:S:1:pos:R:3 unique_starting_index=28 config_type=initial n_minim_iter=11 stress="-0.0008529202580012771 1.0138669748772665e-17 1.653870502768541e-16 1.0138669748772665e-17 -0.000852920258002737 1.8613963991887314e-16 1.653870502768541e-16 1.8613963991887314e-16 -0.001211239903651079" pbc="T T T"
Si      -1.37055144       4.16385083       2.19670079
Si       1.23923540       4.39129689       2.19670079
Si       0.13131604       2.01743216       2.19670079
Si      -1.23923540       4.39129689       7.62642672
Si      -0.13131605       2.01743216       7.62642672
Si       1.37055144       4.16385083       7.62642672
Si      -1.82062127       4.66115431       4.55118024
Si       1.89494776       4.53241705       4.55118024
Si      -0.07432649       1.37900851       4.55118024
Si      -1.89494776       4.53241705       9.98090617
Si       0.07432649       1.37900851       9.98090617
Si       1.82062127       4.66115431       9.98090617
Si       4.37670773       1.12824543       0.90852011
Si       1.84077625       0.93182714       0.90852011
Si       2.93863877       3.22621737       0.90852011
Si       4.26330558       0.93182714       6.33824604
Si       3.16544307       3.22621737       6.33824604
Si       1.72737410       1.12824543       6.33824604
18
Lattice="6.104464340744518 -1.272236836679885e-15 4.340531236537618e-14 -3.0522321703722586 5.286621195580967 9.508466322991389e-14 -7.74981317154446e-14 -2.4077611657977977e-13 10.899232277121591" Properties=species:S:1:pos:R:3 unique_starting_index=28 config_type=initial n_minim_iter=12 stress="0.0010195966029663116 -3.0774654325850834e-17 7.370135164190944e-17 -3.0774654325850834e-17 0.0010195966029651804 9.548033778020386e-17 7.370135164190944e-17 9.548033778020386e-17 0.002375157617250293" pbc="T T T"
Si      -1.33898546       4.19016845       2.19420254
Si       1.24605288       4.35113240       2.19420254
Si       0.09293258       2.03194155       2.19420254
Si      -1.24605289       4.35113240       7.64381867
Si      -0.09293258       2.03194155       7.64381867
Si       1.33898546       4.19016845       7.64381867
Si      -1.80861290       4.66641089       4.57328890
Si       1.89330465       4.51972046       4.57328890
Si      -0.08469176       1.38711104       4.57328890
Si      -1.89330465       4.51972046      10.02290504
Si       0.08469175       1.38711104      10.02290504
Si       1.80861289       4.66641089      10.02290504
Si       4.38674038       1.10586746       0.91695670
Si       1.81657129       0.93465886       0.91695670
Si       2.95338483       3.24609488       0.91695670
Si       4.28789304       0.93465886       6.36657284
Si       3.15107950       3.24609488       6.36657284
Si       1.71772396       1.10586746       6.36657284
18
Lattice="6.096165749128197 -1.3294717368795735e-15 4.3346305884022044e-14 -3.0480828745640984 5.279434404425597 9.495540229151282e-14 -7.75371884468361e-14 -2.40897460512886e-13 10.904725162924109" Properties=species:S:1:pos:R:3 unique_starting_index=28 config_type=initial n_minim_iter=13 stress="-0.00088319203604934 -1.4836251385028007e-16 1.4788800687634527e-16 -1.4836251385028007e-16 -0.0008831920360511216 1.1783589852714143e-16 1.4788800687634527e-16 1.1783589852714143e-16 0.000839706976228356" pbc="T T T"
Si      -1.33274160       4.17586034       2.20096298
Si       1.23468906       4.34569232       2.20096298
Si       0.09805254       2.03731616       2.20096298
Si      -1.23468906       4.34569232       7.65332556
Si      -0.09805255       2.03731616       7.65332556
Si       1.33274160       4.17586034       7.65332556
Si      -1.81044592       4.65125943       4.57586326
Si       1.88524891       4.52169685       4.57586326
Si      -0.07480299       1.38591253       4.57586326
Si      -1.88524891       4.52169685      10.02822584
Si       0.07480299       1.38591253      10.02822584
Si       1.81044592       4.65125943      10.02822584
Si       4.38211579       1.09930506       0.91149462
Si       1.80905108       0.93475828       0.91149462
Si       2.95308175       3.24537107       0.91149462
Si       4.28711466       0.93475828       6.36385720
Si       3.14308400       3.24537107       6.36385720
Si       1.71404995       1.09930506       6.36385720
18
Lattice="6.117039734509392 -1.2018562961725236e-15 4.349472871118701e-14 -3.058519867254696 5.297511806043937 9.528054070816132e-14 -7.703847317140971e-14 -2.3934802022783385e-13 10.83458652207301" Properties=species:S:1:pos:R:3 unique_starting_index=28 config_type=initial n_minim_iter=14 stress="0.00016624225488537115 1.628515445523526e-17 1.815083234428163e-16 1.628515445523526e-17 0.00016624225488407593 6.735413396048758e-17 1.815083234428163e-16 6.735413396048758e-17 -0.0026492952837875177" pbc="T T T"
Si      -1.32355452       4.20100146       2.19144216
Si       1.24143137       4.34324291       2.19144216
Si       0.08212314       2.05077924       2.19144216
Si      -1.24143138       4.34324291       7.60873542
Si      -0.08212315       2.05077924       7.60873542
Si       1.32355451       4.20100146       7.60873542
Si      -1.82224009       4.66580728       4.54985854
Si       1.89330780       4.54271437       4.54985854
Si      -0.07106772       1.38650197       4.54985854
Si      -1.89330781       4.54271437       9.96715181
Si       0.07106772       1.38650197       9.96715181
Si       1.82224008       4.66580728       9.96715181
Si       4.38787740       1.08824888       0.89756926
Si       1.80703234       0.95337407       0.89756926
Si       2.98064986       3.25588886       0.89756926
Si       4.31000739       0.95337407       6.31486252
Si       3.13638987       3.25588886       6.31486252
Si       1.72916233       1.08824888       6.31486252
18
Lattice="6.102687197590489 -1.6973422591610398e-15 4.339267612910497e-14 -3.0513435987952446 5.285082144463414 9.505698200370304e-14 -7.73692961905831e-14 -2.4037584219035853e-13 10.88111302340634" Properties=species:S:1:pos:R:3 unique_starting_index=28 config_type=initial n_minim_iter=15 stress="0.0007121419626530711 1.0597632704238848e-17 1.8870113158443202e-16 1.0597632704238848e-17 0.0007121419626515324 2.1511612653380347e-16 1.8870113158443202e-16 2.1511612653380347e-16 -0.001798827670277186" pbc="T T T"
Si      -1.30551506       4.20215266       2.21072647
Si       1.24058488       4.31461502       2.21072647
Si       0.06493017       2.05339661       2.21072647
Si      -1.24058488       4.31461502       7.65128298
Si      -0.06493018       2.05339661       7.65128298
Si       1.30551505       4.20215266       7.65128298
Si      -1.82161989       4.61762559       4.55493986
Si       1.85844741       4.55383845       4.55493986
Si      -0.03682752       1.39870025       4.55493986
Si      -1.85844741       4.55383845       9.99549637
Si       0.03682752       1.39870025       9.99549637
Si       1.82161989       4.61762559       9.99549637
Si       4.36489921       1.07551036       0.90600692
Si       1.80031328       0.96721336       0.90600692
Si       2.98881830       3.24235843       0.90600692
Si       4.30237391       0.96721336       6.34656343
Si       3.11386890       3.24235843       6.34656343
Si       1.73778798       1.07551036       6.34656343
18
Lattice="6.099944054879365 -1.6775117743262688e-15 4.337317122915096e-14 -3.0499720274396824 5.282706513189375 9.50142541268052e-14 -7.745931069347177e-14 -2.4065550496366214e-13 10.893772541172469" Properties=species:S:1:pos:R:3 unique_starting_index=28 config_type=initial n_minim_iter=16 stress="0.00027163886687416516 -5.787628957335309e-17 1.8390744473718483e-16 -5.787628957335309e-17 0.00027163886687262684 2.3703977614878766e-16 1.8390744473718483e-16 2.3703977614878766e-16 -0.0003884993900598832" pbc="T T T"
Si      -1.29466728       4.22702476       2.21059094
Si       1.25807243       4.29040888       2.21059094
Si       0.03659484       2.04797938       2.21059094
Si      -1.25807244       4.29040888       7.65747721
Si      -0.03659484       2.04797938       7.65747721
Si       1.29466727       4.22702476       7.65747721
Si      -1.82222783       4.61958994       4.56172553
Si       1.86182413       4.55100713       4.56172553
Si      -0.03959631       1.39481596       4.56172553
Si      -1.86182413       4.55100713      10.00861180
Si       0.03959630       1.39481596      10.00861180
Si       1.82222782       4.61958994      10.00861180
Si       4.34788595       1.05857824       0.90828230
Si       1.79278469       0.98803771       0.90828230
Si       3.00924543       3.23609057       0.90828230
Si       4.30715936       0.98803771       6.35516857
Si       3.09069862       3.23609057       6.35516857
Si       1.75205810       1.05857824       6.35516857
18
Lattice="6.097029750610047 -1.6351221373267388e-15 4.3352449298433256e-14 -3.0485148753050235 5.280182651657786 9.496886019467127e-14 -7.755330003362704e-14 -2.409475170137792e-13 10.906991074668047" Properties=species:S:1:pos:R:3 unique_starting_index=28 config_type=initial n_minim_iter=17 stress="-0.0002178431958353328 -2.390340707143571e-16 7.983611488806239e-17 -2.390340707143571e-16 -0.0002178431958367088 1.4702492444732281e-16 7.983611488806239e-17 1.4702492444732281e-16 0.0005326087679168376" pbc="T T T"
Si      -1.28573915       4.24813969       2.21231455
Si       1.27335158       4.26959557       2.21231455
Si       0.01238756       2.04263005       2.21231455
Si      -1.27335159       4.26959557       7.66581009
Si      -0.01238756       2.04263005       7.66581009
Si       1.28573914       4.24813969       7.66581009
Si      -1.82532112       4.61644916       4.56861244
Si       1.86210793       4.55273253       4.56861244
Si      -0.03678682       1.39118362       4.56861244
Si      -1.86210793       4.55273253      10.02210797
Si       0.03678681       1.39118362      10.02210797
Si       1.82532111       4.61644916      10.02210797
Si       4.33448696       1.04166427       0.90899145
Si       1.78337911       1.00557469       0.90899145
Si       3.02767854       3.23294369       0.90899145
Si       4.31365063       1.00557469       6.36248698
Si       3.06935120       3.23294369       6.36248698
Si       1.76254278       1.04166427       6.36248698
18
Lattice="6.094440597038025 -1.4639581376888657e-15 4.3334039326110954e-14 -3.0472202985190124 5.277940378890114 9.492853089111499e-14 -7.767835614703284e-14 -2.4133604928770505e-13 10.924578797075199" Properties=species:S:1:pos:R:3 unique_starting_index=28 config_type=initial n_minim_iter=18 stress="-0.00026274463631983274 -1.2637675256030372e-16 7.99332959943921e-17 -1.2637675256030372e-16 -0.00026274463632112684 7.629996435828337e-17 7.99332959943921e-17 7.629996435828337e-17 0.0013524378722637128" pbc="T T T"
Si      -1.27791609       4.27542566       2.21624580
Si       1.29436498       4.24693535       2.21624580
Si      -0.01644889       2.03351975       2.21624580
Si      -1.29436498       4.24693535       7.67853520
Si       0.01644889       2.03351975       7.67853520
Si       1.27791609       4.27542566       7.67853520
Si      -1.83492075       4.60249444       4.57688686
Si       1.85611718       4.56578114       4.57688686
Si      -0.02119644       1.38760518       4.57688686
Si      -1.85611718       4.56578114      10.03917626
Si       0.02119643       1.38760518      10.03917626
Si       1.83492074       4.60249444      10.03917626
Si       4.32060847       1.01384285       0.90918591
Si       1.76492973       1.02926226       0.90918591
Si       3.05612270       3.23483527       0.90918591
Si       4.32951087       1.02926226       6.37147530
Si       3.03831790       3.23483527       6.37147530
Si       1.77383213       1.01384285       6.37147530
18
Lattice="6.095342299744514 -1.4260545891205535e-15 4.33404508121073e-14 -3.047671149872257 5.278721276340595 9.494257603797705e-14 -7.760181496552114e-14 -2.4109824628478255e-13 10.91381414897859" Properties=species:S:1:pos:R:3 unique_starting_index=28 config_type=initial n_minim_iter=19 stress="0.00013546120130434702 -2.3032251870826704e-16 9.563838285415344e-17 -2.3032251870826704e-16 0.00013546120130289015 9.872094230151871e-17 9.563838285415344e-17 9.872094230151871e-17 3.8102092109278276e-05" pbc="T T T"
Si      -1.28805801       4.26121582       2.21607808
Si       1.28667900       4.26360433       2.21607808
Si       0.00137901       2.03262241       2.21607808
Si      -1.28667900       4.26360433       7.67298515
Si      -0.00137901       2.03262241       7.67298515
Si       1.28805800       4.26121582       7.67298515
Si      -1.83937964       4.59178948       4.57091494
Si       1.84862500       4.57577604       4.57091494
Si      -0.00924536       1.38987704       4.57091494
Si      -1.84862501       4.57577604      10.02782201
Si       0.00924536       1.38987704      10.02782201
Si       1.83937964       4.59178948      10.02782201
Si       4.33149609       1.01960534       0.90773599
Si       1.76492723       1.01773295       0.90773599
Si       3.04659012       3.24138298       0.90773599
Si       4.33041506       1.01773295       6.36464306
Si       3.04875217       3.24138298       6.36464306
Si       1.76384621       1.01960534       6.36464306
18
Lattice="6.096588801947893 -1.9569902636139243e-15 4.334931396773924e-14 -3.0482944009739463 5.2798007789145975 9.496199186803323e-14 -7.755191150268874e-14 -2.409432030376912e-13 10.906795793557581" Properties=species:S:1:pos:R:3 unique_starting_index=28 config_type=initial n_minim_iter=20 stress="-0.00035363184680438185 -4.8225690177326554e-17 4.190100949833291e-17 -4.8225690177326554e-17 -0.00035363184680567715 -1.0506875777978195e-16 4.190100949833291e-17 -1.0506875777978195e-16 -5.8345182844639275e-05" pbc="T T T"
Si      -1.28793019       4.26712272       2.21270571
Si       1.29110737       4.26161968       2.21270571
Si      -0.00317719       2.03085916       2.21270571
Si      -1.29110737       4.26161968       7.66610361
Si       0.00317718       2.03085916       7.66610361
Si       1.28793018       4.26712272       7.66610361
Si      -1.84508591       4.59014964       4.57021305
Si       1.84943475       4.58261723       4.57021305
Si      -0.00434884       1.38683469       4.57021305
Si      -1.84943475       4.58261723      10.02361095
Si       0.00434884       1.38683469      10.02361095
Si       1.84508591       4.59014964      10.02361095
Si       4.33053971       1.01800757       0.90686199
Si       1.76464496       1.02043960       0.90686199
Si       3.04969853       3.24135362       0.90686199
Si       4.33194384       1.02043960       6.36025988
Si       3.04689027       3.24135362       6.36025988
Si       1.76604909       1.01800757       6.36025988
18