10
Lattice="5.972400165528947 -0.7923722046747663 1.301219298318591 -4.2422848572178635 6.40681241144861 -1.2373581718090592 1.9223093299852747 -0.4360903823782069 5.4664556047409985" Properties=species:S:1:pos:R:3 unique_starting_index=126 config_type=initial n_minim_iter=1 energy=-1628.0466164071615 free_energy=-1628.0466164071615 pbc="T T T"
Si       4.23338437      -1.05443989       4.09850299
Si      -0.45266159       3.77909515       1.10280867
Si       1.37180397       2.26394711       3.45713214
Si       3.12305391       1.05698575       4.76452110
Si       6.59465944      -0.74727205       4.46631182
Si       1.84491152       2.93105581       1.13178076
Si       2.22895054       0.21847001       1.39620325
Si       4.32609966       0.78072170       2.43330163
Si       1.24650823       5.40003045      -0.07317518
Si       4.08861054       3.51045966       0.58826275
10
Lattice="5.96757851760714 -0.7972433671565283 1.3104790211360007 -4.2428352049293965 6.414377060792024 -1.2472953894272116 1.9271556174960758 -0.440389168415755 5.475003914107112" Properties=species:S:1:pos:R:3 unique_starting_index=126 config_type=initial n_minim_iter=2 stress="-0.00028899029541001636 -0.000259753393491354 0.00045544977924572635 -0.000259753393491354 0.0006162099198921981 -0.00035691844344815056 0.00045544977924572635 -0.00035691844344815056 0.0009209057447973341" pbc="T T T"
Si       4.23486038      -1.06159139       4.10880203
Si      -0.45214701       3.78184092       1.10237392
Si       1.37204565       2.26409551       3.46105711
Si       3.12560407       1.05391635       4.77218681
Si       6.59085124      -0.75507293       4.47845800
Si       1.84105650       2.93042797       1.13377146
Si       2.22978529       0.21702189       1.40075050
Si       4.32413595       0.77696481       2.44094015
Si       1.24165880       5.40360198      -0.07482583
Si       4.08226003       3.51046110       0.59373151
10
Lattice="5.964334008495742 -0.7965700515818838 1.3106045896282779 -4.2409440163910075 6.409303898159436 -1.245291271092504 1.9275986769931446 -0.4385125375013325 5.469621807922753" Properties=species:S:1:pos:R:3 unique_starting_index=126 config_type=initial n_minim_iter=3 stress="-0.001623419750497357 -0.00014006975771465533 0.0003220716394484366 -0.00014006975771465533 -0.000607947920013444 -0.0002520716559845618 0.0003220716394484366 -0.0002520716559845618 -0.0007032816927002728" pbc="T T T"
Si       4.23410515      -1.06246506       4.10556140
Si      -0.45045766       3.78011934       1.10337087
Si       1.37046597       2.26495087       3.45793576
Si       3.12641675       1.05534606       4.76686539
Si       6.58526464      -0.75479518       4.47379392
Si       1.83789781       2.92665003       1.13406824
Si       2.23155777       0.21795546       1.40038498
Si       4.32298604       0.77633214       2.44012294
Si       1.24041677       5.40043835      -0.07371563
Si       4.07972472       3.50862808       0.59784565
10
Lattice="5.974917549008803 -0.7952702973013991 1.3099900814333942 -4.247968521726574 6.40910588533644 -1.240691345532031 1.930927891192193 -0.43452244129232126 5.46938901738653" Properties=species:S:1:pos:R:3 unique_starting_index=126 config_type=initial n_minim_iter=4 stress="0.0003004367103899777 0.00014616990733383394 -6.171515994444575e-05 0.00014616990733383394 0.000508224842735841 -1.5888148796643946e-05 -6.171515994444575e-05 -1.5888148796643946e-05 -7.596355870511955e-05" pbc="T T T"
Si       4.24202792      -1.06314857       4.10519719
Si      -0.44922860       3.78262281       1.10764238
Si       1.37068927       2.26992634       3.45894492
Si       3.13401201       1.06060298       4.76532284
Si       6.59323440      -0.75284009       4.47108364
Si       1.83843174       2.92546662       1.13624536
Si       2.23935843       0.22039693       1.40104701
Si       4.33205066       0.77797368       2.44123604
Si       1.24282066       5.40289206      -0.07148471
Si       4.08729789       3.51127637       0.60402375
10
Lattice="5.9779952568993115 -0.7980776128035391 1.3143252806012875 -4.256077188213655 6.395283579191663 -1.2398697020321128 1.9348290629201854 -0.4312233018999699 5.4771920920609" Properties=species:S:1:pos:R:3 unique_starting_index=126 config_type=initial n_minim_iter=5 stress="6.685798515046269e-05 -0.0004027486141033388 4.2831603599224046e-05 -0.0004027486141033388 -0.001286960034962513 0.0001763440969826227 4.2831603599224046e-05 0.0001763440969826227 -1.7360712460798823e-05" pbc="T T T"
Si       4.24555357      -1.06530179       4.11328718
Si      -0.45067830       3.77457216       1.11263421
Si       1.36695589       2.26511891       3.46601262
Si       3.13841072       1.05934694       4.76942052
Si       6.59657258      -0.75440743       4.47740808
Si       1.83463987       2.91337748       1.14015075
Si       2.24422072       0.22067868       1.40531558
Si       4.33595876       0.77349747       2.44903840
Si       1.23733891       5.38949383      -0.07037152
Si       4.08414413       3.49947581       0.61549364
10
Lattice="5.9615030532460045 -0.7911389418407075 1.3192229393458546 -4.236931765106978 6.402192590319202 -1.2402619408798778 1.9327170828457665 -0.42642691698468427 5.483692104559163" Properties=species:S:1:pos:R:3 unique_starting_index=126 config_type=initial n_minim_iter=6 stress="-0.0012196467411770696 0.00033417272428165124 -0.00046481845843858335 0.00033417272428165124 -0.00015148814638053527 0.0008227086999487127 -0.00046481845843858335 0.0008227086999487127 0.00014678860442789632" pbc="T T T"
Si       4.23040802      -1.06953338       4.12490127
Si      -0.43891660       3.78390897       1.11650051
Si       1.35723788       2.27176587       3.47458931
Si       3.13958133       1.07148954       4.76066596
Si       6.58073857      -0.74518992       4.47930238
Si       1.83126266       2.91248389       1.14090382
Si       2.24805681       0.23280027       1.41330744
Si       4.33390317       0.78300163       2.46125944
Si       1.23864854       5.40890893      -0.07960075
Si       4.07354783       3.51452712       0.63984346
10
Lattice="5.970005887443406 -0.7951347663922862 1.3268722222863607 -4.244594597069971 6.4081980985370235 -1.2561030440672336 1.9418051377637588 -0.43704744087847963 5.48154732783726" Properties=species:S:1:pos:R:3 unique_starting_index=126 config_type=initial n_minim_iter=7 stress="8.927253521772867e-05 0.00030828155634111737 0.00013281377131380573 0.00030828155634111737 -0.00021313667665549764 -9.595543896648823e-05 0.00013281377131380573 -9.595543896648823e-05 -0.0001233253876951977" pbc="T T T"
Si       4.23801520      -1.08177074       4.13067529
Si      -0.43682128       3.78403123       1.10791179
Si       1.35830286       2.26496414       3.47020308
Si       3.15051265       1.06381362       4.75174661
Si       6.59461128      -0.75471200       4.48270563
Si       1.83370586       2.90680031       1.13559691
Si       2.25450393       0.23334180       1.41591601
Si       4.34471686       0.77848115       2.46576504
Si       1.23794428       5.41330469      -0.09305664
Si       4.07650805       3.51509219       0.64386930
10
Lattice="5.9723518182429 -0.8166045871282964 1.3302401894566647 -4.263343240373898 6.439005024171483 -1.26785175578251 1.9456781090234003 -0.4527135647140564 5.479041135939933" Properties=species:S:1:pos:R:3 unique_starting_index=126 config_type=initial n_minim_iter=8 stress="0.0009825970667029236 -0.0011945193387929486 -0.00014846319070965138 -0.0011945193387929486 0.0009835324638194363 -0.00018220154559260278 -0.00014846319070965138 -0.00018220154559260278 0.0001476708268149534" pbc="T T T"
Si       4.23869956      -1.10903655       4.14021178
Si      -0.44176075       3.79316753       1.09854802
Si       1.34526674       2.25887011       3.46776540
Si       3.15176425       1.05255381       4.73436537
Si       6.59694229      -0.78221968       4.48199528
Si       1.82613156       2.89539999       1.12999505
Si       2.25797774       0.23421824       1.41687987
Si       4.34950363       0.76540222       2.47201660
Si       1.22086260       5.42589051      -0.11125206
Si       4.06314070       3.51458937       0.64772084
10
Lattice="5.959729564814571 -0.8235135633059677 1.367502902856337 -4.253431341294857 6.463929017494918 -1.3264686168536426 1.96792005751732 -0.4829105592895223 5.498775668807632" Properties=species:S:1:pos:R:3 unique_starting_index=126 config_type=initial n_minim_iter=9 stress="0.0017605710289994292 -0.0002327730509457322 0.001060879232911317 -0.0002327730509457322 5.543039696812121e-05 -6.349592702919135e-05 0.001060879232911317 -6.349592702919135e-05 1.7201563043839068e-05" pbc="T T T"
Si       4.23369301      -1.15329435       4.20897500
Si      -0.40876344       3.79973333       1.06852716
Si       1.33136231       2.24371601       3.47786558
Si       3.17460014       1.04368113       4.70039230
Si       6.58418618      -0.80517216       4.51957919
Si       1.82652725       2.85139598       1.12651010
Si       2.27262824       0.26360038       1.43020057
Si       4.37237175       0.76012206       2.52114921
Si       1.21417419       5.44918622      -0.16695454
Si       4.04654488       3.53849918       0.67432322
10
Lattice="5.93463899786216 -0.8295667799146009 1.3734752456278745 -4.234502883591434 6.483428058284125 -1.3551557445495375 1.9602820136181724 -0.5059531380915699 5.509853448636546" Properties=species:S:1:pos:R:3 unique_starting_index=126 config_type=initial n_minim_iter=10 stress="0.00022971707942027664 0.00012598669182583904 3.208948547667568e-05 0.00012598669182583904 -0.0006997741890712218 -0.00024452476089692075 3.208948547667568e-05 -0.00024452476089692075 -0.000259081248520006" pbc="T T T"
Si       4.20937227      -1.18072579       4.23945473
Si      -0.39239904       3.80624286       1.04841978
Si       1.31409287       2.23364920       3.47951819
Si       3.16337264       1.03517570       4.67874342
Si       6.54710849      -0.82329783       4.52956657
Si       1.82104985       2.82586561       1.12057486
Si       2.26929665       0.27800029       1.43063210
Si       4.36620833       0.75412979       2.53554083
Si       1.20781779       5.46298834      -0.20335691
Si       4.02709870       3.55254725       0.66885021
10
Lattice="5.875378633108395 -0.8341339051136126 1.3785246669908626 -4.185473169876443 6.527873627176196 -1.3872156333922665 1.9383288660897195 -0.5323134508538303 5.529760291278061" Properties=species:S:1:pos:R:3 unique_starting_index=126 config_type=initial n_minim_iter=11 stress="-0.003218304128224761 0.0009134568950853346 -0.0016542990949481484 0.0009134568950853346 -7.774029577189542e-05 0.0004702569008952602 -0.0016542990949481484 0.0004702569008952602 -0.00016777686199011756" pbc="T T T"
Si       4.14997372      -1.20541909       4.27694928
Si      -0.36405498       3.83731244       1.01940468
Si       1.29625629       2.23369207       3.48314652
Si       3.12217675       1.03761128       4.66135394
Si       6.46738112      -0.83885623       4.55250142
Si       1.81759913       2.79493860       1.12727320
Si       2.24691443       0.29928787       1.42998762
Si       4.33873606       0.75376823       2.54680196
Si       1.19931173       5.49391956      -0.23674590
Si       3.99124263       3.58527201       0.64781897
10
Lattice="5.8601418995082835 -0.8534846951852632 1.4147305215877937 -4.188983721523494 6.5677065141578685 -1.4268776920340493 1.9604661491219848 -0.5507742053933643 5.552989406837457" Properties=species:S:1:pos:R:3 unique_starting_index=126 config_type=initial n_minim_iter=12 stress="-0.0012981010296714056 2.213565744815864e-05 -0.00025899760470535243 2.213565744815864e-05 -0.0002996072360484858 0.000695610015440556 -0.00025899760470535243 0.000695610015440556 -0.0014932627657346011" pbc="T T T"
Si       4.12730132      -1.24758687       4.31907411
Si      -0.34018332       3.87534649       1.00322899
Si       1.28664603       2.23226619       3.49272972
Si       3.12728545       1.04560263       4.64596335
Si       6.46041084      -0.86302139       4.59581123
Si       1.81651266       2.74239404       1.14831195
Si       2.25958565       0.31245048       1.45672071
Si       4.35741345       0.74301189       2.57750137
Si       1.17438134       5.52184211      -0.26264981
Si       3.96606615       3.59293718       0.69337065
10
Lattice="5.865580743326135 -0.8489868805591533 1.4103365954182816 -4.19190330853329 6.554697096362548 -1.412807019121303 1.9587226899333123 -0.5393261807156455 5.556031335806925" Properties=species:S:1:pos:R:3 unique_starting_index=126 config_type=initial n_minim_iter=13 stress="0.00021122979595396708 -0.00021126009472443167 -0.00042649347808418586 -0.00021126009472443167 0.0006234751951079182 9.643412193772278e-05 -0.00042649347808418586 9.643412193772278e-05 -0.0005811151378364357" pbc="T T T"
Si       4.12423012      -1.22961385       4.30038028
Si      -0.34536396       3.87822973       1.01351903
Si       1.29710591       2.23800360       3.49368570
Si       3.12132342       1.05278815       4.66844515
Si       6.47053215      -0.85115462       4.59907250
Si       1.82095339       2.74982509       1.15759652
Si       2.25692602       0.29808129       1.46094545
Si       4.35573888       0.74619040       2.56218143
Si       1.17683506       5.51127873      -0.23981626
Si       3.97413894       3.58155729       0.69153157
10
Lattice="5.843161613356707 -0.8557494335451615 1.4345718824194331 -4.177486312229731 6.574730636424458 -1.4500304557131127 1.9650846620841533 -0.5580483882744506 5.5863894020541505" Properties=species:S:1:pos:R:3 unique_starting_index=126 config_type=initial n_minim_iter=14 stress="0.0006955527718002329 -0.00018592208358289314 6.746007488651502e-05 -0.00018592208358289314 -0.00028012094301125857 -0.00013841275266756383 6.746007488651502e-05 -0.00013841275266756383 0.000281841906712008" pbc="T T T"
Si       4.09523009      -1.25445221       4.34371065
Si      -0.32161602       3.89724334       0.99676927
Si       1.28960846       2.23198712       3.50759960
Si       3.11615097       1.05515540       4.66788434
Si       6.44740625      -0.86453490       4.64152049
Si       1.82091100       2.71291333       1.16883183
Si       2.25829462       0.30302610       1.47976967
Si       4.36083120       0.74266494       2.58445394
Si       1.16605685       5.52666958      -0.26779639
Si       3.95568347       3.59087222       0.70550016
10
Lattice="5.8008676910808905 -0.8717580343603729 1.501576996718866 -4.154095839924532 6.622144466938173 -1.5331666507356945 1.9944770547544983 -0.5925023129160752 5.6548761014938576" Properties=species:S:1:pos:R:3 unique_starting_index=126 config_type=initial n_minim_iter=15 stress="0.0017496382139249452 -0.0004507989035468616 0.002813818776813573 -0.0004507989035468616 -0.0008837591172584696 -0.000547505297284284 0.002813818776813573 -0.000547505297284284 0.0014521720972303924" pbc="T T T"
Si       4.03651617      -1.30959982       4.44832557
Si      -0.26261637       3.93923694       0.96804530
Si       1.27451569       2.22720767       3.54715492
Si       3.12734449       1.07179892       4.67134531
Si       6.40871759      -0.89078499       4.74987560
Si       1.81453719       2.63905885       1.19104761
Si       2.27454183       0.29232487       1.53941162
Si       4.38660621       0.74359845       2.64156322
Si       1.13979933       5.57112407      -0.33166433
Si       3.91659666       3.61375802       0.75717906
10
Lattice="5.778489690812195 -0.860117530884435 1.527975631420335 -4.130740283645657 6.6003644632595 -1.5484590693902338 2.0012819841628797 -0.5832136434069366 5.703239614393062" Properties=species:S:1:pos:R:3 unique_starting_index=126 config_type=initial n_minim_iter=16 stress="0.0029306902823265806 3.6111311844839956e-05 0.0028121597176433526 3.6111311844839956e-05 -0.0008080000687052694 -0.0006002141297979786 0.0028121597176433526 -0.0006002141297979786 0.0029434447390423854" pbc="T T T"
Si       3.97879152      -1.29556313       4.49668650
Si      -0.21958325       3.93914351       0.97546019
Si       1.27098759       2.23626780       3.58943295
Si       3.13937311       1.10582416       4.71153465
Si       6.37854379      -0.86755784       4.82538175
Si       1.80472862       2.61969156       1.19711824
Si       2.28422994       0.22776484       1.59585221
Si       4.40426878       0.77184080       2.65049012
Si       1.14014937       5.57110623      -0.34945706
Si       3.90763334       3.61286423       0.77447480
10
Lattice="5.7409966882327925 -0.8683142632740182 1.5102782627092548 -4.103851435301774 6.636873221536846 -1.5509362713010464 1.9736902035709947 -0.6000630716978398 5.692632350443463" Properties=species:S:1:pos:R:3 unique_starting_index=126 config_type=initial n_minim_iter=17 stress="-0.00039192988209189796 0.0002649250142389826 7.061876255783434e-05 0.0002649250142389826 0.0005965070338236737 -0.0002929999802065905 7.061876255783434e-05 -0.0002929999802065905 0.001251052922260116" pbc="T T T"
Si       3.92522045      -1.31242751       4.49714941
Si      -0.20551479       3.95974524       0.95689819
Si       1.24925141       2.24214481       3.57940692
Si       3.11151823       1.11476926       4.68229840
Si       6.31108075      -0.88020523       4.81319823
Si       1.79191241       2.60865481       1.18420451
Si       2.26855822       0.21118211       1.59742464
Si       4.38532953       0.77686297       2.63084905
Si       1.13458724       5.59612055      -0.37762869
Si       3.88218071       3.63226166       0.74238968
10
Lattice="5.7483093815797845 -0.8719297387010749 1.489625374652196 -4.113779322179328 6.636348177858801 -1.527691840503489 1.9646338024160592 -0.5949806540316381 5.662546303636137" Properties=species:S:1:pos:R:3 unique_starting_index=126 config_type=initial n_minim_iter=18 stress="-0.0013115141712030382 -0.0001498906030573288 -0.0009730899314763045 -0.0001498906030573288 0.00021263915426815279 0.0002448982635412648 -0.0009730899314763045 0.0002448982635412648 -0.0014390421730454048" pbc="T T T"
Si       3.92825262      -1.30866497       4.46949500
Si      -0.21652176       3.95538788       0.95864172
Si       1.24537530       2.24637657       3.56051596
Si       3.11365807       1.11777688       4.66095109
Si       6.29985927      -0.87939428       4.77617401
Si       1.78816034       2.61754034       1.17190955
Si       2.26529549       0.20308631       1.58907836
Si       4.38428591       0.77644713       2.61163911
Si       1.13733901       5.58816615      -0.36987072
Si       3.88367962       3.62581127       0.72670651
10
Lattice="5.727290545153666 -0.8812914747175202 1.4898543709356196 -4.103952263873122 6.657528569466155 -1.5376845577311897 1.9576580557850292 -0.6070612661355996 5.660255578907453" Properties=species:S:1:pos:R:3 unique_starting_index=126 config_type=initial n_minim_iter=19 stress="-0.002964760420312318 -0.001291135507955294 -0.0007161873075136694 -0.001291135507955294 0.0012241514587010133 0.0005826532103134766 -0.0007161873075136694 0.0005826532103134766 -0.002965435288413867" pbc="T T T"
Si       3.86817679      -1.33525419       4.49501071
Si      -0.19143357       3.98182171       0.93852324
Si       1.22878037       2.24885429       3.55067175
Si       3.12918362       1.15405468       4.61470857
Si       6.22166049      -0.87623142       4.78114244
Si       1.78474318       2.57296862       1.16089105
Si       2.26374391       0.16882912       1.63644528
Si       4.40560871       0.78607931       2.61090148
Si       1.13874759       5.59753460      -0.40786458
Si       3.85900889       3.62225947       0.72931296
10
Lattice="5.7397498328285375 -0.8592214854199154 1.471252008497023 -4.094958460260685 6.6171957064031455 -1.5177901515233845 1.9459115599285624 -0.5933642067278456 5.655371736042868" Properties=species:S:1:pos:R:3 unique_starting_index=126 config_type=initial n_minim_iter=20 stress="-0.0015211772578442866 -0.0008673929847622674 -0.0015327157158425166 -0.0008673929847622674 -0.00013992829842685237 0.0007915117367473144 -0.0015327157158425166 0.0007915117367473144 -0.001850527627678146" pbc="T T T"
Si       3.86461798      -1.30800961       4.47679064
Si      -0.19646930       3.96927026       0.94207246
Si       1.24243383       2.24215908       3.54205374
Si       3.13543590       1.16518888       4.61308540
Si       6.21838881      -0.83997949       4.76209785
Si       1.80428343       2.58008795       1.15663352
Si       2.25298753       0.17241458       1.64045465
Si       4.41191199       0.79706784       2.59705843
Si       1.16753823       5.57055178      -0.39531597
Si       3.87848690       3.60651438       0.71555273
10
Lattice="5.746374495396384 -0.833863970266888 1.4777407884939155 -4.075346623678364 6.587489755780605 -1.5288103642576358 1.9498163217125513 -0.5898042068667992 5.6681652405657905" Properties=species:S:1:pos:R:3 unique_starting_index=126 config_type=initial n_minim_iter=21 stress="4.109970284815147e-06 7.993113712147618e-05 3.18864704589364e-05 7.993113712147618e-05 -0.00038370269507540563 -0.00010731101164073043 3.18864704589364e-05 -0.00010731101164073043 -0.00038417520337211917" pbc="T T T"
Si       3.85522760      -1.29635444       4.48723930
Si      -0.18381447       3.96698319       0.93811943
Si       1.26060353       2.23279209       3.54095789
Si       3.15809291       1.18010962       4.61086915
Si       6.22039381      -0.80418229       4.77489893
Si       1.82752905       2.57814093       1.15425242
Si       2.24966846       0.17921152       1.66567608
Si       4.43092169       0.81183893       2.60366280
Si       1.19783695       5.56459231      -0.40422094
Si       3.89533508       3.60165446       0.72422537
