10
Lattice="5.596927931949098 -1.2393312647979577 0.24480700313398793 -2.366401228805817 5.221272783875981 0.24480700313399315 0.3203241731690609 0.3948310111367099 7.105766906410771" Properties=species:S:1:pos:R:3 unique_starting_index=134 config_type=initial n_minim_iter=1 energy=-1627.4478029297263 free_energy=-1627.4478029297263 pbc="T T T"
Si      -0.09007001       1.74785185       3.28249584
Si       1.72888269       0.27214578       3.28249584
Si      -0.86538985       0.87156865       0.99182050
Si       1.03123295      -0.66715073       0.99182050
Si       1.93996720       4.26786323       6.32834985
Si       3.77632893       2.77803331       6.32834985
Si       0.16209064       3.61578674       4.80500928
Si       3.50472625       0.90392531       4.80500928
Si       2.69602059       1.29162841       1.26374169
Si       0.70816484       2.90436457       1.26374169
10
Lattice="5.586121954877849 -1.2369956572072116 0.24227619553753812 -2.361888361934093 5.211180299747661 0.2422761955375433 0.3147892085931228 0.3880086235582049 7.113940795866077" Properties=species:S:1:pos:R:3 unique_starting_index=134 config_type=initial n_minim_iter=2 stress="-0.0011548113945566657 0.0005517661485352678 -0.000128255414783859 0.0005517661485352678 -0.000922350177898013 -0.00015808739815647974 -0.000128255414783859 -0.00015808739815647974 -0.0007668949533571115" pbc="T T T"
Si      -0.09325215       1.74228198       3.28494053
Si       1.72408836       0.26788387       3.28494053
Si      -0.86456761       0.86927232       0.99328507
Si       1.02881644      -0.66681948       0.99328507
Si       1.93283866       4.25430237       6.33073843
Si       3.76452868       2.76826258       6.33073843
Si       0.15859032       3.60526535       4.80755889
Si       3.49515232       0.89833141       4.80755889
Si       2.68953624       1.28818707       1.26259844
Si       0.70613402       2.89731012       1.26259844
10
Lattice="5.590759214045736 -1.2450030582722063 0.2407798443949 -2.3706796738645908 5.214067422700796 0.24077984439490513 0.3102158491751726 0.38237150880218607 7.13968206939192" Properties=species:S:1:pos:R:3 unique_starting_index=134 config_type=initial n_minim_iter=3 stress="0.0006697020504822966 -0.0003651533391759223 -0.0005330535889974193 -0.0003651533391759223 0.0005158615335951238 -0.0006570409140582574 -0.0005330535889974193 -0.0006570409140582574 0.0019523359140770041" pbc="T T T"
Si      -0.10097584       1.74131028       3.29521762
Si       1.72472960       0.26012576       3.29521762
Si      -0.86748078       0.87049930       0.99795931
Si       1.03061756      -0.66941718       0.99795931
Si       1.92629612       4.24633059       6.34892416
Si       3.75807669       2.76021734       6.34892416
Si       0.15089447       3.60234020       4.82219701
Si       3.49387633       0.89019787       4.82219701
Si       2.68681260       1.28328412       1.26549476
Si       0.70189777       2.89363433       1.26549476
10
Lattice="5.58911092520859 -1.2457693530220113 0.24392878029543547 -2.3710897536434103 5.212296575923337 0.2439287802954406 0.31618991080504133 0.3897351266352658 7.128385947374166" Properties=species:S:1:pos:R:3 unique_starting_index=134 config_type=initial n_minim_iter=4 stress="-0.0001457708876412744 -0.0005243039282647349 0.00011989821462492133 -0.0005243039282647349 -0.0003666621644742096 0.00014778632797341078 0.00011989821462492133 0.00014778632797341078 0.00028562799020209685" pbc="T T T"
Si      -0.10135553       1.74487552       3.29050859
Si       1.72829654       0.26048911       3.29050859
Si      -0.86708498       0.87202608       0.99755074
Si       1.03202997      -0.66871517       0.99755074
Si       1.93163765       4.25019721       6.34408386
Si       3.76075924       2.76624117       6.34408386
Si       0.15388480       3.60671106       4.81791662
Si       3.49753693       0.89402494       4.81791662
Si       2.68476303       1.28319494       1.26766399
Si       0.70223298       2.89161039       1.26766399
10
Lattice="5.589068485489125 -1.2393521768390376 0.24308415956408824 -2.36480163831296 5.213577808487728 0.24308415956409338 0.3157772312179224 0.38922645850371124 7.121024055205905" Properties=species:S:1:pos:R:3 unique_starting_index=134 config_type=initial n_minim_iter=5 stress="-0.0002088938936988088 0.000247583698478447 0.00017496036579180125 0.000247583698478447 -0.00010458592205894874 0.00021565583843026755 0.00017496036579180125 0.00021565583843026755 2.3381498767652127e-05" pbc="T T T"
Si      -0.10126812       1.74562019       3.28595877
Si       1.72900720       0.26072814       3.28595877
Si      -0.86672267       0.87180775       0.99747933
Si       1.03174164      -0.66840564       0.99747933
Si       1.93858282       4.25562529       6.33622518
Si       3.76463916       2.77415608       6.33622518
Si       0.15831575       3.61008879       4.81237956
Si       3.49992878       0.89905698       4.81237956
Si       2.68551077       1.28783989       1.26599769
Si       0.70662405       2.89329953       1.26599769
10
Lattice="5.591130866663249 -1.240759909768432 0.24074243917316654 -2.3666042550659436 5.215305726584671 0.24074243917317165 0.3121436606014936 0.3847477257676586 7.113880852855846" Properties=species:S:1:pos:R:3 unique_starting_index=134 config_type=initial n_minim_iter=6 stress="1.7884421991542722e-06 2.9016330392674924e-05 -5.850659326490625e-05 2.9016330392674924e-05 1.401313464179935e-05 -7.211512371532391e-05 -5.850659326490625e-05 -7.211512371532391e-05 -0.0004588036786856029" pbc="T T T"
Si      -0.10467095       1.74364327       3.28092749
Si       1.72777415       0.25699089       3.28092749
Si      -0.86825625       0.87189772       0.99740262
Si       1.03214579      -0.66988774       0.99740262
Si       1.93644178       4.25319179       6.32619909
Si       3.76269924       2.77155940       6.32619909
Si       0.15574008       3.60884650       4.80561402
Si       3.49924409       0.89628055       4.80561402
Si       2.68395478       1.28719906       1.26258897
Si       0.70631772       2.89164486       1.26258897
10
Lattice="5.592423993318516 -1.2417963442020366 0.23875473519553372 -2.367884981920148 5.216357444991209 0.23875473519553883 0.3085084070997673 0.3802669187101552 7.11663359156134" Properties=species:S:1:pos:R:3 unique_starting_index=134 config_type=initial n_minim_iter=7 stress="0.0003779200649983045 0.00022757817581965314 -0.000141985030684636 0.00022757817581965314 0.00047379963241445035 -0.00017501049851159623 -0.000141985030684636 -0.00017501049851159623 0.00013309076038773408" pbc="T T T"
Si      -0.10975950       1.73854395       3.27869871
Si       1.72383323       0.25096051       3.27869871
Si      -0.87128249       0.87220968       1.00105432
Si       1.03307485      -0.67278469       1.00105432
Si       1.93655320       4.25330051       6.32452450
Si       3.76278267       2.77169084       6.32452450
Si       0.15462193       3.60926227       4.80634231
Si       3.49988141       0.89527212       4.80634231
Si       2.67761761       1.28766715       1.26007506
Si       0.70808203       2.88554027       1.26007506
10
Lattice="5.5912665140736975 -1.2474527180832466 0.23938536533389415 -2.3731812960598337 5.214058884524315 0.23938536533389926 0.3088453383770801 0.38068221960858206 7.1187003039940455" Properties=species:S:1:pos:R:3 unique_starting_index=134 config_type=initial n_minim_iter=8 stress="4.920933448639679e-06 -0.00014076498440981108 -5.208883522288921e-05 -0.00014076498440981108 -5.438389999395746e-05 -6.420460646709146e-05 -5.208883522288921e-05 -6.420460646709146e-05 -5.3245750569304275e-05" pbc="T T T"
Si      -0.10987163       1.73370568       3.27976742
Si       1.71912198       0.24985348       3.27976742
Si      -0.87281862       0.87156509       1.00213609
Si       1.03276074      -0.67442070       1.00213609
Si       1.93122615       4.25091300       6.32812842
Si       3.76154448       2.76598606       6.32812842
Si       0.15211739       3.60663060       4.80883881
Si       3.49782251       0.89227890       4.80883881
Si       2.67266059       1.28449462       1.25895523
Si       0.70599940       2.88003575       1.25895523
10
Lattice="5.589255594112445 -1.2466089317595628 0.24124774212859962 -2.3719411227642593 5.212265077219295 0.24124774212860473 0.31180530560135583 0.3843306699909875 7.122284913539944" Properties=species:S:1:pos:R:3 unique_starting_index=134 config_type=initial n_minim_iter=9 stress="-0.00028706607676807924 0.00035557078022449557 0.00025883137206372835 0.00035557078022449557 -0.0001372627291011407 0.00031903509290160715 0.00025883137206372835 0.00031903509290160715 0.0002699691405307388" pbc="T T T"
Si      -0.10981473       1.73321717       3.28312681
Si       1.71863223       0.24980846       3.28312681
Si      -0.87289277       0.86934824       1.00371499
Si       1.03060678      -0.67495021       1.00371499
Si       1.93683115       4.25555586       6.33581142
Si       3.76493228       2.77242772       6.33581142
Si       0.15606418       3.60816902       4.81153846
Si       3.49851435       0.89645804       4.81153846
Si       2.66952943       1.28595421       1.25913818
Si       0.70807307       2.87727269       1.25913818
10
Lattice="5.591663276159102 -1.2507728157423428 0.23900265048661426 -2.376511878462451 5.213762760432555 0.23900265048661937 0.3080193495700979 0.3796641072612625 7.116486126474065" Properties=species:S:1:pos:R:3 unique_starting_index=134 config_type=initial n_minim_iter=10 stress="3.468522815793837e-05 -5.210990322637425e-05 -4.91680262527813e-05 -5.210990322637425e-05 1.2731123986224335e-05 -6.0604422479775784e-05 -4.91680262527813e-05 -6.0604422479775784e-05 -8.320458395627349e-05" pbc="T T T"
Si      -0.11380365       1.73018085       3.28025256
Si       1.71648334       0.24527933       3.28025256
Si      -0.87488725       0.86729718       1.00372029
Si       1.02901088      -0.67732464       1.00372029
Si       1.93355950       4.25268452       6.32841874
Si       3.76279699       2.76863446       6.32841874
Si       0.15276844       3.60491810       4.80451740
Si       3.49601258       0.89256297       4.80451740
Si       2.66662820       1.28361468       1.25447203
Si       0.70638181       2.87395153       1.25447203
10
Lattice="5.590548007138436 -1.2516434347854528 0.24072629530061257 -2.3771339125783943 5.212491982692242 0.2407262953006176 0.3106174686878788 0.3828665443055183 7.1204656619158335" Properties=species:S:1:pos:R:3 unique_starting_index=134 config_type=initial n_minim_iter=11 stress="0.00019177723564918196 -8.906509079192833e-05 -2.3283977590409e-05 -8.906509079192833e-05 0.00015425376774283578 -2.8699789730266114e-05 -2.3283977590409e-05 -2.8699789730266114e-05 0.00040469478496479486" pbc="T T T"
Si      -0.11284702       1.73173712       3.28386325
Si       1.71780900       0.24653621       3.28386325
Si      -0.87445687       0.86342688       1.00522686
Si       1.02513498      -0.67770128       1.00522686
Si       1.93698728       4.25919776       6.33342801
Si       3.76846379       2.77333119       6.33342801
Si       0.15694258       3.60399615       4.80808370
Si       3.49425002       0.89645743       4.80808370
Si       2.66390510       1.27972366       1.25658821
Si       0.70313565       2.87048486       1.25658821
10
Lattice="5.5895886529568966 -1.2503632435010585 0.24069170972789183 -2.3756834634671966 5.211817114152374 0.24069170972789686 0.3110288638882755 0.3833736293042634 7.1134327539227735" Properties=species:S:1:pos:R:3 unique_starting_index=134 config_type=initial n_minim_iter=12 stress="-0.00010796544436096809 4.1370545272874255e-05 5.967711999999888e-06 4.1370545272874255e-05 -9.053587331131504e-05 7.355791290105087e-06 5.967711999999888e-06 7.355791290105087e-06 -0.00020460147342189232" pbc="T T T"
Si      -0.11287020       1.73155130       3.28051632
Si       1.71763195       0.24647522       3.28051632
Si      -0.87500049       0.86250343       1.00508812
Si       1.02434342      -0.67842358       1.00508812
Si       1.93938509       4.26188454       6.32689670
Si       3.77059862       2.77623132       6.32689670
Si       0.15965778       3.60435774       4.80381754
Si       3.49404417       0.89918886       4.80381754
Si       2.66225799       1.27933453       1.25521822
Si       0.70309440       2.86879290       1.25521822
10
Lattice="5.585952773033825 -1.2469100819321097 0.2435810421859568 -2.3715550012159206 5.20897110869278 0.24358104218596183 0.31641478239102466 0.3900123029557149 7.108582386600518" Properties=species:S:1:pos:R:3 unique_starting_index=134 config_type=initial n_minim_iter=13 stress="-1.8550403996960675e-05 -9.682611682606421e-05 6.103846589000128e-05 -9.682611682606421e-05 -5.9343622248289276e-05 7.523590544861351e-05 6.103846589000128e-05 7.523590544861351e-05 -0.00023144915073632205" pbc="T T T"
Si      -0.10902768       1.73562757       3.28325964
Si       1.72082864       0.25107546       3.28325964
Si      -0.87908238       0.85998658       1.00452972
Si       1.02272201      -0.68293660       1.00452972
Si       1.94843419       4.27100124       6.32557885
Si       3.77765426       2.78696531       6.32557885
Si       0.17431498       3.60619435       4.80507987
Si       3.49282009       0.91390987       4.80507987
Si       2.66171455       1.27455783       1.25417770
Si       0.69853230       2.86727652       1.25417770
10
Lattice="5.585426769837663 -1.2463706770537248 0.24331228599283905 -2.3709187559736202 5.208567587966116 0.24331228599284407 0.31586827085040536 0.3893386737942133 7.110047620001563" Properties=species:S:1:pos:R:3 unique_starting_index=134 config_type=initial n_minim_iter=14 stress="-2.9673678388402357e-06 -2.0041270111771312e-05 6.089122176519765e-06 -2.0041270111771312e-05 -1.1410832602309025e-05 7.50544125954947e-06 6.089122176519765e-06 7.50544125954947e-06 -1.0630866498776348e-05" pbc="T T T"
Si      -0.10973561       1.73493890       3.28387521
Si       1.72030068       0.25024078       3.28387521
Si      -0.87982194       0.85959916       1.00530845
Si       1.02249536      -0.68374014       1.00530845
Si       1.94885700       4.27154066       6.32614566
Si       3.77809495       2.78749023       6.32614566
Si       0.17527437       3.60602342       4.80592020
Si       3.49245506       0.91481342       4.80592020
Si       2.66051083       1.27429086       1.25351164
Si       0.69851918       2.86604362       1.25351164
10
Lattice="5.584655594431128 -1.2450716118362808 0.24320593900623536 -2.3694886271968127 5.208080747511173 0.24320593900624038 0.3156936280538624 0.3891234093910785 7.1109499122118685" Properties=species:S:1:pos:R:3 unique_starting_index=134 config_type=initial n_minim_iter=15 stress="1.6710130715684436e-05 4.631062605679849e-05 -4.1231661906073245e-05 4.631062605679849e-05 3.622097694376413e-05 -5.0822073776793955e-05 -4.1231661906073245e-05 -5.0822073776793955e-05 0.00016001977496276043" pbc="T T T"
Si      -0.11030269       1.73487771       3.28479072
Si       1.72035769       0.24967327       3.28479072
Si      -0.88067700       0.85910376       1.00612781
Si       1.02218685      -0.68467895       1.00612781
Si       1.94978792       4.27345786       6.32641931
Si       3.77977909       2.78879635       6.32641931
Si       0.17734910       3.60641002       4.80654810
Si       3.49240570       0.91692329       4.80654810
Si       2.65955510       1.27399420       1.25243151
Si       0.69842590       2.86504727       1.25243151
