22
Lattice="9.753178226789764 -1.6379347206211663 0.572141389845686 -2.854414012239581 8.21769176846825 2.9930241016403833 1.8463771377622045 2.6930523963604425 7.319954493468114" Properties=species:S:1:pos:R:3 unique_starting_index=184 config_type=initial n_minim_iter=17 energy=-3584.1605089806535 free_energy=-3584.1605089806535 pbc="T T T"
Si       7.27336276       3.30514022       9.38030593
Si       0.89909259       5.93858157       3.49113022
Si       8.72641568       2.30531709       7.85692837
Si      10.79792272       0.68402546       6.17794394
Si       1.92375625       8.58470896       8.62064054
Si       3.08877251       7.50991642       6.93093468
Si       0.39369612       8.19728326       4.27596094
Si       5.08529697       4.14465779       6.69883194
Si      -1.16645063       8.31678761       6.12546682
Si       9.81578152       0.08108637       3.05608981
Si       9.90742881       2.08775453       4.40864610
Si       3.18077518       5.68051334       3.95032131
Si      -0.43271854       8.55188861       8.50200958
Si       6.19441688       7.32628752       9.55353913
Si       5.21602843       8.10580548       7.59726469
Si       7.93388126       2.45618153       5.63318533
Si       3.06968768       5.26768185       6.27685869
Si       5.76733802       2.83839738       2.72138291
Si       1.38003013       4.04658659       7.46531574
Si       7.27361470       4.81286704       5.97966935
Si       7.53122316       5.79304989       3.83734169
Si       5.58336470       2.50599572       5.05751974
