8
Lattice="7.018071630536861 0.23251661045318975 0.21948159828939515 0.661261673680447 6.9907171580893115 0.21948159828926714 0.6612616736803274 0.6219872822226068 6.9664503426885505" Properties=species:S:1:pos:R:3 unique_starting_index=114 config_type=initial n_minim_iter=5 energy=-1299.3533159096194 free_energy=-1299.3533159096194 pbc="T T T"
Si       4.71212072       7.13535143       0.35589782
Si       1.05329511       4.65647786       7.10286657
Si       7.41010507       0.60132076       4.23928937
Si       6.06925257       0.91325340       0.86194612
Si       1.28264599       6.00210259       0.86194612
Si       1.28264599       1.20652044       5.94233790
Si       1.26339590       1.18841368       1.12168076
Si       7.23380199       6.80421875       6.42266064
