12
Lattice="5.164819639759512 0.6123084213586386 0.5061399900212257 2.463107047404365 4.4083258287478815 2.1941069541970784 3.275236820306573 3.202219260967562 13.156783162422302" Properties=species:S:1:pos:R:3 unique_starting_index=192 config_type=initial n_minim_iter=17 energy=-1954.3545887342873 free_energy=-1954.3545887342873 pbc="T T T"
Si       8.80644616       3.57472748      13.34196673
Si       4.39872378       6.00609355       3.50768105
Si       7.26739488       3.09688135       5.59203754
Si       9.50599891       6.11181876      10.53226117
Si       7.80613002       5.68169562      14.21955579
Si       4.86443470       3.33018041      10.85944216
Si       8.86259675       7.91193016      14.83078464
Si       2.73861828       4.57580762       4.21766696
Si       7.81097207       5.16747514      11.85066754
Si       6.01395351       3.72092331       3.72910358
Si       4.82131755       5.59846757      12.31450322
Si       3.33603159       2.21190846       3.09525809
