16
Lattice="2.5969356096427427 -0.25701101274248683 -0.4464099845329116 -1.085283186876028 7.95299375845364 -2.9234649020529706 -3.0247591482405802 -6.213581623468345 17.606089599515325" Properties=species:S:1:pos:R:3 unique_starting_index=140 config_type=initial n_minim_iter=1 energy=-2603.2446614827595 free_energy=-2603.2446614827595 pbc="T T T"
Si      -0.15563304       3.60892333      -0.31468586
Si      -1.05344241       1.48803568       3.47514497
Si       0.33646420      -1.72403926       5.56368779
Si      -1.08491887       3.72438937       1.98019516
Si       0.00018869      -0.03385331      10.61045037
Si      -0.15695534       0.00394069       1.76155472
Si      -0.32545888       0.68046048       8.34970886
Si      -2.32125635       2.53120339      11.49295083
Si      -0.55706969       3.81146554       4.37501835
Si       0.77104358      -1.82192671       8.03378776
Si      -1.18613839       5.90888835       0.27518386
Si      -1.33050553       2.94395479       8.99386457
Si       2.20109956       0.94119789      -0.82493784
Si      -1.71400945       2.94491443       6.54976154
Si      -0.74142813       0.65797754       5.80209803
Si      -1.49363723      -2.00327935      10.84894288
16
Lattice="2.5978662858158525 -0.25709664293453194 -0.44690145096718614 -1.0860807337133416 7.953482378977885 -2.92781623824688 -3.0282943988090314 -6.220802100239258 17.614177965009414" Properties=species:S:1:pos:R:3 unique_starting_index=140 config_type=initial n_minim_iter=2 stress="0.00032208598028513524 -3.5880504203403945e-05 -1.94397315793827e-05 -3.5880504203403945e-05 6.48219297343886e-05 -9.623485249694364e-05 -1.94397315793827e-05 -9.623485249694364e-05 0.0003281298288385509" pbc="T T T"
Si      -0.15604813       3.60861528      -0.31642215
Si      -1.05460664       1.48657053       3.47559336
Si       0.33569047      -1.72677544       5.56592913
Si      -1.08606474       3.72296518       1.97923430
Si      -0.00176543      -0.03880786      10.61326641
Si      -0.15722645       0.00295841       1.76197339
Si      -0.32728023       0.67677353       8.35145835
Si      -2.32449256       2.52555864      11.49501495
Si      -0.55902940       3.80875801       4.37442546
Si       0.77010111      -1.82565499       8.03663031
Si      -1.18726308       5.90813720       0.27257397
Si      -1.33299810       2.93919824       8.99488656
Si       2.20184573       0.94123348      -0.82597426
Si      -1.71601887       2.94169482       6.55048108
Si      -0.74298935       0.65543915       5.80348955
Si      -1.49603549      -2.00804562      10.85291749
16
Lattice="2.597434759665147 -0.25707152422155755 -0.4470216171343672 -1.0859030466640118 7.95277269880484 -2.928657530294038 -3.029340187939959 -6.2232440612321795 17.611665105983448" Properties=species:S:1:pos:R:3 unique_starting_index=140 config_type=initial n_minim_iter=3 stress="-7.201086521350144e-07 -5.172308845160732e-05 -6.546553496770231e-05 -5.172308845160732e-05 -0.0003022883741964388 -0.00016744503054677082 -6.546553496770231e-05 -0.00016744503054677082 -6.108056165809176e-05" pbc="T T T"
Si      -0.15610345       3.60808088      -0.31701672
Si      -1.05481622       1.48588149       3.47466517
Si       0.33507919      -1.72788474       5.56499908
Si      -1.08617954       3.72185448       1.97820299
Si      -0.00282710      -0.04090231      10.61081845
Si      -0.15727573       0.00244306       1.76150558
Si      -0.32816256       0.67527143       8.34929524
Si      -2.32536404       2.52278424      11.49193271
Si      -0.55999068       3.80703423       4.37269679
Si       0.76930153      -1.82703640       8.03510499
Si      -1.18726658       5.90713015       0.27133988
Si      -1.33379876       2.93667628       8.99219798
Si       2.20149359       0.94117746      -0.82617490
Si      -1.71636534       2.94000163       6.54862573
Si      -0.74362635       0.65437116       5.80213204
Si      -1.49692438      -2.00988010      10.85086710
16
Lattice="2.5964075709428656 -0.2571069671085824 -0.4470432354856286 -1.084740348169543 7.958920378167816 -2.927440447876303 -3.029490737733691 -6.227634685947993 17.60671642557964" Properties=species:S:1:pos:R:3 unique_starting_index=140 config_type=initial n_minim_iter=4 stress="-0.00011659996981256417 7.641327670382071e-06 -0.00010056760230318784 7.641327670382071e-06 0.00023260644687853236 -7.477065864742568e-05 -0.00010056760230318784 -7.477065864742568e-05 -0.0002492767742582549" pbc="T T T"
Si      -0.15563375       3.61100878      -0.31653398
Si      -1.05435574       1.48799683       3.47419470
Si       0.33444716      -1.72986469       5.56360711
Si      -1.08538910       3.72444319       1.97811764
Si      -0.00311386      -0.04019555      10.60794656
Si      -0.15690684       0.00186035       1.76069721
Si      -0.32848408       0.67733778       8.34672745
Si      -2.32472657       2.52506145      11.48856934
Si      -0.56135977       3.80947299       4.37186939
Si       0.76894555      -1.82800057       8.03303588
Si      -1.18617847       5.91181125       0.27127032
Si      -1.33335150       2.93855014       8.98955650
Si       2.20077702       0.94208985      -0.82590203
Si      -1.71521459       2.94290574       6.54741786
Si      -0.74408845       0.65583263       5.80077610
Si      -1.49738620      -2.01107725      10.84755453
16
Lattice="2.595653057580093 -0.2570415497735517 -0.44635002016388636 -1.0851833899056484 7.954601086372518 -2.925991060408596 -3.022329964415998 -6.218186978118724 17.611392275189278" Properties=species:S:1:pos:R:3 unique_starting_index=140 config_type=initial n_minim_iter=5 stress="-0.0003565350055951871 1.6773991524131937e-05 7.974258748374811e-05 1.6773991524131937e-05 -8.597197658903027e-05 7.109077890406585e-05 7.974258748374811e-05 7.109077890406585e-05 9.984165537131244e-05" pbc="T T T"
Si      -0.15536755       3.60948084      -0.31502931
Si      -1.05254875       1.48976504       3.47644797
Si       0.33634763      -1.72799713       5.56601569
Si      -1.08392092       3.72329860       1.98040949
Si       0.00133834      -0.03556804      10.61298038
Si      -0.15566532       0.00172174       1.76106229
Si      -0.32521534       0.68189430       8.35052282
Si      -2.31944332       2.52853104      11.49359711
Si      -0.56150649       3.80893099       4.37570577
Si       0.77244435      -1.82387676       8.03661697
Si      -1.18521529       5.90963180       0.27291922
Si      -1.32912469       2.94009889       8.99411487
Si       2.20009950       0.94163374      -0.82488211
Si      -1.71134437       2.94492666       6.55152234
Si      -0.74233376       0.65874523       5.80375097
Si      -1.49338202      -2.00583925      10.85097697
16
Lattice="2.5977373532749692 -0.25703696775515794 -0.44628343485808625 -1.085947640367499 7.953226321138335 -2.9242238717058417 -3.0254945748088633 -6.2162662102662285 17.60343705089354" Properties=species:S:1:pos:R:3 unique_starting_index=140 config_type=initial n_minim_iter=6 stress="0.00020837159217254364 -7.678947577669391e-06 -2.3126527532660176e-05 -7.678947577669391e-06 -4.398068270100491e-05 0.00010428176836490233 -2.3126527532660176e-05 0.00010428176836490233 -0.0001786430145853906" pbc="T T T"
Si      -0.15538805       3.60886513      -0.31457362
Si      -1.05350211       1.49004155       3.47510291
Si       0.33632721      -1.72807171       5.56362405
Si      -1.08476807       3.72259635       1.97984337
Si       0.00100846      -0.03489522      10.60811595
Si      -0.15551922       0.00144973       1.76013601
Si      -0.32591118       0.68280066       8.34679504
Si      -2.32167182       2.52878755      11.48854171
Si      -0.56352757       3.80828870       4.37438960
Si       0.77308242      -1.82312802       8.03295319
Si      -1.18599988       5.90880637       0.27304989
Si      -1.33038904       2.93977560       8.99015780
Si       2.20190138       0.94147891      -0.82458017
Si      -1.71253135       2.94527833       6.54915993
Si      -0.74364320       0.65930822       5.80143109
Si      -1.49529138      -2.00488443      10.84595980
16
Lattice="2.596755167776845 -0.2567030231396971 -0.4463462192178085 -1.0851016669217544 7.957225223094255 -2.93035317009074 -3.0252467814457433 -6.229701520629024 17.613082961376197" Properties=species:S:1:pos:R:3 unique_starting_index=140 config_type=initial n_minim_iter=7 stress="6.327050034294666e-05 8.807215302949992e-06 4.308086141862731e-06 8.807215302949992e-06 0.00012856883577518774 -0.00016148884201348785 4.308086141862731e-06 -0.00016148884201348785 0.00014326598466155138" pbc="T T T"
Si      -0.15500531       3.60999076      -0.31699095
Si      -1.05325260       1.48768339       3.47477186
Si       0.33591113      -1.73263345       5.56656906
Si      -1.08427881       3.72208096       1.97784953
Si       0.00062983      -0.04211406      10.61099817
Si      -0.15510011       0.00036872       1.76084313
Si      -0.32613629       0.67736399       8.34892094
Si      -2.32088781       2.52197674      11.49045682
Si      -0.56457799       3.80658810       4.37391526
Si       0.77270234      -1.82881295       8.03631579
Si      -1.18507922       5.91013939       0.26936052
Si      -1.32982087       2.93461198       8.99100911
Si       2.20111272       0.94234959      -0.82575402
Si      -1.71157250       2.94220399       6.54949804
Si      -0.74400197       0.65558806       5.80304267
Si      -1.49535142      -2.01261110      10.85070691
16
Lattice="2.59615724088086 -0.25729135017172 -0.4470972039006754 -1.0855449582656365 7.951893355148574 -2.925752660196459 -3.0259475029084766 -6.213762095933494 17.617207789656604" Properties=species:S:1:pos:R:3 unique_starting_index=140 config_type=initial n_minim_iter=8 stress="-0.000261741345255012 -1.4565635023170431e-05 -5.545525581763552e-05 -1.4565635023170431e-05 -0.00010741808924038843 8.555549328112827e-05 -5.545525581763552e-05 8.555549328112827e-05 0.00015858126481008985" pbc="T T T"
Si      -0.15441170       3.60792064      -0.31411226
Si      -1.05380598       1.48872040       3.47623077
Si       0.33519872      -1.73107275       5.56870668
Si      -1.08457276       3.72096732       1.98112410
Si      -0.00052180      -0.03473545      10.61350997
Si      -0.15258428       0.00090517       1.76156187
Si      -0.32767030       0.68394284       8.35330977
Si      -2.32082854       2.53072850      11.49725807
Si      -0.57464805       3.80842965       4.38303441
Si       0.77379331      -1.82167509       8.03743382
Si      -1.18404107       5.90817016       0.27412303
Si      -1.32929036       2.93986033       8.99739835
Si       2.20046096       0.94097345      -0.82667823
Si      -1.70946003       2.94952516       6.55631771
Si      -0.74789543       0.66016771       5.80761264
Si      -1.49726712      -2.00304845      10.85403896
16
Lattice="2.596899945446066 -0.2570449912662088 -0.445885138506256 -1.0865996989672295 7.952445817144595 -2.9268523173295815 -3.0203924636756914 -6.217302311527913 17.612220211368115" Properties=species:S:1:pos:R:3 unique_starting_index=140 config_type=initial n_minim_iter=9 stress="-4.974819851003563e-05 -1.3215923089720633e-05 2.750116269828381e-05 -1.3215923089720633e-05 -2.944571188650547e-05 2.4162295404483833e-05 2.750116269828381e-05 2.4162295404483833e-05 -1.1857453319789206e-05" pbc="T T T"
Si      -0.15398033       3.60792132      -0.31467555
Si      -1.05264585       1.48784107       3.47426314
Si       0.33742601      -1.73325812       5.56781231
Si      -1.08382476       3.72001813       1.97948244
Si       0.00388786      -0.03654201      10.60980006
Si      -0.15098383       0.00022113       1.76078809
Si      -0.32455129       0.68273813       8.35045478
Si      -2.31641141       2.52868464      11.49232339
Si      -0.57643775       3.80754167       4.38221187
Si       0.77795637      -1.82296117       8.03553289
Si      -1.18338837       5.90812431       0.27260242
Si      -1.32524325       2.93800393       8.99377631
Si       2.20097278       0.94119473      -0.82603994
Si      -1.70621066       2.94935538       6.55370820
Si      -0.74700743       0.65937437       5.80601180
Si      -1.49398524      -2.00505956      10.85047855
16
Lattice="2.5978485153552695 -0.2561798468485524 -0.44546802553422005 -1.0851385519801326 7.952720811427649 -2.928885824627027 -3.0215035687156058 -6.223127428915342 17.611128756573432" Properties=species:S:1:pos:R:3 unique_starting_index=140 config_type=initial n_minim_iter=10 stress="0.00029578295768645664 4.616126612426873e-05 -3.592603616500783e-05 4.616126612426873e-05 0.00011071197302308499 -7.134247958553609e-05 -3.592603616500783e-05 -7.134247958553609e-05 -0.00014571010790762976" pbc="T T T"
Si      -0.15208663       3.60772519      -0.31590332
Si      -1.05196440       1.48593726       3.47304943
Si       0.33780278      -1.73635844       5.56757772
Si      -1.08302983       3.71776859       1.97861748
Si       0.00519484      -0.03864448      10.60698685
Si      -0.14905772      -0.00086731       1.75966787
Si      -0.32383505       0.68027484       8.34804197
Si      -2.31432020       2.52476322      11.48917733
Si      -0.58255419       3.80598892       4.38275190
Si       0.77989424      -1.82475340       8.03454149
Si      -1.18090969       5.90740431       0.27139078
Si      -1.32233378       2.93530107       8.99199004
Si       2.20201298       0.94160102      -0.82657160
Si      -1.70368456       2.94855358       6.55216374
Si      -0.74886366       0.65791038       5.80561766
Si      -1.49450980      -2.00843509      10.84861521
16
Lattice="2.5965377254186492 -0.2571552632446393 -0.44476349613337146 -1.0884362904356433 7.952090114792189 -2.928902287605878 -3.0117435326074133 -6.218634318132569 17.615075230501418" Properties=species:S:1:pos:R:3 unique_starting_index=140 config_type=initial n_minim_iter=11 stress="-1.923160710110178e-05 -7.23889886939525e-05 9.246832720427756e-05 -7.23889886939525e-05 1.0755174896952979e-05 -3.7285613856067273e-06 9.246832720427756e-05 -3.7285613856067273e-06 -1.856026689718453e-05" pbc="T T T"
Si      -0.15241780       3.60749508      -0.31609251
Si      -1.05009418       1.48597998       3.47493522
Si       0.34068255      -1.73488788       5.56870666
Si      -1.08359212       3.71721625       1.98085567
Si       0.00867080      -0.03520988      10.61028767
Si      -0.14747695      -0.00059096       1.75898586
Si      -0.32091148       0.68070645       8.34950088
Si      -2.30916069       2.52732595      11.49293716
Si      -0.58726560       3.80716897       4.38555172
Si       0.78304000      -1.82351284       8.03738256
Si      -1.18137020       5.90714550       0.27322973
Si      -1.31817497       2.93874132       8.99654600
Si       2.20029111       0.93992968      -0.82632651
Si      -1.70148370       2.94994722       6.55380308
Si      -0.74801404       0.65905678       5.80755918
Si      -1.48884980      -2.00579397      10.85082853
16
Lattice="2.596430685056402 -0.2565200434525927 -0.44543852399021144 -1.0857779913222299 7.9511393579810035 -2.9288881790378722 -3.0172146528448134 -6.218562825322145 17.617945458043923" Properties=species:S:1:pos:R:3 unique_starting_index=140 config_type=initial n_minim_iter=12 stress="-4.3627892329950586e-05 2.6743249169543407e-06 7.120819635374797e-06 2.6743249169543407e-06 -1.3958363124457276e-05 1.2754399891113885e-05 7.120819635374797e-06 1.2754399891113885e-05 2.5939647366569334e-05" pbc="T T T"
Si      -0.15120343       3.60713736      -0.31604219
Si      -1.05031787       1.48546355       3.47591507
Si       0.33911342      -1.73429541       5.56927930
Si      -1.08328744       3.71647459       1.98160226
Si       0.00606898      -0.03491699      10.61162440
Si      -0.14774195      -0.00072274       1.75904990
Si      -0.32258606       0.68064996       8.35035930
Si      -2.31089610       2.52690697      11.49510390
Si      -0.58837456       3.80686887       4.38635312
Si       0.78053074      -1.82311768       8.03829975
Si      -1.17979775       5.90633134       0.27371673
Si      -1.31925816       2.93863020       8.99821023
Si       2.20060512       0.94028967      -0.82696649
Si      -1.70236865       2.94918572       6.55498434
Si      -0.74935169       0.65893810       5.80844022
Si      -1.49162704      -2.00567223      10.85240034
16
Lattice="2.5964546631523255 -0.2554626374247147 -0.44660436132414816 -1.0815880479044835 7.949279512749229 -2.9298576714003337 -3.0267805401391312 -6.219946276042248 17.623953862873012" Properties=species:S:1:pos:R:3 unique_starting_index=140 config_type=initial n_minim_iter=13 stress="-3.443454216577619e-05 0.00010607550213555627 -0.00016475304054338127 0.00010607550213555627 -2.968101750822086e-05 3.0249988264332698e-05 -0.00016475304054338127 3.0249988264332698e-05 7.85650705921145e-05" pbc="T T T"
Si      -0.14827021       3.60612238      -0.31601076
Si      -1.05034321       1.48314491       3.47800957
Si       0.33713536      -1.73342680       5.57079824
Si      -1.08359866       3.71385771       1.98262892
Si       0.00121479      -0.03574285      10.61355414
Si      -0.14727529      -0.00186832       1.75880466
Si      -0.32510201       0.67984122       8.35104650
Si      -2.31328972       2.52563693      11.49898274
Si      -0.59544311       3.80575716       4.38809445
Si       0.77599913      -1.82350295       8.04036613
Si      -1.17671765       5.90434905       0.27381572
Si      -1.32040929       2.93785246       9.00089466
Si       2.20139159       0.94073947      -0.82837265
Si      -1.70435192       2.94668533       6.55681354
Si      -0.75276108       0.65823449       5.80999373
Si      -1.49597557      -2.00589335      10.85505363
16
Lattice="2.596801340050282 -0.25614573911799515 -0.44456741323249915 -1.086412088004503 7.94992293646395 -2.931939157397365 -3.012823836843203 -6.222990467908535 17.6194030372334" Properties=species:S:1:pos:R:3 unique_starting_index=140 config_type=initial n_minim_iter=14 stress="9.272018721015538e-07 -2.7025784323621447e-05 5.5119409866907285e-05 -2.7025784323621447e-05 -4.5085153640667116e-07 -1.4256508620975497e-05 5.5119409866907285e-05 -1.4256508620975497e-05 -3.320627732108093e-05" pbc="T T T"
Si      -0.14817905       3.60582090      -0.31599253
Si      -1.04780047       1.48085052       3.47662279
Si       0.34296257      -1.73420630       5.57073302
Si      -1.08445635       3.71243283       1.98032891
Si       0.00854119      -0.03835201      10.61016325
Si      -0.14455570      -0.00352332       1.75816753
Si      -0.31821002       0.67887081       8.34798885
Si      -2.30483811       2.52496825      11.49441252
Si      -0.60103798       3.80486962       4.38685505
Si       0.78175993      -1.82592155       8.03970335
Si      -1.17761830       5.90412092       0.27111631
Si      -1.31373752       2.93662574       8.99666326
Si       2.20128198       0.94020435      -0.82681765
Si      -1.70153244       2.94502975       6.55359265
Si      -0.75012331       0.65729030       5.80801045
Si      -1.48677260      -2.00701597      10.85159595
16
Lattice="2.596960118575278 -0.2558072368858352 -0.44501989836196876 -1.0850850303326873 7.949217557031823 -2.932420860921052 -3.0164408806230614 -6.223453472202668 17.62226103600346" Properties=species:S:1:pos:R:3 unique_starting_index=140 config_type=initial n_minim_iter=15 stress="6.705669089399852e-05 -2.664674556557972e-05 -3.234113143636391e-05 -2.664674556557972e-05 3.299230072057297e-05 -5.219183063374319e-06 -3.234113143636391e-05 -5.219183063374319e-06 2.1479205829626413e-05" pbc="T T T"
Si      -0.14620407       3.60540827      -0.31540043
Si      -1.04757289       1.47834283       3.47737398
Si       0.34332562      -1.73338719       5.57129087
Si      -1.08536572       3.71130870       1.98082881
Si       0.00678059      -0.03682124      10.61019799
Si      -0.14331711      -0.00488238       1.75848497
Si      -0.31750229       0.67952050       8.34883798
Si      -2.30503213       2.52495498      11.49599298
Si      -0.60889907       3.80427858       4.38814944
Si       0.77853365      -1.82612863       8.04055812
Si      -1.17598290       5.90292238       0.27129632
Si      -1.31368631       2.93675376       8.99698569
Si       2.20211166       0.94018859      -0.82675623
Si      -1.70411191       2.94356726       6.55438828
Si      -0.75145223       0.65674297       5.80878767
Si      -1.48725564      -2.00698876      10.85327189
16
Lattice="2.596818608197453 -0.25523400093840726 -0.4447293273011732 -1.0837211579377624 7.948529337113189 -2.9327440561088447 -3.0156616693562137 -6.223912316533841 17.62261829266476" Properties=species:S:1:pos:R:3 unique_starting_index=140 config_type=initial n_minim_iter=16 stress="1.5435380269123035e-05 4.600149502359377e-06 -1.5568803193475587e-05 4.600149502359377e-06 6.544158627667338e-06 4.63530628364333e-06 -1.5568803193475587e-05 4.63530628364333e-06 1.4569764657710977e-05" pbc="T T T"
Si      -0.14441114       3.60509605      -0.31496018
Si      -1.04645833       1.47629681       3.47722862
Si       0.34475322      -1.73293142       5.57126815
Si      -1.08495596       3.71063459       1.98101463
Si       0.00819478      -0.03508880      10.60948474
Si      -0.14181785      -0.00602059       1.75875815
Si      -0.31448886       0.68035753       8.34922546
Si      -2.30203366       2.52480374      11.49587027
Si      -0.61369886       3.80366762       4.38893735
Si       0.77733258      -1.82597668       8.04080810
Si      -1.17383153       5.90174277       0.27143309
Si      -1.31121716       2.93675392       8.99610913
Si       2.20267266       0.94040496      -0.82594982
Si      -1.70453438       2.94254612       6.55423177
Si      -0.75066596       0.65617890       5.80899102
Si      -1.48514135      -2.00699920      10.85370692
16
Lattice="2.5965847623713216 -0.25458780558207156 -0.44420962903622774 -1.0824237499628089 7.948014458528219 -2.9335774660126424 -3.013517542294904 -6.225454899048655 17.622892987874764" Properties=species:S:1:pos:R:3 unique_starting_index=140 config_type=initial n_minim_iter=17 stress="-6.869011126519665e-05 1.0425721100655088e-05 1.5006734054637052e-05 1.0425721100655088e-05 -3.0588936699718325e-05 6.295943763163815e-06 1.5006734054637052e-05 6.295943763163815e-06 -2.507889138638925e-05" pbc="T T T"
Si      -0.14233382       3.60463039      -0.31489777
Si      -1.04503462       1.47339706       3.47650755
Si       0.34731753      -1.73322350       5.57083060
Si      -1.08429503       3.71027393       1.98158712
Si       0.01113505      -0.03343027      10.60831513
Si      -0.13927798      -0.00810347       1.75908248
Si      -0.30898678       0.68135462       8.34939660
Si      -2.29732178       2.52468400      11.49525258
Si      -0.62189270       3.80253500       4.39006254
Si       0.77492330      -1.82630326       8.04119522
Si      -1.17095546       5.89986144       0.27187260
Si      -1.30790229       2.93674791       8.99388362
Si       2.20360405       0.94047051      -0.82466432
Si      -1.70647614       2.94131172       6.55330250
Si      -0.74853350       0.65476417       5.80929191
Si      -1.48131125      -2.00687796      10.85398604
16
Lattice="2.5967602532584357 -0.2541058826764013 -0.4440457141641882 -1.0815248890006621 7.947590224784382 -2.935189787453625 -3.013645116337171 -6.228214347817207 17.62517181728798" Properties=species:S:1:pos:R:3 unique_starting_index=140 config_type=initial n_minim_iter=18 stress="1.624530861357789e-05 1.1287543523234284e-05 1.7240671721899374e-05 1.1287543523234284e-05 8.34814859548422e-06 8.44213022612818e-06 1.7240671721899374e-05 8.44213022612818e-06 1.6387676386617052e-05" pbc="T T T"
Si      -0.14189459       3.60367847      -0.31646424
Si      -1.04483591       1.47273537       3.47630501
Si       0.34833426      -1.73558695       5.57123960
Si      -1.08319627       3.71001281       1.98267270
Si       0.01341038      -0.03639186      10.60952262
Si      -0.13766632      -0.00992481       1.75842208
Si      -0.30578675       0.68008345       8.34844509
Si      -2.29516071       2.52406077      11.49609228
Si      -0.62759017       3.80122562       4.39157569
Si       0.77266526      -1.82751116       8.04280165
Si      -1.16914126       5.89786146       0.27229144
Si      -1.30712020       2.93625182       8.99320522
Si       2.20455562       0.94021183      -0.82504651
Si      -1.70907514       2.94095062       6.55240320
Si      -0.74656835       0.65291966       5.81023113
Si      -1.48028434      -2.00629269      10.85400727
16
Lattice="2.5966095543935226 -0.253812642611498 -0.444249839563847 -1.0806358568105554 7.948084892020706 -2.937230101055215 -3.0156638342504287 -6.232959505828424 17.627271167323283" Properties=species:S:1:pos:R:3 unique_starting_index=140 config_type=initial n_minim_iter=19 stress="-1.1937170323038635e-05 -5.094055629326796e-05 -4.5579021854711446e-05 -5.094055629326796e-05 -1.1545934126070204e-05 -1.410783352692066e-05 -4.5579021854711446e-05 -1.410783352692066e-05 -3.9848340151427406e-05" pbc="T T T"
Si      -0.14062354       3.60297017      -0.31685865
Si      -1.04490580       1.46967293       3.47572344
Si       0.35007521      -1.73757700       5.57212112
Si      -1.08351968       3.70980161       1.98217197
Si       0.01444300      -0.03617708      10.60857761
Si      -0.13525789      -0.01328634       1.75838407
Si      -0.30119625       0.67893462       8.34782033
Si      -2.29384357       2.52240955      11.49551229
Si      -0.63958316       3.79987855       4.39298002
Si       0.76626923      -1.82962278       8.04354319
Si      -1.16714999       5.89575022       0.27146784
Si      -1.30771456       2.93574747       8.99054661
Si       2.20591354       0.93957002      -0.82481325
Si      -1.71586159       2.93920307       6.55102221
Si      -0.74436550       0.65005493       5.81027789
Si      -1.47895056      -2.00759794      10.85437770
16
Lattice="2.5964394905924477 -0.25302262406756815 -0.443963013689348 -1.0787606349696317 7.947808813761974 -2.9387718878685725 -3.015560939074337 -6.236439358178352 17.628404952776517" Properties=species:S:1:pos:R:3 unique_starting_index=140 config_type=initial n_minim_iter=20 stress="-2.9975307534543846e-07 1.869761086406448e-05 -9.134853270882273e-06 1.869761086406448e-05 1.6054500388047744e-06 6.135415383992032e-06 -9.134853270882273e-06 6.135415383992032e-06 -4.499283474552155e-06" pbc="T T T"
Si      -0.14025701       3.60201488      -0.31730521
Si      -1.04446173       1.46978271       3.47588359
Si       0.35042109      -1.73951337       5.57463262
Si      -1.08179664       3.70868319       1.98034984
Si       0.01719797      -0.03755128      10.60941447
Si      -0.13471248      -0.01459614       1.75740098
Si      -0.29883338       0.67617571       8.34670719
Si      -2.29155764       2.51990920      11.49503204
Si      -0.64020042       3.79952265       4.39391933
Si       0.76537483      -1.83045766       8.04464744
Si      -1.16536442       5.89464619       0.26946707
Si      -1.30693058       2.93478723       8.99088791
Si       2.20637200       0.93943209      -0.82554995
Si      -1.71622866       2.93858380       6.55065401
Si      -0.74167292       0.64864391       5.80976018
Si      -1.47866629      -2.00923782      10.85372203
16
Lattice="2.596225563550488 -0.25355490620892085 -0.44285660638835994 -1.0822551601824006 7.9472601310116815 -2.942576532639939 -3.0062547044584336 -6.24039329146423 17.632324968325886" Properties=species:S:1:pos:R:3 unique_starting_index=140 config_type=initial n_minim_iter=21 stress="5.2166688165461574e-06 -0.00013480217011148138 0.00010121892212717828 -0.00013480217011148138 4.369608869918214e-05 -3.7350695912553434e-05 0.00010121892212717828 -3.7350695912553434e-05 5.92840434305622e-05" pbc="T T T"
Si      -0.14078416       3.59927443      -0.31872370
Si      -1.04328322       1.46732802       3.47526277
Si       0.35420180      -1.74240832       5.57695099
Si      -1.08214006       3.70567032       1.97879088
Si       0.02345148      -0.04010500      10.60975637
Si      -0.13193297      -0.01630069       1.75618362
Si      -0.29152560       0.67314733       8.34715028
Si      -2.28499639       2.51864399      11.49445493
Si      -0.65091166       3.79830886       4.39479890
Si       0.76651687      -1.83176694       8.04790482
Si      -1.16514218       5.89292797       0.26759061
Si      -1.30454123       2.93283301       8.99171747
Si       2.20674815       0.93717354      -0.82539969
Si      -1.71798037       2.93677220       6.55188328
Si      -0.73689615       0.64625393       5.80863935
Si      -1.47216350      -2.01132941      10.85505755
