16
Lattice="6.618036571953128 -0.5199751928284209 -0.4497357641158372 0.6017625227689906 6.6111015825697805 -0.4497357641159773 0.6017625227688924 0.5076888615190703 6.606903844651534" Properties=species:S:1:pos:R:3 unique_starting_index=52 config_type=initial n_minim_iter=1 energy=-2602.8986595096117 free_energy=-2602.8986595096117 pbc="T T T"
Si       4.29860994       1.49044748       2.10239419
Si       2.98624848       3.85077711       1.17191218
Si       2.19294811       2.65491447       3.64169606
Si       0.86772769       2.67116993       1.39422477
Si       1.88552573       0.55822146       2.44236450
Si       2.77913745       1.43811968       0.20042378
Si       5.27775877       5.01076116       6.28150585
Si       7.72763049       4.03421317       4.05322488
Si       5.82786662       6.84407473       3.40798951
Si       6.38257856       4.81135645       2.31937064
Si       4.02052911       5.78825992       4.42688749
Si       5.81733320       3.08507960       5.08987803
Si       7.06293169       1.04227732       5.18671324
Si       6.39657638       6.07260495       0.28393700
Si       2.21662004       6.11059347       5.96829820
Si       4.36626686       3.68368745       3.18608659
16
Lattice="6.6074408294586995 -0.5447065682639942 -0.47112636924961976 0.5756001766812726 6.604821269111841 -0.4711263692497612 0.5756001766811734 0.485616480476093 6.6037717015812065" Properties=species:S:1:pos:R:3 unique_starting_index=52 config_type=initial n_minim_iter=2 stress="-0.0018957257383639195 -0.00035797779433249886 -0.0003096213417312385 -0.00035797779433249886 -0.0017734304743905458 -0.0002612181725148483 -0.0003096213417312385 -0.0002612181725148483 -0.0016973476527873204" pbc="T T T"
Si       4.27567050       1.46558340       2.08277714
Si       2.95971889       3.83203704       1.15013466
Si       2.16457658       2.63284688       3.62628998
Si       0.85148255       2.66147892       1.38492096
Si       1.87233856       0.54399358       2.43411543
Si       2.76684952       1.42684045       0.18753320
Si       5.22502758       4.96883265       6.24873167
Si       7.68082674       3.98871297       4.01645715
Si       5.77765810       6.80516941       3.36826288
Si       6.34176057       4.77515998       2.28303067
Si       3.97306731       5.75495787       4.39630583
Si       5.77478077       3.04419892       5.06133074
Si       7.02467259       0.99812997       5.15748065
Si       6.35534877       6.04083396       0.24446321
Si       2.16666110       6.07730242       5.94254745
Si       4.33188003       3.65467633       3.16099435
16
Lattice="6.618636884267523 -0.550944742038287 -0.47652187635796645 0.5713362048503505 6.616907831879877 -0.4765218763581081 0.5713362048502516 0.48201909625477496 6.616509649738821" Properties=species:S:1:pos:R:3 unique_starting_index=52 config_type=initial n_minim_iter=3 stress="0.0007591826845913067 -0.0006971868257749332 -0.0006030092476443192 -0.0006971868257749332 0.0009973612762442785 -0.0005087406856331851 -0.0006030092476443192 -0.0005087406856331851 0.0011455378998479608" pbc="T T T"
Si       4.27952906       1.46300950       2.08276591
Si       2.95999199       3.83590484       1.14758925
Si       2.16268911       2.63344635       3.63048423
Si       0.85032928       2.66471640       1.38662879
Si       1.87427015       0.54249366       2.43707300
Si       2.76984659       1.42828808       0.18562272
Si       5.22460013       4.97089201       6.25440086
Si       7.68657723       3.98729705       4.01767802
Si       5.77961608       6.81066874       3.36668581
Si       6.34634443       4.77723510       2.27971252
Si       3.97089727       5.75997880       4.39883747
Si       5.77759807       3.04151621       5.06593442
Si       7.03062900       0.99110083       5.16080978
Si       6.35860051       6.04632120       0.23702768
Si       2.16073523       6.08161348       5.94904894
Si       4.33398085       3.65644872       3.16252732
16
Lattice="6.619851000594516 -0.5143731298080375 -0.4448904404776241 0.6075901099060459 6.611946857400248 -0.4448904404777612 0.6075901099059504 0.5126054207381464 6.607042033447606" Properties=species:S:1:pos:R:3 unique_starting_index=52 config_type=initial n_minim_iter=4 stress="1.2245454711395519e-05 -0.00012180733438102213 -0.00010535332330859561 -0.00012180733438102213 5.38582596064791e-05 -8.88834162044752e-05 -0.00010535332330859561 -8.88834162044752e-05 7.974658519025985e-05" pbc="T T T"
Si       4.30067200       1.48399854       2.10311312
Si       2.98638086       3.85284642       1.16542695
Si       2.18693845       2.65607530       3.64467836
Si       0.88990548       2.66726669       1.42265529
Si       1.91643754       0.57544029       2.43440486
Si       2.77902413       1.46949856       0.21860994
Si       5.28558098       5.04030302       6.28060624
Si       7.73226657       4.04135676       4.08258802
Si       5.85830378       6.84357887       3.41082699
Si       6.39686583       4.81756727       2.31713338
Si       4.02163470       5.80256527       4.43335589
Si       5.82586097       3.08474454       5.10310189
Si       7.05903659       1.05481112       5.16040066
Si       6.37203483       6.07284547       0.30013190
Si       2.22831906       6.08369811       5.96620236
Si       4.38775825       3.70181909       3.20176896
16
Lattice="6.624634296765684 -0.46606852274908944 -0.40311092932863013 0.6560104591349121 6.608528558710117 -0.4031109293287649 0.6560104591348186 0.5534562066283035 6.597638544204754" Properties=species:S:1:pos:R:3 unique_starting_index=52 config_type=initial n_minim_iter=5 stress="-0.00013011756259708815 0.0005265712015041015 0.00045544076897571475 0.0005265712015041015 -0.00031000906734294706 0.0003842416181505798 0.00045544076897571475 0.0003842416181505798 -0.0004219238939607487" pbc="T T T"
Si       4.33093693       1.51785216       2.13275099
Si       3.02519550       3.87691962       1.19465606
Si       2.22540460       2.68888157       3.66428805
Si       0.93979088       2.67849510       1.47769178
Si       1.98011647       0.61517097       2.43758473
Si       2.79849170       1.53077448       0.25746764
Si       5.36966815       5.13173597       6.31530542
Si       7.79325985       4.11624332       4.16806603
Si       5.96258954       6.88764209       3.47261357
Si       6.47188950       4.86448499       2.37578995
Si       4.09814723       5.86560616       4.47133083
Si       5.88474098       3.15230773       5.16001214
Si       7.10234248       1.12868762       5.15912701
Si       6.38857850       6.11395270       0.37342078
Si       2.30843246       6.08679691       5.99631878
Si       4.45831229       3.76134340       3.25325259
16
Lattice="6.6224007648082575 -0.450542388997876 -0.38968210094859734 0.6709388539902095 6.603712697280454 -0.38968210094872985 0.6709388539901182 0.5660508423884665 6.590937715670992" Properties=species:S:1:pos:R:3 unique_starting_index=52 config_type=initial n_minim_iter=6 stress="-4.623399602614677e-06 -0.0010230065684806915 -0.0008848165203195256 -0.0010230065684806915 0.00034486436282278826 -0.0007464929683339478 -0.0008848165203195256 -0.0007464929683339478 0.0005622890955312625" pbc="T T T"
Si       4.34184966       1.54105557       2.14578351
Si       3.04304141       3.88494207       1.21573913
Si       2.25011416       2.70276522       3.66918846
Si       0.94432308       2.69667479       1.51473573
Si       2.01959599       0.61302516       2.45023622
Si       2.81717495       1.56763444       0.25352102
Si       5.39195220       5.15500751       6.31523807
Si       7.80025204       4.13765577       4.19110436
Si       5.98928092       6.89017630       3.49048243
Si       6.50435413       4.85370791       2.40725965
Si       4.13277916       5.89262538       4.45613113
Si       5.87958401       3.18832215       5.18893976
Si       7.11848392       1.12441873       5.14268441
Si       6.37465125       6.13270690       0.37156601
Si       2.30694234       6.07292246       6.01514451
Si       4.47111088       3.77214118       3.26259178
16
Lattice="6.616521627050159 -0.3806823118142159 -0.3292588814821314 0.7388116343218927 6.586154783539575 -0.32925888148225885 0.7388116343218052 0.6233130567519741 6.564855449822091" Properties=species:S:1:pos:R:3 unique_starting_index=52 config_type=initial n_minim_iter=7 stress="0.0009389786322744224 0.002560199589496262 0.0022143620206350233 0.002560199589496262 6.434258060308898e-05 0.001868190342054705 0.0022143620206350233 0.001868190342054705 -0.0004797895184277802" pbc="T T T"
Si       4.38628946       1.60830425       2.18786228
Si       3.10112192       3.92010456       1.27622184
Si       2.32388530       2.74908581       3.69526771
Si       0.98593750       2.72293341       1.56903847
Si       2.08330165       0.64436049       2.46839514
Si       2.85006551       1.62664465       0.28191236
Si       5.50133730       5.26261944       6.36582262
Si       7.88329827       4.23443972       4.29030322
Si       6.11377422       6.95316015       3.57196051
Si       6.59016513       4.90963853       2.48189388
Si       4.22797347       5.96341873       4.50072233
Si       5.94916456       3.27300990       5.25256807
Si       7.18081536       1.22101162       5.15917841
Si       6.41495645       6.18905644       0.46477367
Si       2.41265125       6.09575488       6.05747364
Si       4.54477262       3.83428737       3.31634312
16
Lattice="6.593042694467258 -0.398123076094653 -0.344343707755787 0.7176665998163461 6.565947654854944 -0.34434370775591616 0.7176665998162572 0.6054736299204325 6.547033135614735" Properties=species:S:1:pos:R:3 unique_starting_index=52 config_type=initial n_minim_iter=8 stress="-0.0007970712016656567 0.0007343215198338579 0.0006351277029834654 0.0007343215198338579 -0.0010479360472803664 0.0005358380561214151 0.0006351277029834654 0.0005358380561214151 -0.0012040050942371224" pbc="T T T"
Si       4.37183775       1.60547870       2.16779091
Si       3.07870893       3.90927200       1.27631829
Si       2.31866678       2.72723959       3.68453432
Si       0.94895129       2.72194982       1.55648899
Si       2.06469318       0.61001717       2.46923033
Si       2.84286840       1.60899602       0.24780717
Si       5.44435091       5.22480472       6.33582412
Si       7.83906992       4.18418278       4.25720632
Si       6.06690428       6.91629725       3.52699778
Si       6.53851347       4.86474812       2.42749085
Si       4.15983323       5.92265826       4.46414056
Si       5.89621818       3.21292672       5.21750490
Si       7.14793203       1.18044525       5.13112354
Si       6.37629147       6.16230136       0.42867375
Si       2.36712730       6.06430600       6.03620022
Si       4.49804153       3.79486176       3.28224321
16
Lattice="6.588059280623526 -0.3854560725713733 -0.3333877918060043 0.7293136721268424 6.558902578674327 -0.33338779180613076 0.7293136721267556 0.6152999129766396 6.538482734806078" Properties=species:S:1:pos:R:3 unique_starting_index=52 config_type=initial n_minim_iter=9 stress="-0.0013689198644150525 -0.0006205934595851213 -0.0005367622871262727 -0.0006205934595851213 -0.0011569077168394485 -0.00045285012633082165 -0.0005367622871262727 -0.00045285012633082165 -0.001025009866691238" pbc="T T T"
Si       4.38170596       1.62001408       2.16964159
Si       3.08424051       3.91833826       1.29043524
Si       2.33465620       2.73012008       3.69147154
Si       0.95808940       2.73026237       1.58739000
Si       2.09755453       0.61367445       2.47300294
Si       2.85260090       1.64067087       0.25088261
Si       5.45592563       5.25451293       6.33551006
Si       7.84493262       4.19492371       4.28664969
Si       6.09813724       6.91690983       3.53338349
Si       6.55550383       4.86050400       2.42787901
Si       4.16246973       5.93944436       4.45988481
Si       5.89489542       3.21582734       5.23472907
Si       7.15552543       1.18906284       5.10853539
Si       6.35676093       6.17334084       0.44045657
Si       2.37690040       6.04282320       6.04542643
Si       4.51423284       3.80852188       3.29405809
16
Lattice="6.583586466438722 -0.34605297310355615 -0.2993073524079233 0.7674011004313998 6.547859113658874 -0.299307352408048 0.7674011004313145 0.6474331256352672 6.52264319209332" Properties=species:S:1:pos:R:3 unique_starting_index=52 config_type=initial n_minim_iter=10 stress="0.0020170311230540347 -0.0005472085852535599 -0.00047329040810735365 -0.0005472085852535599 0.0022039729374401166 -0.0003993008194562591 -0.00047329040810735365 -0.0003993008194562591 0.002320273931050518" pbc="T T T"
Si       4.42585659       1.67516819       2.17113340
Si       3.10096436       3.96027170       1.34479865
Si       2.39645675       2.73652975       3.72513292
Si       0.97737675       2.75603732       1.65417407
Si       2.16960688       0.62093360       2.48888455
Si       2.88125538       1.70887223       0.25577728
Si       5.50222523       5.33614390       6.34757043
Si       7.87608836       4.23657207       4.36569053
Si       6.18639847       6.93344057       3.56320648
Si       6.61305067       4.86148789       2.43485744
Si       4.17910596       5.99498300       4.45985277
Si       5.90555474       3.23088377       5.28969260
Si       7.21045198       1.22965106       5.08226264
Si       6.34614757       6.23087585       0.48440730
Si       2.42615742       6.02364233       6.09602710
Si       4.57011482       3.85566782       3.33483545
16
Lattice="6.559012376910639 -0.3334142780231718 -0.28837592093234266 0.7757216822226649 6.521507825111176 -0.2883759209324688 0.7757216822225788 0.6544529491319944 6.494991633723057" Properties=species:S:1:pos:R:3 unique_starting_index=52 config_type=initial n_minim_iter=11 stress="0.004396245686791475 -0.0005753021992237039 -0.0004975890729668909 -0.0005753021992237039 0.004592785068375871 -0.00041980086894782826 -0.0004975890729668909 -0.00041980086894782826 0.004715056939101493" pbc="T T T"
Si       4.45556790       1.70894927       2.12629726
Si       3.06703105       3.99620963       1.38468847
Si       2.43475819       2.69556253       3.75494716
Si       0.96780746       2.75993640       1.69003873
Si       2.20353312       0.60543063       2.48757445
Si       2.88348756       1.74290857       0.24062493
Si       5.47577602       5.35258554       6.30615670
Si       7.83357421       4.21700179       4.38792871
Si       6.19815198       6.88830299       3.54063572
Si       6.61728829       4.80944954       2.38556274
Si       4.12434355       6.00863618       4.41546150
Si       5.85497284       3.18396828       5.30960052
Si       7.24536577       1.23081342       5.03827315
Si       6.30928247       6.27259239       0.49189688
Si       2.43318180       5.98504343       6.13622886
Si       4.59158525       3.87378177       3.35050253
16
Lattice="6.54125349634875 -0.341513155497821 -0.29538078366383014 0.7647482755994911 6.505366139875637 -0.2953807836639583 0.7647482755994033 0.645195017465081 6.4800279174272655" Properties=species:S:1:pos:R:3 unique_starting_index=52 config_type=initial n_minim_iter=12 stress="0.0019279778993100429 -0.0001442017192397422 -0.0001247226238547142 -0.0001442017192397422 0.0019772412547462612 -0.00010522470993841724 -0.0001247226238547142 -0.00010522470993841724 0.002007889171609174" pbc="T T T"
Si       4.44583192       1.69651092       2.10569016
Si       3.04352398       3.99034797       1.37534966
Si       2.42085812       2.67408931       3.75049251
Si       0.95722274       2.74253903       1.67029782
Si       2.18002361       0.59870836       2.47320356
Si       2.86455637       1.72229227       0.23604383
Si       5.44355162       5.31736917       6.27592962
Si       7.79366131       4.19112833       4.35743598
Si       6.15801260       6.85466837       3.51942667
Si       6.58998850       4.78459944       2.36771273
Si       4.09880540       5.98530326       4.39344318
Si       5.82588092       3.16302956       5.28968423
Si       7.22890279       1.21893899       5.03065343
Si       6.29739119       6.25792217       0.48124449
Si       2.41870495       5.97545276       6.12324689
Si       4.57290103       3.85801846       3.33686856
16
Lattice="6.5246598639243105 -0.34186193779770363 -0.2956824516593617 0.7616105147518291 6.4890681417472456 -0.29568245165949214 0.7616105147517395 0.6425477834280757 6.463943518199261" Properties=species:S:1:pos:R:3 unique_starting_index=52 config_type=initial n_minim_iter=13 stress="-0.001026091238729355 0.00012180810517130456 0.00010535398997977048 0.00012180810517130456 -0.0010677043069456339 8.888397865550122e-05 0.00010535398997977048 8.888397865550122e-05 -0.0010935927963506601" pbc="T T T"
Si       4.44385871       1.69103047       2.09373700
Si       3.03075372       3.99052752       1.37164899
Si       2.41512367       2.66211362       3.75120350
Si       0.95290531       2.72806471       1.66172488
Si       2.16887821       0.59623219       2.46011577
Si       2.84956174       1.71354672       0.23547960
Si       5.42640952       5.29952291       6.25333419
Si       7.76619955       4.17842881       4.34303225
Si       6.13753482       6.83030674       3.50893545
Si       6.57625912       4.76513271       2.35999092
Si       4.08619629       5.97352884       4.37529244
Si       5.80438043       3.15391040       5.28064843
Si       7.21662179       1.21550484       5.02103214
Si       6.28545061       6.24750290       0.47923271
Si       2.41325201       5.96427067       6.11322631
Si       4.56145054       3.84835803       3.32851309
16
Lattice="6.50839031744754 -0.34936290162634076 -0.30217016827661947 0.7514772524365575 6.474293853413519 -0.30217016827675747 0.7514772524364617 0.633998656133407 6.4502583990849285" Properties=species:S:1:pos:R:3 unique_starting_index=52 config_type=initial n_minim_iter=14 stress="-0.0031287442955263626 5.08812499613522e-05 4.4008095283255545e-05 5.08812499613522e-05 -0.0031461267588890757 3.712830052833701e-05 4.4008095283255545e-05 3.712830052833701e-05 -0.0031569408069253278" pbc="T T T"
Si       4.45520051       1.67370934       2.07470745
Si       3.01164081       4.00529834       1.35725103
Si       2.39995952       2.64531413       3.76789503
Si       0.94642147       2.69405005       1.64595886
Si       2.14757589       0.59329317       2.42872823
Si       2.81494100       1.69784958       0.23709453
Si       5.39945161       5.27477096       6.21834425
Si       7.72401404       4.15828632       4.32358109
Si       6.10859721       6.79245318       3.49180633
Si       6.56299177       4.73078560       2.34510169
Si       4.06455982       5.96376514       4.34344956
Si       5.76828980       3.13812534       5.27557555
Si       7.19702035       1.20430752       5.00960973
Si       6.26941779       6.23035619       0.46979837
Si       2.39891415       5.95045475       6.09761817
Si       4.53835986       3.82887712       3.31166370
16
Lattice="6.495555767217467 -0.3170748865747258 -0.27424369154983913 0.7811432687138202 6.456206037795848 -0.2742436915499806 0.7811432687137221 0.6590269778712001 6.42833488916567" Properties=species:S:1:pos:R:3 unique_starting_index=52 config_type=initial n_minim_iter=15 stress="-0.0036699755499554265 0.0005023369319592412 0.00043448011954121607 0.0005023369319592412 -0.0038415879479011595 0.00036655775143290233 0.00043448011954121607 0.00036655775143290233 -0.003948352143290117" pbc="T T T"
Si       4.50488924       1.70754935       2.07907153
Si       3.02907112       4.05272942       1.39010890
Si       2.44168275       2.65586998       3.81009584
Si       0.96172685       2.69036194       1.68820253
Si       2.19083493       0.60143099       2.41899086
Si       2.81388260       1.74191596       0.24655066
Si       5.43507813       5.33615028       6.21748109
Si       7.73788984       4.19205867       4.38444411
Si       6.17509885       6.79517054       3.51645514
Si       6.60671395       4.71966397       2.35416524
Si       4.07918259       6.00562281       4.33113787
Si       5.76468869       3.15357502       5.31877053
Si       7.22106858       1.24018715       4.99066960
Si       6.26008890       6.25634624       0.50803294
Si       2.43833066       5.93425784       6.11782692
Si       4.56389457       3.85041998       3.33029651
16
Lattice="6.517546511767282 -0.3230809820122151 -0.27943846998963423 0.7789256211395973 6.4788940978163945 -0.279438469989774 0.7789256211395004 0.6571560156068386 6.4515347445690985" Properties=species:S:1:pos:R:3 unique_starting_index=52 config_type=initial n_minim_iter=16 stress="0.0008010299318191299 -8.750780120872529e-05 -7.568704889244547e-05 -8.750780120872529e-05 0.0008309250533000587 -6.385487668292928e-05 -7.568704889244547e-05 -6.385487668292928e-05 0.0008495235265394781" pbc="T T T"
Si       4.52152809       1.69874980       2.09227917
Si       3.04350586       4.06714360       1.37949783
Si       2.43581040       2.67151687       3.82588872
Si       0.96748882       2.68528194       1.68730860
Si       2.19021151       0.60738290       2.41409271
Si       2.80984529       1.74197314       0.25314632
Si       5.45250603       5.35256303       6.23666092
Si       7.76186441       4.20564380       4.39792152
Si       6.19421170       6.81622761       3.52795623
Si       6.62504486       4.73427460       2.36509089
Si       4.09500179       6.02151708       4.34402148
Si       5.78217719       3.16663607       5.33264222
Si       7.22180137       1.24091034       5.01032582
Si       6.27948835       6.25377594       0.50591591
Si       2.43916690       5.95379543       6.11558853
Si       4.56182284       3.84867213       3.32878475
16
Lattice="6.491615599209776 -0.3054684428759276 -0.264205072597357 0.7919205797044294 6.450367885085104 -0.26420507259749954 0.7919205797043302 0.6681194695768685 6.4211110057135805" Properties=species:S:1:pos:R:3 unique_starting_index=52 config_type=initial n_minim_iter=17 stress="-0.0017887768838717908 0.0003380431682999583 0.00029237953020949274 0.0003380431682999583 -0.0019042619199705413 0.000246671777000272 0.00029237953020949274 0.000246671777000272 -0.001976107935212742" pbc="T T T"
Si       4.57517861       1.71274438       2.05587709
Si       3.01901945       4.12575381       1.39859226
Si       2.45863860       2.64277643       3.88113543
Si       0.97188184       2.66824164       1.72372898
Si       2.22405621       0.60605839       2.39198171
Si       2.79378795       1.77905086       0.25502207
Si       5.44682320       5.38535205       6.18765159
Si       7.71775999       4.20741231       4.43743104
Si       6.22557574       6.76612697       3.52401253
Si       6.63499586       4.68086609       2.34910073
Si       4.07349311       6.03528620       4.29347482
Si       5.73120671       3.15352234       5.35355193
Si       7.21264416       1.26527700       5.00814252
Si       6.27927820       6.24452200       0.53034286
Si       2.46164384       5.94974286       6.10291100
Si       4.55602082       3.84377713       3.32455099
16
Lattice="6.490398210104753 -0.2872039814758179 -0.2484078160796712 0.8097193003686458 6.446092592207854 -0.24840781607981133 0.8097193003685486 0.683135712510928 6.414603787351088" Properties=species:S:1:pos:R:3 unique_starting_index=52 config_type=initial n_minim_iter=18 stress="-0.0017277121244447333 0.001115406045695748 0.0009647344665273949 0.001115406045695748 -0.0021087661421932617 0.0008139173252690337 0.0009647344665273949 0.0008139173252690337 -0.0023458290006532156" pbc="T T T"
Si       4.64783834       1.71585231       2.03044842
Si       3.00689107       4.20153763       1.40533229
Si       2.47393626       2.62785933       3.95515687
Si       0.99338054       2.66486104       1.77959599
Si       2.28169040       0.61802375       2.38058537
Si       2.79407547       1.83747070       0.26850487
Si       5.47282726       5.44978155       6.15540032
Si       7.69983188       4.23685539       4.50583574
Si       6.29346382       6.73634296       3.54329042
Si       6.66284133       4.64563617       2.37016380
Si       4.09372271       6.06007947       4.25557723
Si       5.70116825       3.17917592       5.38354785
Si       7.18549883       1.31101122       5.06248471
Si       6.33421148       6.20760012       0.56776840
Si       2.50215450       5.99855200       6.06098111
Si       4.54662772       3.83585246       3.31769680
16
Lattice="6.505266814272115 -0.2951854829650144 -0.2553111582401171 0.8043552570476087 6.462092804555128 -0.25531115824025263 0.8043552570475156 0.6786102312060013 6.431431827852014" Properties=species:S:1:pos:R:3 unique_starting_index=52 config_type=initial n_minim_iter=19 stress="0.0007217976798157142 0.00017581652976270866 0.0001520668340488435 0.00017581652976270866 0.0006617338175926712 0.0001282941940246252 0.0001520668340488435 0.0001282941940246252 0.0006243666459960807" pbc="T T T"
Si       4.64986780       1.70140425       2.03210625
Si       3.00679749       4.20361247       1.39079613
Si       2.46003619       2.63013872       3.95930487
Si       0.99910444       2.67110433       1.78900397
Si       2.29271790       0.62194691       2.38540771
Si       2.80119339       1.84744208       0.27169212
Si       5.47528199       5.45505584       6.16045327
Si       7.70592324       4.23830518       4.51032680
Si       6.29907613       6.74156389       3.54407787
Si       6.66496315       4.64848052       2.38040061
Si       4.10446934       6.06039635       4.25691667
Si       5.70432926       3.18953827       5.38366839
Si       7.17442857       1.30943038       5.07757981
Si       6.34684723       6.19421116       0.56402870
Si       2.49873227       6.01195533       6.04827084
Si       4.54350380       3.83321690       3.31541726
16
Lattice="6.50629402864877 -0.29252181475847067 -0.25300730437796926 0.8071538535014781 6.46265685737049 -0.25300730437809915 0.8071538535013898 0.6809713224899483 6.431657982987982" Properties=species:S:1:pos:R:3 unique_starting_index=52 config_type=initial n_minim_iter=20 stress="0.0005092722313606667 -0.0003098219422002919 -0.00026797049135569693 -0.0003098219422002919 0.0006151161043783687 -0.0002260786083042577 -0.00026797049135569693 -0.0002260786083042577 0.0006809641204581456" pbc="T T T"
Si       4.66692679       1.69849375       2.02678863
Si       3.00406938       4.22138453       1.38868234
Si       2.46003956       2.62737051       3.97719604
Si       1.00465235       2.67442383       1.81120667
Si       2.31578083       0.62363570       2.38549291
Si       2.80539963       1.87012057       0.27335100
Si       5.47730131       5.47095961       6.15360387
Si       7.70184129       4.24105100       4.52705162
Si       6.31509284       6.73468693       3.54438481
Si       6.67042076       4.63361401       2.38576597
Si       4.10850999       6.06524281       4.24143213
Si       5.69059393       3.19598362       5.39069574
Si       7.16752309       1.31796070       5.08021907
Si       6.34947070       6.18675754       0.57208963
Si       2.50597809       6.01337911       6.03973336
Si       4.54304760       3.83283202       3.31508437
16
Lattice="6.507164873356213 -0.2959757213953111 -0.2559946494704573 0.8038958871843278 6.464096821618968 -0.2559946494705727 0.8038958871842523 0.6782226747296792 6.433513424506456" Properties=species:S:1:pos:R:3 unique_starting_index=52 config_type=initial n_minim_iter=21 stress="-0.0008262377931498742 -0.0004604383653026773 -0.0003982413063225497 -0.0004604383653026773 -0.0006689391217797952 -0.00033598415947668213 -0.0003982413063225497 -0.00033598415947668213 -0.0005710798395521259" pbc="T T T"
Si       4.68818150       1.67433275       2.01740601
Si       2.99506388       4.24448537       1.36612568
Si       2.43980228       2.62169139       4.00330639
Si       1.00932793       2.67738408       1.83963398
Si       2.34471755       0.62343620       2.38432558
Si       2.80910486       1.89884349       0.27332181
Si       5.46523344       5.47671328       6.14397439
Si       7.69123377       4.23062026       4.53413295
Si       6.31873243       6.72330408       3.53304245
Si       6.65813463       4.59892797       2.39897654
Si       4.11440007       6.05177262       4.20520437
Si       5.65433442       3.20815265       5.38258697
Si       7.14503652       1.33456099       5.08569229
Si       6.35338140       6.16327728       0.58772789
Si       2.51855520       6.01519810       6.01424456
Si       4.53081014       3.82250765       3.30615463
