10
Lattice="7.024857494180072 1.2538472282134647 -6.731930429235861e-15 -1.2552215196003553 7.0246120620265495 3.636817232002511e-15 -2.884817987289858 -4.139229645119991 3.5305340219176955" Properties=species:S:1:pos:R:3 unique_starting_index=198 config_type=initial n_minim_iter=12 energy=-1627.4382640154895 free_energy=-1627.4382640154895 pbc="T T T"
Si      -0.91839867       5.13991898       2.05320321
Si      -2.25526370       3.22174203       1.47733081
Si      -0.33682284       1.88469307       2.05320321
Si       1.00004219       3.80287002       1.47733081
Si      -3.84925159       1.25776945       3.24259782
Si       0.37243143       7.31517605       0.28793619
Si       3.84925160      -1.25776947       3.24259782
Si       5.39720455       0.96328323       0.28793619
Si       2.88481799       4.13922964      -0.00000000
Si       3.51242875       0.62692361       1.76526701
