6
Lattice="3.618673902058981 0.19003883232642307 -0.04471197298450119 -0.3602283390978833 5.369471601955282 -0.22543844587057799 -1.6230301692145142 -1.1959942922637328 5.6037315090377895" Properties=species:S:1:pos:R:3 unique_starting_index=56 config_type=initial n_minim_iter=11 energy=-976.9613261615862 free_energy=-976.9613261615862 pbc="T T T"
Si      -0.11692973       4.78581652       3.43311294
Si       1.77329033       3.76678908       0.50786989
Si      -0.10572837       5.08651356       1.14854629
Si       0.05809319       2.42026857       3.65271614
Si       1.98295382       0.92610823       4.25451582
Si       0.07947705       2.08258991       1.15438154
