22
Lattice="5.84298323793349 1.5451890407601396 0.5556832847933055 4.3867035717348255 7.399198037916882 1.3827972351894466 2.7173317734158773 4.0966064977343875 12.183955028419817" Properties=species:S:1:pos:R:3 unique_starting_index=40 config_type=initial n_minim_iter=19 energy=-3582.026543597422 free_energy=-3582.026543597422 pbc="T T T"
Si       9.47455054       7.80383970      11.08953854
Si       2.66978732       4.53504856       4.57595708
Si       5.98599649       3.42777993       5.85887479
Si       6.44816051       9.01470701      10.86784483
Si       5.92146900       5.59096583      11.23996826
Si       8.61660010       8.39959291       5.69043672
Si       7.37010987       3.79999706       2.62126802
Si       8.05235588       8.87660413       7.90953566
Si       5.28292474       3.39569547       1.59779562
Si       8.25250083       9.48562201      12.45700760
Si       6.54104754       7.50849182       9.04165297
Si       5.32912644      10.93220907       9.75490324
Si       3.02250880       3.45981336       0.58910601
Si       2.87140893       3.68907063       6.84069218
Si       5.49134922       3.43995594      12.21538641
Si      10.13213594       8.61902313       8.93014948
Si       5.18915596       6.27900654       5.27543261
Si       6.25430209       8.38017688       5.34834808
Si       6.73751376       5.86317411       3.57694419
Si       4.89432038       4.97841918       7.36999680
Si       8.28969447       5.87011536      11.96555659
Si       4.55493290       3.29103068       3.87345708
