20
Lattice="5.506394411939752 -0.8753714737745459 -0.16242867472327654 -4.309054178865249 6.975898953988249 3.341380956650952 -0.617507545465101 9.829907766237667 16.80775253547286" Properties=species:S:1:pos:R:3 unique_starting_index=204 config_type=initial n_minim_iter=1 energy=-3254.325605195968 free_energy=-3254.325605195968 pbc="T T T"
Si       1.28427128       2.17166604       4.22778163
Si       2.18024617       5.92611083       7.06310377
Si      -0.18423093       2.77795446       6.06736654
Si       2.06852793       5.22840143       4.72992576
Si       3.27534533       3.12519728       5.16682731
Si      -3.16974707      12.26204512      14.21026411
Si       1.72726670       9.28907519      13.14768220
Si      -1.86741894       4.91839676       7.50570525
Si      -0.68740987       9.84568604      12.85362076
Si      -0.34544557      14.10894747      17.17075627
Si      -0.43025582      11.93620075      16.21686452
Si      -0.84155142      11.93603934      13.92660711
Si      -0.16144000       6.89617597       9.74371970
Si       3.50153567      10.85750648      17.83365297
Si      -2.06391546      14.08786404      18.79837200
Si       1.63138369      11.08453229      11.48903021
Si      -0.07620036       6.25144214       5.90976437
Si       1.81730634       1.04305125       0.62483705
Si       1.65701184       3.09912825       2.02809393
Si      -0.23931557       4.68562416       4.04919326
20
Lattice="5.505654700346766 -0.875616082577766 -0.15907531221222984 -4.307828780118075 6.969788429245024 3.3377520111539862 -0.6087584591129562 9.825898839623829 16.790947851383" Properties=species:S:1:pos:R:3 unique_starting_index=204 config_type=initial n_minim_iter=2 stress="-0.000866730712779652 -4.280393366959441e-05 1.144833139874936e-05 -4.280393366959441e-05 -0.0010545561133530055 5.818609694051481e-05 1.144833139874936e-05 5.818609694051481e-05 -0.0009518145946369386" pbc="T T T"
Si       1.28600464       2.17045711       4.22427629
Si       2.18331321       5.92133106       7.05849321
Si      -0.18073513       2.77780550       6.06079879
Si       2.06975803       5.22331392       4.72802140
Si       3.27790097       3.12322488       5.16370946
Si      -3.16299195      12.25404026      14.19613854
Si       1.73367893       9.28413748      13.13693805
Si      -1.86346886       4.91591947       7.49741545
Si      -0.68050411       9.84018331      12.84171203
Si      -0.33756646      14.09957392      17.15597342
Si      -0.42282781      11.92928531      16.20113946
Si      -0.83485974      11.92819774      13.91493570
Si      -0.15673819       6.89223378       9.73461083
Si       3.50937192      10.85175726      17.81874071
Si      -2.05523781      14.07959527      18.78052195
Si       1.63603621      11.07607008      11.48086033
Si      -0.07353461       6.24660725       5.90519068
Si       1.81791807       1.04197358       0.62622877
Si       1.65697530       3.09563969       2.02772968
Si      -0.23750844       4.68158118       4.04624154
20
Lattice="5.529995262264223 -0.8806910786624659 -0.14463179888312225 -4.32252854542039 6.982483025316431 3.3375733896787314 -0.5703130855939961 9.862140615408942 16.804028051200337" Properties=species:S:1:pos:R:3 unique_starting_index=204 config_type=initial n_minim_iter=3 stress="0.002761907483590478 -0.0006754710225755808 0.0011683184447307492 -0.0006754710225755808 0.00021256460500401276 0.00045766661002550447 0.0011683184447307492 0.00045766661002550447 -8.626722764780632e-07" pbc="T T T"
Si       1.30007578       2.17641902       4.23081477
Si       2.21013091       5.93326301       7.07447234
Si      -0.16478528       2.79304135       6.06329266
Si       2.08600806       5.22997814       4.74407233
Si       3.30755714       3.13268040       5.17618622
Si      -3.14614686      12.28656917      14.20635812
Si       1.77406255       9.31600885      13.15812104
Si      -1.85426434       4.93082945       7.49952642
Si      -0.64865221       9.87209438      12.85515239
Si      -0.30083040      14.13714996      17.17935483
Si      -0.38986478      11.96535969      16.21321711
Si      -0.80582378      11.96124890      13.93630052
Si      -0.13506627       6.91322632       9.74443807
Si       3.56274377      10.88711742      17.84554874
Si      -2.02528702      14.12105235      18.79951879
Si       1.66762124      11.10248012      11.50300960
Si      -0.05982640       6.26096551       5.91502998
Si       1.83206351       1.04476459       0.63653526
Si       1.66483595       3.09805724       2.03511319
Si      -0.22885465       4.68996225       4.05353895
20
Lattice="5.503296823273193 -0.871650047360518 -0.15246065113132704 -4.294048599518268 6.985740900441995 3.3499776091302325 -0.5713769456456312 9.880330462992143 16.831397068173388" Properties=species:S:1:pos:R:3 unique_starting_index=204 config_type=initial n_minim_iter=4 stress="-0.0014064206661299433 0.0004153003922465214 -6.230132311041662e-05 0.0004153003922465214 0.0007790405210227118 0.00020959853562087732 -6.230132311041662e-05 0.00020959853562087732 -0.00013801032638377292" pbc="T T T"
Si       1.29010133       2.18037832       4.23548819
Si       2.20418685       5.94476079       7.08299047
Si      -0.16500428       2.80250092       6.07161376
Si       2.07631522       5.23878093       4.75134293
Si       3.29495285       3.14623676       5.17723482
Si      -3.12846871      12.30028590      14.23327423
Si       1.76860402       9.34356112      13.17937761
Si      -1.84689159       4.93273778       7.51359362
Si      -0.63551179       9.89399041      12.87699753
Si      -0.29627815      14.16044880      17.21032820
Si      -0.39031000      11.98681619      16.23325872
Si      -0.79637804      11.98292389      13.96636767
Si      -0.13473742       6.92519457       9.75926437
Si       3.53528510      10.91533744      17.86878307
Si      -2.02149015      14.14116572      18.83688588
Si       1.66479219      11.12777934      11.51867000
Si      -0.05274527       6.27195850       5.92500446
Si       1.83173393       1.05478138       0.63919713
Si       1.65620001       3.10443606       2.03193655
Si      -0.22170813       4.69565100       4.06085057
20
Lattice="5.512751655775411 -0.872805022464447 -0.15677846414616384 -4.3081900739789685 6.969372075562797 3.348045066841586 -0.594032331331018 9.840679844278645 16.82969781897096" Properties=species:S:1:pos:R:3 unique_starting_index=204 config_type=initial n_minim_iter=5 stress="-8.72939869986041e-05 0.0002497968655370136 -0.0003895905409166315 0.0002497968655370136 -0.0006427996242822004 -0.0004983786031550283 -0.0003895905409166315 -0.0004983786031550283 0.0001607522193164211" pbc="T T T"
Si       1.28739457       2.17018751       4.23394352
Si       2.19778359       5.92280818       7.07788023
Si      -0.17266651       2.78962935       6.07197498
Si       2.07236696       5.22156379       4.74581339
Si       3.29283179       3.13153455       5.17337183
Si      -3.15401665      12.26000793      14.23004880
Si       1.75365453       9.30754581      13.17428342
Si      -1.85973438       4.91469590       7.51344704
Si      -0.65447376       9.85867389      12.87398678
Si      -0.32159696      14.11078630      17.20337997
Si      -0.41261581      11.94300652      16.23092267
Si      -0.81828192      11.94169185      13.95993405
Si      -0.14796444       6.89974679       9.75647397
Si       3.51881227      10.87017831      17.86234390
Si      -2.05076766      14.09077695      18.83290487
Si       1.64969954      11.09023814      11.51085822
Si      -0.06207016       6.25148091       5.92125770
Si       1.83119727       1.05083644       0.63610756
Si       1.65484259       3.09424374       2.02816453
Si      -0.22864693       4.68122251       4.05773369
20
Lattice="5.516801367310074 -0.8837604644663548 -0.1549223955648972 -4.320952142384241 6.988362264670119 3.352823771249853 -0.6030366376025996 9.874130452894255 16.830512946870094" Properties=species:S:1:pos:R:3 unique_starting_index=204 config_type=initial n_minim_iter=6 stress="0.0003485791784655599 -0.0005236383931133262 0.00011437184223619713 -0.0005236383931133262 -9.286723078256801e-05 0.00033271905539994937 0.00011437184223619713 0.00033271905539994937 0.00017729141528837738" pbc="T T T"
Si       1.28764319       2.17600638       4.23421126
Si       2.19229782       5.93394616       7.08182391
Si      -0.17440279       2.80041309       6.07159684
Si       2.06741417       5.23124646       4.74993594
Si       3.28999289       3.13493420       5.17552513
Si      -3.16913500      12.29813493      14.23507676
Si       1.74504681       9.33020010      13.17838405
Si      -1.86498850       4.93242005       7.51301969
Si      -0.66532681       9.88609540      12.87936876
Si      -0.33886140      14.14883405      17.20902724
Si      -0.42399045      11.97652622      16.24063565
Si      -0.83364398      11.97358040      13.96287301
Si      -0.15464960       6.92082942       9.75816876
Si       3.51377348      10.89901874      17.86508966
Si      -2.06668043      14.13367432      18.83713817
Si       1.63602287      11.11429300      11.51833999
Si      -0.07006466       6.26492214       5.92562996
Si       1.82456066       1.04938059       0.63669801
Si       1.65038330       3.09649537       2.03266888
Si      -0.23509811       4.69172748       4.06044716
20
Lattice="5.519452175501259 -0.8782079127900022 -0.15036258802039135 -4.313562114893524 6.987917569442425 3.3437986541062537 -0.5797841160482736 9.87672404609055 16.807012808372523" Properties=species:S:1:pos:R:3 unique_starting_index=204 config_type=initial n_minim_iter=7 stress="0.0006246166926100393 -3.5545919444530046e-05 0.0002429867537881533 -3.5545919444530046e-05 0.00018468245403765115 -0.00017497517016513004 0.0002429867537881533 -0.00017497517016513004 -0.0005093697153896838" pbc="T T T"
Si       1.29390187       2.17661884       4.22910000
Si       2.20758271       5.93710892       7.07304476
Si      -0.16562603       2.80238783       6.06287263
Si       2.07730961       5.23594053       4.74488067
Si       3.30000507       3.13979898       5.16961048
Si      -3.14657724      12.30042414      14.21215729
Si       1.76817967       9.33821094      13.16259907
Si      -1.85514047       4.92964751       7.50015190
Si      -0.64042356       9.89138131      12.86258296
Si      -0.31182093      14.15422553      17.18463372
Si      -0.39910650      11.98056297      16.21886163
Si      -0.81036080      11.97876289      13.94277470
Si      -0.13917069       6.92376323       9.74315095
Si       3.54057033      10.90734666      17.84224043
Si      -2.04121869      14.13607425      18.81071774
Si       1.65712985      11.12366420      11.50215444
Si      -0.05711688       6.26737150       5.91675136
Si       1.82556628       1.05438943       0.63801715
Si       1.65349635       3.09853002       2.02916000
Si      -0.22577491       4.69307910       4.05361193
20
Lattice="5.519182917633959 -0.8700416221730836 -0.14561776959296877 -4.300001739438201 6.985225849109724 3.3625350008976977 -0.5434442354958896 9.911566176700083 16.86495837570407" Properties=species:S:1:pos:R:3 unique_starting_index=204 config_type=initial n_minim_iter=8 stress="6.324520728992255e-05 0.0006011718325707196 0.00010763666977636986 0.0006011718325707196 -0.0005149563931419682 -3.146063368707456e-05 0.00010763666977636986 -3.146063368707456e-05 0.00039769628627662156" pbc="T T T"
Si       1.30195604       2.18105226       4.24335518
Si       2.23380635       5.94592500       7.10436739
Si      -0.14880584       2.82224688       6.08007217
Si       2.08745404       5.24502250       4.77193759
Si       3.31393089       3.15583070       5.18619915
Si      -3.10991899      12.32341118      14.26717231
Si       1.80647774       9.37825026      13.22055108
Si      -1.83869468       4.93183445       7.52139314
Si      -0.58942800       9.92346268      12.92042056
Si      -0.27459432      14.18515596      17.25591452
Si      -0.36306029      12.01138864      16.28400919
Si      -0.77427894      12.00731116      14.00341733
Si      -0.11440172       6.94484214       9.77514748
Si       3.57319578      10.95223876      17.90727267
Si      -2.00995948      14.16535024      18.88864257
Si       1.68448677      11.15574030      11.55269723
Si      -0.03383530       6.27532753       5.94387816
Si       1.82364307       1.06695757       0.64937366
Si       1.64833305       3.09742109       2.03657348
Si      -0.20851609       4.69589130       4.07125486
20
Lattice="5.521774359587469 -0.8838920170423695 -0.14860660932020772 -4.317819851448717 7.008136944760131 3.360092076549767 -0.5749201057355933 9.933517764206776 16.836944036736526" Properties=species:S:1:pos:R:3 unique_starting_index=204 config_type=initial n_minim_iter=9 stress="-0.00019160597688024607 -0.00013664758883579614 -9.678498748199208e-05 -0.00013664758883579614 0.00023715422900833088 -0.0004883980716246536 -9.678498748199208e-05 -0.0004883980716246536 -0.00035834957685490536" pbc="T T T"
Si       1.29573315       2.17925385       4.23477956
Si       2.22123036       5.94916258       7.09098536
Si      -0.15604460       2.83137263       6.06912571
Si       2.07217935       5.25096556       4.76353785
Si       3.30380343       3.15468824       5.17274951
Si      -3.14452323      12.35649723      14.24564752
Si       1.78246702       9.39774970      13.20040591
Si      -1.85366115       4.94005047       7.50749009
Si      -0.60893624       9.94732782      12.90496438
Si      -0.31971486      14.21430842      17.22746566
Si      -0.40024414      12.03688885      16.25899604
Si      -0.80863859      12.03494656      13.98201320
Si      -0.13396428       6.96082105       9.75602120
Si       3.53562095      10.96825468      17.87390972
Si      -2.05820886      14.19600827      18.86146516
Si       1.65103383      11.17925062      11.53175814
Si      -0.04802949       6.28576647       5.93375684
Si       1.81757391       1.06822083       0.64983903
Si       1.63362942       3.09657049       2.03034857
Si      -0.21890723       4.70403614       4.06351681
20
Lattice="5.530312868795003 -0.8803876660131648 -0.1554436095409392 -4.32125499630621 7.022029705012757 3.385428329421749 -0.5788627978819165 10.003283804231554 16.855158400590117" Properties=species:S:1:pos:R:3 unique_starting_index=204 config_type=initial n_minim_iter=10 stress="0.0005096704612078958 2.6390540379521027e-05 -0.000525736854041993 2.6390540379521027e-05 0.0005444019939991263 0.0010016722476350898 -0.000525736854041993 0.0010016722476350898 -0.00048174831994110095" pbc="T T T"
Si       1.30099313       2.19106935       4.23659762
Si       2.23345104       5.97704337       7.10356294
Si      -0.15430303       2.85804448       6.07189112
Si       2.07843363       5.27744116       4.77534590
Si       3.30419064       3.17746320       5.17261249
Si      -3.14530703      12.42343055      14.27884792
Si       1.79096788       9.45801107      13.22241190
Si      -1.85695482       4.96112260       7.51462882
Si      -0.59760609      10.00148605      12.94067093
Si      -0.32864691      14.29138519      17.25830533
Si      -0.40397506      12.10891262      16.28979306
Si      -0.80931282      12.09833041      14.01016755
Si      -0.13147392       7.00587342       9.76590390
Si       3.53377050      11.04696614      17.89177432
Si      -2.06788800      14.27112526      18.89518862
Si       1.65191105      11.24036160      11.55851202
Si      -0.04346470       6.30805312       5.94836552
Si       1.81258650       1.07328210       0.65474207
Si       1.62640238       3.10378135       2.03918261
Si      -0.21619197       4.72108522       4.07406138
20
Lattice="5.523192612827051 -0.8789965084340583 -0.1393144430369393 -4.304548161355741 7.020225554708335 3.38108113570563 -0.5249286217042137 10.005957851336726 16.88886710437574" Properties=species:S:1:pos:R:3 unique_starting_index=204 config_type=initial n_minim_iter=11 stress="-0.0002482311660492467 -0.0006557237334380877 0.0008701435892844705 -0.0006557237334380877 0.00042851342608089696 0.0005450277540249625 0.0008701435892844705 0.0005450277540249625 0.0008222420345248053" pbc="T T T"
Si       1.31781204       2.18325363       4.24964069
Si       2.26324968       5.97298368       7.12656379
Si      -0.13053504       2.86081902       6.08246851
Si       2.09374602       5.28103462       4.79091673
Si       3.31124463       3.17703016       5.18908726
Si      -3.09083890      12.43299324      14.30236700
Si       1.83879880       9.46267662      13.25993377
Si      -1.83027544       4.95117649       7.52112763
Si      -0.54156043      10.00079248      12.98292792
Si      -0.28448145      14.29692864      17.29073742
Si      -0.35622488      12.11639151      16.32551601
Si      -0.76264796      12.10346795      14.03646253
Si      -0.09681021       7.01181189       9.78038402
Si       3.57843755      11.05154685      17.94068800
Si      -2.01114487      14.26814290      18.92895171
Si       1.68410486      11.25185166      11.58827357
Si      -0.02081618       6.30229648       5.95846974
Si       1.80599807       1.07227928       0.66581480
Si       1.61880018       3.10002318       2.05058808
Si      -0.20117467       4.71993144       4.08026800
20
Lattice="5.5261668635903405 -0.8707994462731713 -0.1462516229977098 -4.3018708273695045 7.012103194028761 3.3851852822223116 -0.5322695609781585 10.005179435892284 16.877280215806774" Properties=species:S:1:pos:R:3 unique_starting_index=204 config_type=initial n_minim_iter=12 stress="-0.00010790296081366811 -0.0003134716202871354 0.0002451018108961257 -0.0003134716202871354 3.1756249081477915e-05 0.00022414631820689062 0.0002451018108961257 0.00022414631820689062 0.00041223217653409735" pbc="T T T"
Si       1.31905261       2.17895386       4.24565312
Si       2.27000882       5.97242324       7.11982147
Si      -0.13157911       2.86188247       6.07662993
Si       2.09746151       5.28258027       4.78515527
Si       3.30936218       3.18089150       5.17855876
Si      -3.09068969      12.43158530      14.29768048
Si       1.84244617       9.46765815      13.25060722
Si      -1.83346494       4.94133701       7.51741210
Si      -0.53601493       9.99807566      12.98344412
Si      -0.29306959      14.29747022      17.27696135
Si      -0.36430060      12.11974501      16.31069731
Si      -0.76121668      12.10399916      14.02880340
Si      -0.09812575       7.01392087       9.77056462
Si       3.56655025      11.05623424      17.92501983
Si      -2.02025909      14.26124260      18.91803302
Si       1.68617713      11.25858360      11.57843553
Si      -0.01756708       6.29758820       5.95235326
Si       1.80863956       1.07389960       0.66602828
Si       1.61472342       3.10033133       2.04852286
Si      -0.19922417       4.71806277       4.07688597
20
Lattice="5.532634130859811 -0.8461476474931009 -0.15632920822909283 -4.284297304060066 6.9957903314592045 3.388995965339524 -0.519009181781754 10.017297532519637 16.837011947739335" Properties=species:S:1:pos:R:3 unique_starting_index=204 config_type=initial n_minim_iter=13 stress="0.00014676553827524622 0.0005331765447658583 -0.0005700623062508372 0.0005331765447658583 -0.00039941430887462586 -0.000580581459743088 -0.0005700623062508372 -0.000580581459743088 -0.0006349037271140711" pbc="T T T"
Si       1.33114219       2.16943890       4.23611712
Si       2.30297491       5.97867123       7.10309174
Si      -0.12222694       2.86848328       6.05664339
Si       2.11790921       5.29338535       4.77103918
Si       3.31380223       3.19705334       5.15219468
Si      -3.05723227      12.44262960      14.27483917
Si       1.88179223       9.49753827      13.22304994
Si      -1.82564773       4.91713812       7.50410474
Si      -0.49290513      10.00434080      12.97998690
Si      -0.28333795      14.31914917      17.22984965
Si      -0.35267365      12.14632775      16.26832540
Si      -0.72577563      12.12254793      13.99618271
Si      -0.08310987       7.03168884       9.73927806
Si       3.57244991      11.08714828      17.87909949
Si      -2.00829171      14.26073122      18.87684736
Si       1.71895484      11.29430445      11.54920840
Si       0.00476844       6.29031344       5.93318505
Si       1.81080207       1.08286641       0.66584993
Si       1.60774150       3.10699159       2.04607863
Si      -0.18558335       4.71865671       4.06544962
20
Lattice="5.5421244774964675 -0.8038015735109123 -0.17036511927210293 -4.246299195316945 6.991478740808942 3.4222328776148667 -0.4701891879314717 10.129472021659366 16.813261658657392" Properties=species:S:1:pos:R:3 unique_starting_index=204 config_type=initial n_minim_iter=14 stress="0.000612872980407554 -7.835853363598587e-05 6.542804109248212e-06 -7.835853363598587e-05 0.0007606549742315452 0.00020522277529230878 6.542804109248212e-06 0.00020522277529230878 0.0003765857760677792" pbc="T T T"
Si       1.36609740       2.15439495       4.24138848
Si       2.37632101       6.01598237       7.11234083
Si      -0.09129579       2.90767980       6.02829261
Si       2.15942662       5.33086835       4.77094631
Si       3.32751818       3.24573220       5.11982157
Si      -2.95816942      12.54957342      14.29395187
Si       1.99645949       9.64193454      13.22849761
Si      -1.79080139       4.88484669       7.52679715
Si      -0.38465454      10.08671614      13.03731398
Si      -0.26907496      14.47097742      17.19700471
Si      -0.31909379      12.30058739      16.26660745
Si      -0.62649634      12.24892931      13.96800992
Si      -0.04974821       7.13568261       9.71530641
Si       3.61522562      11.23899782      17.85578389
Si      -1.97915262      14.36175822      18.86821700
Si       1.80949441      11.44123905      11.54828358
Si       0.05419258       6.29197477       5.92278237
Si       1.78762166       1.11069170       0.65663010
Si       1.58702115       3.14216875       2.06735913
Si      -0.16327500       4.74252427       4.06227858
20
Lattice="5.543162676929879 -0.7619360614034003 -0.18020658975579773 -4.2055564220980095 6.954117501777835 3.4367556778752286 -0.422996482123016 10.151301372512638 16.78415863461906" Properties=species:S:1:pos:R:3 unique_starting_index=204 config_type=initial n_minim_iter=15 stress="-0.00026715696874466576 -0.00012357052312053594 0.0001674872888997282 -0.00012357052312053594 -8.768318252656527e-05 0.0002015151043640891 0.0001674872888997282 0.0002015151043640891 -0.00046738739960594126" pbc="T T T"
Si       1.38961506       2.13187269       4.24127881
Si       2.43612741       6.00896530       7.10956180
Si      -0.06623472       2.91858877       6.00568563
Si       2.19052328       5.33732943       4.76209191
Si       3.34554301       3.26479853       5.09492193
Si      -2.86550059      12.55868631      14.29118114
Si       2.09333742       9.70165657      13.22135659
Si      -1.75722477       4.82734816       7.54432048
Si      -0.29125284      10.09544494      13.06028900
Si      -0.24352453      14.51530982      17.15561119
Si      -0.28665606      12.34671671      16.23938004
Si      -0.54015718      12.27941977      13.93528645
Si      -0.01445521       7.17236557       9.69042598
Si       3.65327965      11.29109710      17.82244350
Si      -1.94582076      14.35547988      18.84982439
Si       1.89014734      11.49519948      11.53203459
Si       0.09697717       6.26322208       5.90760594
Si       1.77823075       1.12924129       0.65070688
Si       1.57373735       3.15944767       2.07559467
Si      -0.14188379       4.73522937       4.05146194
20
Lattice="5.535328859962722 -0.6854398355513064 -0.1989440111104824 -4.130566642668048 6.847206704386486 3.447422168442446 -0.35557717471727224 10.07649393559453 16.752558607434047" Properties=species:S:1:pos:R:3 unique_starting_index=204 config_type=initial n_minim_iter=16 stress="-0.0020491423228640713 -0.00022956482788759322 0.0003539097597175877 -0.00022956482788759322 -0.0017498026505187005 -3.6985106309519726e-05 0.0003539097597175877 -3.6985106309519726e-05 -0.0015391919158875065" pbc="T T T"
Si       1.42155257       2.08230439       4.24159242
Si       2.52269825       5.94123352       7.09856496
Si      -0.03566595       2.89574356       5.98389560
Si       2.23628260       5.32032105       4.73501000
Si       3.37343157       3.25683848       5.06786175
Si      -2.71044498      12.46324437      14.28656955
Si       2.23805842       9.69346063      13.20901186
Si      -1.70033253       4.68813829       7.59018007
Si      -0.16066130      10.00761081      13.08552840
Si      -0.20636381      14.47722619      17.08837357
Si      -0.24445275      12.29952749      16.19128269
Si      -0.41280615      12.21777667      13.87824359
Si       0.04558677       7.16060170       9.66008530
Si       3.71082301      11.25993151      17.77381951
Si      -1.89211223      14.21231193      18.83236614
Si       2.01671971      11.47951083      11.49770036
Si       0.15638060       6.17110236       5.88140307
Si       1.76405561       1.14534826       0.63518085
Si       1.55843141       3.17566494       2.08476438
Si      -0.11349474       4.68524350       4.02406197
20
Lattice="5.533601701994704 -0.6369808345221255 -0.20975421290804236 -4.085708985499574 6.774500604643841 3.4553166428919644 -0.31141119126182376 10.016567621875813 16.752153894951626" Properties=species:S:1:pos:R:3 unique_starting_index=204 config_type=initial n_minim_iter=17 stress="-0.0024196516970003894 0.0005993695061300441 3.684955253411896e-05 0.0005993695061300441 -0.0025466042398287563 -0.00013872388083262024 3.684955253411896e-05 -0.00013872388083262024 -0.0015763944024212878" pbc="T T T"
Si       1.44320846       2.05253343       4.24322680
Si       2.58167749       5.88988787       7.09653063
Si      -0.01545517       2.87884368       5.98054903
Si       2.26687344       5.31102774       4.72172513
Si       3.39351698       3.24530908       5.05982793
Si      -2.61181367      12.39320392      14.29859852
Si       2.33023329       9.67194965      13.21649973
Si      -1.66377477       4.59534018       7.62356547
Si      -0.07434178       9.94018069      13.11512830
Si      -0.18159305      14.44210473      17.06640541
Si      -0.21634251      12.25196768      16.17762050
Si      -0.33558672      12.16487220      13.85933017
Si       0.08974284       7.14316645       9.65204648
Si       3.75218372      11.22645762      17.76095247
Si      -1.85764111      14.10544349      18.84637624
Si       2.09417305      11.45602713      11.48752828
Si       0.19361170       6.11052132       5.87206734
Si       1.75520479       1.15401564       0.62957549
Si       1.54652314       3.18058618       2.09164174
Si      -0.09441359       4.64710310       4.00752029
20
Lattice="5.523475220360157 -0.6375186307130613 -0.20824470765663236 -4.08855071117042 6.709644789519828 3.431906305326502 -0.33375440506037074 9.840058682829909 16.783812467123564" Properties=species:S:1:pos:R:3 unique_starting_index=204 config_type=initial n_minim_iter=18 stress="-0.004788499616242576 -0.0011607956834718824 0.0005010717045653132 -0.0011607956834718824 -0.0031464849853951207 -0.00029650739771475317 0.0005010717045653132 -0.00029650739771475317 -0.001446070773467853" pbc="T T T"
Si       1.43208715       2.03330132       4.24414937
Si       2.55806309       5.78857471       7.08992869
Si      -0.03235821       2.81683362       6.01036473
Si       2.24857944       5.26003987       4.70756391
Si       3.39605521       3.17397427       5.09009872
Si      -2.62723828      12.21490990      14.30174572
Si       2.29204835       9.49321195      13.22405717
Si      -1.65824737       4.52579173       7.65278145
Si      -0.11696802       9.77641537      13.09408616
Si      -0.20401713      14.26804223      17.07668949
Si      -0.24793265      12.05255568      16.17379725
Si      -0.37560410      11.98422096      13.86258472
Si       0.08487839       7.02369205       9.67605833
Si       3.74104181      11.03150431      17.77557351
Si      -1.87627902      13.89918602      18.88015457
Si       2.06563761      11.27624956      11.47904090
Si       0.16955547       6.04287053       5.87584800
Si       1.75975628       1.13601219       0.62402112
Si       1.55229537       3.15739476       2.08270128
Si      -0.11019063       4.58278688       3.99107237
20
Lattice="5.544113797270697 -0.6249203389813154 -0.20703465696107592 -4.08801457469784 6.707270719196493 3.4444377621994824 -0.3037105465630865 9.874776723019398 16.80602745551675" Properties=species:S:1:pos:R:3 unique_starting_index=204 config_type=initial n_minim_iter=19 stress="-0.0009976247469026902 -0.00019128946800406378 -0.00013832573921778276 -0.00019128946800406378 -0.00034552081219970646 2.376017829497954e-05 -0.00013832573921778276 2.376017829497954e-05 0.00024158275212544976" pbc="T T T"
Si       1.45200566       2.03581958       4.24444158
Si       2.60412453       5.79317865       7.10047418
Si      -0.01246615       2.83685012       6.01861614
Si       2.27146746       5.28270405       4.71841048
Si       3.41476751       3.18535900       5.09483731
Si      -2.59280498      12.25313033      14.33203006
Si       2.34217198       9.52985647      13.25488573
Si      -1.64330329       4.51374735       7.65541518
Si      -0.05500575       9.80280177      13.13779488
Si      -0.18781066      14.31789883      17.10471938
Si      -0.22323157      12.09215140      16.20073333
Si      -0.34147579      12.02079061      13.88857299
Si       0.11582202       7.04997524       9.68580543
Si       3.77864942      11.07856548      17.79618341
Si      -1.86014209      13.92695739      18.92091532
Si       2.09677868      11.31817652      11.50016518
Si       0.19258102       6.05095028       5.88533163
Si       1.75763037       1.14826223       0.63589574
Si       1.53882335       3.15809436       2.08998152
Si      -0.09401385       4.58373144       3.99143592
20