18
Lattice="7.299450974450199 1.3939050129044242e-06 3.798378741681061e-15 3.6497241044025976 7.241415979360677 -0.10027183291421421 3.64972502285206 2.431779165409809 10.8584818974895" Properties=species:S:1:pos:R:3 unique_starting_index=182 config_type=initial n_minim_iter=1 energy=-2916.434128081069 free_energy=-2916.434128081069 pbc="T T T"
Si       3.25006917       1.80758235       1.91205647
Si       6.89979443       3.02901645       3.46704857
Si      11.34883094       7.86561417       8.84615361
Si       7.69910568       6.64418008       7.29116150
Si       5.62174230       7.24391874       7.32516751
Si       9.27146778       7.26587471       8.81214760
Si       8.97715781       2.42927778       3.43304256
Si       5.32743233       2.40732181       1.94606248
Si       4.67565043       3.24801455       4.08484521
Si       1.02592526       1.58858340       1.29425983
Si       9.92324968       6.42518197       6.67336487
Si      13.57297485       8.08461313       9.46395024
Si       6.38433556       4.17568983       5.38897462
Si       2.73461075       0.66090877      -0.00986958
Si       8.21456455       5.49750670       5.36923545
Si      11.86428936       9.01228775      10.76807965
Si       5.47458800       1.21589027       5.42924095
Si       1.82486206       3.62070798      -0.05013591
18
Lattice="7.481481109722796 1.4286655337682748e-06 3.889043024026511e-15 3.740739159073079 7.309313988762479 -0.17493130284865596 3.7407401079096276 2.3405493634096355 10.70831629140243" Properties=species:S:1:pos:R:3 unique_starting_index=182 config_type=initial n_minim_iter=2 stress="0.011294650666708358 1.3047075216406659e-09 4.066925226061403e-10 1.3047075216406659e-09 0.004462299683595302 -0.002129723721763425 4.066925226061403e-10 -0.002129723721763425 0.0025951270455780617" pbc="T T T"
Si       3.32599516       1.79483815       1.88115935
Si       7.06673548       3.03009478       3.38553315
Si      11.63696522       7.85502662       8.65222564
Si       7.89622490       6.61976998       7.14785185
Si       5.73537190       7.23537835       7.13165112
Si       9.47611246       7.23941743       8.66842637
Si       9.22758848       2.41448642       3.40173387
Si       5.48684793       2.41044734       1.86495863
Si       4.76367379       3.22431981       4.00495387
Si       1.02293354       1.60061224       1.26173863
Si      10.19928660       6.42554495       6.52843113
Si      13.94002684       8.04925253       9.27164637
Si       6.53760205       4.14433292       5.29141130
Si       2.79686216       0.68059981      -0.02471879
Si       8.42535833       5.50553185       5.24197370
Si      12.16609822       8.96926495      10.55810379
Si       5.61111061       1.17027539       5.35415815
Si       1.87036958       3.65465699      -0.08746565
18
Lattice="7.412574198521221 1.4155070525361306e-06 3.7764722510382506e-15 3.706285709692679 7.276739730828685 -0.2306168424854794 3.706286671295761 2.2411206996470674 10.347991667645625" Properties=species:S:1:pos:R:3 unique_starting_index=182 config_type=initial n_minim_iter=3 stress="0.0021456680136209888 1.0666613727893343e-09 1.963964073723527e-09 1.0666613727893343e-09 -0.003440108453966352 -0.010284675120463242 1.963964073723527e-09 -0.010284675120463242 -0.015856887665740633" pbc="T T T"
Si       3.28622094       1.75408121       1.82625011
Si       6.99250780       3.00485024       3.23243731
Si      11.53892565       7.76378062       8.29112472
Si       7.83263879       6.51301159       6.88493753
Si       5.63382329       7.14540037       6.78282560
Si       9.34011039       7.13139100       8.39323665
Si       9.19132329       2.37246146       3.33454924
Si       5.48503619       2.38647083       1.72413818
Si       4.66814166       3.15498509       3.85355823
Si       0.96185486       1.60394548       1.20512919
Si      10.15700493       6.36287674       6.26381660
Si      13.86329173       7.91391635       8.91224564
Si       6.46626790       4.05647089       5.10338864
Si       2.75998144       0.70246036      -0.04470122
Si       8.35887869       5.46139094       5.01398620
Si      12.06516515       8.81540147      10.16207605
Si       5.55943044       1.12056105       5.17399584
Si       1.85314286       3.63836986      -0.11530842
18
Lattice="7.295548072234907 1.3931597137401898e-06 4.359329543987224e-15 3.647772643679773 7.291767711174496 -0.14821853517905573 3.647773583779848 2.3687533036501067 10.277937055165628" Properties=species:S:1:pos:R:3 unique_starting_index=182 config_type=initial n_minim_iter=4 stress="0.00606875201221243 7.345518901379442e-10 1.12826040836253e-09 7.345518901379442e-10 0.002222130672569201 -0.005908351442877329 1.12826040836253e-09 -0.005908351442877329 -0.006479169471063303" pbc="T T T"
Si       3.22336355       1.75622515       1.86050055
Si       6.87113734       3.07403657       3.20435872
Si      11.36773076       7.90429724       8.26921798
Si       7.71995697       6.58648582       6.92535981
Si       5.47519047       7.24536791       6.70693463
Si       9.12296451       7.24541429       8.48764316
Si       9.11590383       2.41515448       3.42278390
Si       5.46812980       2.41510810       1.64207537
Si       4.51790484       3.17571091       3.85716471
Si       0.87013110       1.65454991       1.20769456
Si      10.07318946       6.48481148       6.27255382
Si      13.72096321       8.00597248       8.92202397
Si       6.34734575       4.09139252       5.12627137
Si       2.69957235       0.73886900      -0.06141210
Si       8.24374855       5.56912987       5.00344716
Si      11.89152195       8.92165339      10.19113063
Si       5.47166083       1.18437734       5.13896853
Si       1.82388632       3.64588385      -0.07410926
18
Lattice="6.705922549632384 1.2805646751646115e-06 1.9539875459028395e-15 3.352959977654652 6.792835869607385 0.24517364145455434 3.352960741461752 2.793013421691934 10.416498940710882" Properties=species:S:1:pos:R:3 unique_starting_index=182 config_type=initial n_minim_iter=5 stress="-0.033429005413006904 -7.50624417273137e-09 1.0233077661047156e-09 -7.50624417273137e-09 0.005878883383272959 -0.005358748540247193 1.0233077661047156e-09 -0.005358748540247193 -0.006890147999213121" pbc="T T T"
Si       2.96553586       1.68844786       2.03224731
Si       6.31849687       3.10447790       3.29858899
Si      10.44630741       7.89740270       8.62942528
Si       7.09334641       6.48137265       7.36308360
Si       4.91307579       7.13826785       6.87060372
Si       8.26603705       7.24050667       9.12190516
Si       8.49876748       2.44758271       3.79106887
Si       5.14580622       2.34534389       1.53976743
Si       3.98633749       3.09710471       4.01492853
Si       0.63337648       1.69582016       1.31590777
Si       9.42550579       6.48874585       6.64674406
Si      12.77846679       7.89003040       9.34576482
Si       5.78710439       4.03177854       5.42235897
Si       2.43414374       0.76114702      -0.09152267
Si       7.62473888       5.55407201       5.23931362
Si      10.97769953       8.82470354      10.75319526
Si       5.02944165       1.39650734       5.20824947
Si       1.67647999       3.39641793       0.12258682
18
Lattice="6.63202106874353 1.2664524289761096e-06 1.1553315465559912e-15 3.316009271445002 6.613558888746078 0.35775908537070883 3.3160099802635457 2.901694555647009 10.421088021411828" Properties=species:S:1:pos:R:3 unique_starting_index=182 config_type=initial n_minim_iter=6 stress="-0.050286953596404206 -1.0181752644864515e-08 1.299907035273312e-09 -1.0181752644864515e-08 0.003031748980598491 -0.0068072139929615 1.299907035273312e-09 -0.0068072139929615 -0.004818755885858473" pbc="T T T"
Si       2.93295141       1.66298673       2.07264646
Si       6.24896168       3.09464109       3.31677710
Si      10.33108891       7.85226796       8.70620066
Si       7.01507865       6.42061360       7.46207001
Si       4.82528344       7.06626733       6.89550516
Si       8.14129395       7.20661340       9.27276551
Si       8.43875688       2.44898736       3.88334196
Si       5.12274637       2.30864130       1.50608161
Si       3.89649417       3.06202619       4.04593110
Si       0.58048389       1.69560074       1.34349247
Si       9.36754616       6.45322851       6.73291602
Si      12.68355643       7.81965395       9.43535465
Si       5.70959802       3.99710628       5.48665121
Si       2.39358810       0.76052134      -0.09722765
Si       7.55444231       5.51814841       5.29219590
Si      10.87045222       8.75473336      10.87607477
Si       4.97401553       1.45084790       5.21054401
Si       1.65800464       3.30677944       0.17887955
18
Lattice="6.762778613753295 1.2914219220434023e-06 1.0680669897540028e-15 3.3813881173747333 6.229055599790948 0.6551290925371286 3.3813886922869707 3.2184173270272063 10.416710285253068" Properties=species:S:1:pos:R:3 unique_starting_index=182 config_type=initial n_minim_iter=7 stress="-0.06470933076081722 -9.571290730483176e-09 9.311712543224057e-11 -9.571290730483176e-09 -0.014587426056560177 -0.0004876286933624534 9.311712543224057e-11 -0.0004876286933624534 0.003982668399778805" pbc="T T T"
Si       2.99711506       1.64576152       2.13961504
Si       6.37850409       3.07797608       3.39630466
Si      10.52844037       7.80171269       8.93222434
Si       7.14705134       6.36949813       7.67553473
Si       4.90535929       6.96422239       7.06192853
Si       8.28674855       7.20698757       9.54583055
Si       8.62019614       2.48325181       4.00991086
Si       5.23880687       2.24048664       1.52600884
Si       3.93891915       3.04955352       4.12445085
Si       0.55753010       1.67418314       1.41146884
Si       9.58663628       6.39792068       6.94738853
Si      12.96802533       7.77329107       9.66037054
Si       5.80464646       3.99499635       5.61716162
Si       2.42325778       0.72874103      -0.08124192
Si       7.72090896       5.45247786       5.45467776
Si      11.10229765       8.71873318      11.15308131
Si       5.07208366       1.60920930       5.20835515
Si       1.69069406       3.11452779       0.32756455
18
Lattice="7.086244516511792 1.353191053138998e-06 6.156025250597676e-16 3.5431211017509034 6.056260925915672 0.9156686273088068 3.5431215809185606 3.5470074938912006 10.123430046769885" Properties=species:S:1:pos:R:3 unique_starting_index=182 config_type=initial n_minim_iter=8 stress="-0.05483730587611092 -3.4508129950038243e-09 -2.6784957795356787e-09 -3.4508129950038243e-09 -0.03676645688333295 0.014026452799406439 -2.6784957795356787e-09 0.014026452799406439 -0.0033910281437780562" pbc="T T T"
Si       3.14820305       1.66723878       2.14353557
Si       6.69132503       3.13439662       3.37601377
Si      11.02428416       7.93603098       8.89556311
Si       7.48116218       6.46887314       7.66308491
Si       5.12859358       7.03205305       7.01546617
Si       8.67171577       7.37285017       9.54318185
Si       9.04389363       2.57121671       4.02363251
Si       5.50077143       2.23041959       1.49591683
Si       4.08830937       3.11027941       4.08052770
Si       0.54518738       1.69135500       1.43902165
Si      10.08417783       6.49299035       6.95857098
Si      13.62729982       7.91191476       9.60007703
Si       6.06050757       4.08235576       5.58310944
Si       2.51738595       0.71927940      -0.06356010
Si       8.11197964       5.52091400       5.45598924
Si      11.65510126       8.88399036      11.10265878
Si       5.31468305       1.77350442       5.06171503
Si       1.77156055       3.02813046       0.45783432
18
Lattice="7.3754396413472225 1.4084158284630079e-06 1.4633939221405356e-16 3.6877186595841267 6.080268526023286 0.8708076978762687 3.6877191549008908 3.486447190061753 10.025675602158017" Properties=species:S:1:pos:R:3 unique_starting_index=182 config_type=initial n_minim_iter=9 stress="-0.00976200692053837 9.036964916535919e-10 -1.916757662560366e-09 9.036964916535919e-10 -0.014494383056836382 0.010037465160729429 -1.916757662560366e-09 0.010037465160729429 0.01386469496156305" pbc="T T T"
Si       3.28464544       1.65249276       2.11724892
Si       6.97236498       3.13086634       3.33099274
Si      11.46623202       7.91422436       8.77923439
Si       7.77851249       6.43585077       7.56549057
Si       5.35414499       7.01676572       6.90796592
Si       9.04186475       7.33330847       9.43675904
Si       9.39673247       2.54995139       3.98851739
Si       5.70901271       2.23340864       1.45972427
Si       4.25411690       3.10207721       4.02799618
Si       0.56639735       1.68128085       1.42024547
Si      10.49676056       6.46463990       6.86848712
Si      14.18448011       7.88543626       9.47623783
Si       6.30030692       4.05658999       5.51810605
Si       2.61258774       0.72676885      -0.06986439
Si       8.45057054       5.51012712       5.37837726
Si      12.13828972       8.83994826      10.96634770
Si       5.53157940       1.74322429       5.01283780
Si       1.84385933       3.04013426       0.43540385
18
Lattice="7.604687058948411 1.4521929732706335e-06 2.1611265206419701e-16 3.8023423310687763 6.275680663435288 0.8680528986015169 3.80234285345537 3.5401029701721805 9.459789772374094" Properties=species:S:1:pos:R:3 unique_starting_index=182 config_type=initial n_minim_iter=10 stress="0.015114456100771995 3.132101945030218e-09 -1.3260310920147528e-09 3.132101945030218e-09 -0.0012873931111081138 0.0069440135570367975 -1.3260310920147528e-09 0.0069440135570367975 0.005469963015090428" pbc="T T T"
Si       3.40289090       1.67412978       2.01403946
Si       7.20523413       3.23376332       3.14988188
Si      11.80648135       8.14165529       8.31380321
Si       8.00413812       6.58202175       7.17796080
Si       5.52729800       7.20734669       6.49069770
Si       9.32964147       7.51632941       9.00106631
Si       9.68207425       2.60843839       3.83714498
Si       5.87973078       2.29945566       1.32677636
Si       4.34020049       3.19048316       3.80721459
Si       0.53785725       1.71740885       1.35670675
Si      10.86917176       6.62530191       6.52062809
Si      14.67151500       8.09837622       8.97113593
Si       6.47350848       4.13893425       5.23806958
Si       2.67116560       0.76895858      -0.07414824
Si       8.73586377       5.67685083       5.08977310
Si      12.53820665       9.04682650      10.40199092
Si       5.70351496       1.77005220       4.72989489
Si       1.90117117       3.13784033       0.43402645
18
Lattice="7.563680436260156 1.44436234011552e-06 -2.2365347707258936e-15 3.7818389841441244 6.462004906115482 0.6906604267249342 3.7818395816937267 3.332821674362909 9.18158341604007" Properties=species:S:1:pos:R:3 unique_starting_index=182 config_type=initial n_minim_iter=11 stress="0.023812171144280816 1.4337170545980832e-09 1.0329193019185455e-09 1.4337170545980832e-09 0.016304239406525478 -0.005409082194617511 1.0329193019185455e-09 -0.005409082194617511 0.0019120573079071082" pbc="T T T"
Si       3.41645295       1.64719338       1.91463300
Si       7.19829286       3.25022121       3.02148893
Si      11.71090606       8.14763463       7.95761085
Si       7.92906615       6.54460681       6.85075492
Si       5.57777492       7.24146309       6.16813251
Si       9.35961510       7.45077745       8.64023326
Si       9.54958409       2.55336492       3.70411134
Si       5.76774391       2.34405056       1.23201058
Si       4.33111129       3.22717604       3.64750798
Si       0.54927137       1.67023744       1.28861394
Si      10.79624772       6.56765197       6.22473586
Si      14.57808764       8.12459057       8.58362991
Si       6.42447063       4.09485382       5.02885662
Si       2.64263105       0.80256046      -0.09273470
Si       8.70288837       5.69997419       4.84338722
Si      12.48472796       8.99226755       9.96497855
Si       5.67276001       1.66641155       4.59079171
Si       1.89091950       3.23100245       0.34533022
18
Lattice="7.406457316030704 1.4143389739442376e-06 -2.7869695978698764e-15 3.703227434842263 6.405381252089055 0.6828221047564293 3.7032280277863823 3.3003155153701096 9.056103866419889" Properties=species:S:1:pos:R:3 unique_starting_index=182 config_type=initial n_minim_iter=12 stress="0.011214692802373107 8.304435297490972e-10 2.846394214167755e-10 8.304435297490972e-10 0.006865916965821604 -0.0014905702363970062 2.846394214167755e-10 -0.0014905702363970062 -0.004859238131309537" pbc="T T T"
Si       3.39499821       1.60595263       1.88288968
Si       7.09822656       3.24689704       2.98657331
Si      11.41791457       8.09974554       7.85603630
Si       7.71468623       6.45880113       6.75235267
Si       5.55446808       7.19403810       6.02960470
Si       9.25769671       7.36450774       8.57878426
Si       9.25844470       2.51166006       3.70932128
Si       5.55521608       2.34119043       1.16014171
Si       4.22273991       3.27246082       3.58589419
Si       0.51951157       1.58038775       1.28356880
Si      10.59017288       6.43323735       6.15303179
Si      14.29340121       8.12531042       8.45535717
Si       6.25345307       4.03997898       4.97931267
Si       2.55022503       0.81287036      -0.10984968
Si       8.55945971       5.66571918       4.75961331
Si      12.26268775       8.89282781       9.84877565
Si       5.55484268       1.65015846       4.52805194
Si       1.85161372       3.20269062       0.34141106
18
Lattice="7.228856645392463 1.3804243069485122e-06 -7.283306680052732e-15 3.614427121522019 6.290179921981199 0.6387390937558526 3.6144277123242445 3.196330581126338 9.114152876263967" Properties=species:S:1:pos:R:3 unique_starting_index=182 config_type=initial n_minim_iter=13 stress="-0.0025268271968800606 9.774900143578157e-10 -3.7062145783495287e-10 9.774900143578157e-10 -0.007645639343343435 0.001940827762488844 -3.7062145783495287e-10 0.001940827762488844 -0.00221379569991392" pbc="T T T"
Si       3.33425653       1.55025928       1.90028263
Si       6.94868454       3.19299723       2.97616336
Si      11.12345496       7.93625259       7.85260935
Si       7.50902695       6.29351464       6.77672861
Si       5.44282986       7.04976823       5.97095127
Si       9.05725816       7.17999821       8.65838669
Si       9.01488163       2.43674364       3.78194071
Si       5.40045333       2.30651366       1.09450528
Si       4.08360792       3.23621999       3.58160285
Si       0.46917992       1.50703543       1.29484314
Si      10.37410357       6.25029189       6.17128912
Si      13.98853156       7.97947644       8.45804884
Si       6.06631468       3.92408547       5.01872663
Si       2.45188695       0.81917070      -0.14228064
Si       8.39139680       5.56242640       4.73416534
Si      12.00582453       8.66734117       9.89517262
Si       5.42164218       1.59816597       4.55707644
Si       1.80721356       3.14508995       0.31936955
18
Lattice="7.045071540493064 1.345328657126335e-06 -8.214455511170313e-15 3.5225345445315654 6.41869227471987 0.5858255600008065 3.5225351669196927 3.1594372858621314 9.063166357848909" Properties=species:S:1:pos:R:3 unique_starting_index=182 config_type=initial n_minim_iter=14 stress="-0.0069899196150138 -6.936405941397769e-10 -3.110720789453281e-10 -6.936405941397769e-10 -0.0033575365550489347 0.0016289859979336891 -3.110720789453281e-10 0.0016289859979336891 0.004524390874754433" pbc="T T T"
Si       3.24536938       1.54379361       1.90328373
Si       6.76790483       3.24527239       2.92121223
Si      10.84477188       8.03433728       7.74570819
Si       7.32223643       6.33285850       6.72777969
Si       5.27967258       7.13920912       5.85251350
Si       8.80220834       7.22798588       8.62097438
Si       8.81046867       2.43892178       3.79647842
Si       5.28793292       2.35014501       1.02801754
Si       3.93847582       3.29386090       3.53665732
Si       0.41594040       1.49520403       1.28783865
Si      10.15166543       6.28426999       6.11233460
Si      13.67420086       8.08292686       8.36115328
Si       5.86649778       3.92702396       5.00173458
Si       2.34396260       0.86204171      -0.17723861
Si       8.22364348       5.65110694       4.64725734
Si      11.74617866       8.71608919       9.82623054
Si       5.28380336       1.57971931       4.53158318
Si       1.76126728       3.20934613       0.29291278
18
Lattice="6.8018172904042 1.298876755718202e-06 -1.2332215339505666e-15 3.4009073635030256 6.71186372825179 0.4633268044345745 3.400908059070448 3.069391414236933 8.71574129671086" Properties=species:S:1:pos:R:3 unique_starting_index=182 config_type=initial n_minim_iter=15 stress="-0.009662036610838665 -3.5110835792244707e-09 -9.336226234185543e-10 -3.5110835792244707e-09 0.008724423909627788 0.004889092345874032 -9.336226234185543e-10 0.004889092345874032 0.007891403654508767" pbc="T T T"
Si       3.14379266       1.52263965       1.85066998
Si       6.54470095       3.36798911       2.73886407
Si      10.45984006       8.25861677       7.32839812
Si       7.05893177       6.41326732       6.44020403
Si       5.09407803       7.34490212       5.47330909
Si       8.49498668       7.32698123       8.29529307
Si       8.50955469       2.43635431       3.70575902
Si       5.10864604       2.45427520       0.88377504
Si       3.73916869       3.46607528       3.34476227
Si       0.33826043       1.42455241       1.24477178
Si       9.86446403       6.31518115       5.83430583
Si      13.26537229       8.35670402       7.93429632
Si       5.55376747       3.92636917       4.83609243
Si       2.15285939       0.96425921      -0.24655837
Si       8.04986525       5.85488726       4.34297568
Si      11.45077333       8.81699722       9.42562648
Si       5.10136268       1.53469635       4.35787065
Si       1.70045368       3.35593186       0.23166341
18
Lattice="6.700635425826661 1.2795550413063353e-06 -1.0812648591849022e-15 3.350316412487317 6.809930930725077 0.3002020048062608 3.3503171678683836 2.8542330009130366 8.464011545448871" Properties=species:S:1:pos:R:3 unique_starting_index=182 config_type=initial n_minim_iter=16 stress="-0.010218280593822196 -3.582687439888961e-09 -7.311439517847118e-10 -3.582687439888961e-09 0.00854314648298017 0.003828774950844224 -7.311439517847118e-10 0.003828774950844224 0.003229606247228165" pbc="T T T"
Si       3.10770514       1.46168622       1.80108091
Si       6.45802248       3.37039692       2.58102587
Si      10.29356388       8.20247898       6.96313265
Si       6.94324653       6.29376827       6.18318768
Si       5.02695308       7.31217081       5.15328215
Si       8.37727082       7.18407571       7.99303818
Si       8.37431593       2.35199438       3.61093140
Si       5.02399819       2.48008949       0.77117538
Si       3.64667685       3.51475493       3.17534320
Si       0.29635955       1.31732713       1.20676358
Si       9.75459217       6.14941026       5.58887035
Si      13.10490946       8.34683807       7.55744998
Si       5.38824181       3.80318240       4.69186042
Si       2.03792463       1.02890033      -0.30975364
Si       8.01302720       5.86098280       4.07235314
Si      11.36334438       8.63526487       9.07396719
Si       5.02547630       1.42711713       4.23200578
Si       1.67515821       3.40496546       0.15010101
18
Lattice="6.7892691243576095 1.2964805545321251e-06 -9.1464883026957e-16 3.3946332814483857 6.706791185441604 0.11412803416817092 3.394634077320908 2.5390519836091503 8.353683228707323" Properties=species:S:1:pos:R:3 unique_starting_index=182 config_type=initial n_minim_iter=17 stress="-0.0034485938620911726 -4.4867668150925197e-10 1.1391536407251349e-09 -4.4867668150925197e-10 -0.0010990146887866347 -0.00596539563871733 1.1391536407251349e-09 -0.00596539563871733 0.0036246085944352546" pbc="T T T"
Si       3.15253190       1.37570846       1.76044471
Si       6.54716610       3.24721432       2.47346093
Si      10.42600459       7.87013599       6.70736656
Si       7.03137039       5.99863014       5.99435034
Si       5.10849605       7.03552024       4.96269534
Si       8.50313065       6.83324515       7.73902156
Si       8.47004043       2.21032421       3.50511593
Si       5.07540583       2.41259930       0.72878971
Si       3.69646581       3.43257949       3.05012150
Si       0.30183168       1.19034220       1.18378414
Si       9.88207068       5.81326496       5.41768977
Si      13.27670481       8.05550225       7.28402713
Si       5.41217226       3.58627541       4.59897075
Si       2.01753819       1.03664693      -0.36506511
Si       8.16636423       5.65956904       3.86884052
Si      11.56099830       8.20919752       8.83287638
Si       5.09195160       1.26952663       4.17684162
Si       1.69731664       3.35339559       0.05706402
18
Lattice="6.985707555694008 1.333992486578998e-06 -4.34563203168135e-15 3.49285249878495 6.698054488097304 0.18978541800601922 3.4928532726301933 2.645665338654323 8.071977677079413" Properties=species:S:1:pos:R:3 unique_starting_index=182 config_type=initial n_minim_iter=18 stress="0.005645268811940997 -8.26636564708461e-12 3.4102657010963693e-10 -8.26636564708461e-12 0.005688554636823946 -0.001785849761140808 3.4102657010963693e-10 -0.001785849761140808 -0.0016964531754243963" pbc="T T T"
Si       3.25419229       1.37862969       1.70174649
Si       6.74704571       3.29323145       2.42913506
Si      10.71722104       7.96509145       6.56001661
Si       7.22436763       6.05048970       5.83262804
Si       5.27828243       7.07663512       4.89748320
Si       8.77113624       6.93894528       7.49516145
Si       8.69313090       2.26708602       3.36427990
Si       5.20027710       2.40477586       0.76660165
Si       3.79973139       3.52940719       2.95577914
Si       0.30687807       1.14245283       1.17510241
Si      10.17168194       5.81431396       5.30598396
Si      13.66453526       8.20126832       7.08666069
Si       5.53680271       3.63850325       4.49916584
Si       2.04394943       1.03335743      -0.36828429
Si       8.43461062       5.70521790       3.76259726
Si      11.92746390       8.31036372       8.63004739
Si       5.23928042       1.32283333       4.03598884
Si       1.74642625       3.34902724       0.09489271
18
Lattice="7.221323890426347 1.378985832772822e-06 -2.1803688881544853e-15 3.6106607082329125 6.4776850741942384 0.2233985781181362 3.6106614464356213 2.611944939683754 7.341146163738063" Properties=species:S:1:pos:R:3 unique_starting_index=182 config_type=initial n_minim_iter=19 stress="0.01021744947218224 7.307781288172812e-09 -6.462069743633799e-10 7.307781288172812e-09 -0.02805115420137791 0.003383992642641863 -6.462069743633799e-10 0.003383992642641863 0.00043187644361290974" pbc="T T T"
Si       3.39164515       1.23300957       1.56545783
Si       7.00230670       3.31180672       2.21681455
Si      11.05100090       7.85662181       5.99908692
Si       7.44033935       5.77782466       5.34773020
Si       5.44791345       6.83995549       4.51671536
Si       9.05857541       6.79449022       6.83010176
Si       8.99473260       2.24967589       3.04782939
Si       5.38407064       2.29514116       0.73444299
Si       3.78222232       3.68272165       2.61252304
Si       0.17156091       0.86209341       1.16974934
Si      10.66042373       5.40690973       4.95202171
Si      14.27108514       8.22753797       6.39479541
Si       5.50634170       3.48123587       4.27582672
Si       1.89568022       1.06357985      -0.49355434
Si       8.93630435       5.60839551       3.28871803
Si      12.54696584       8.02605153       8.05809909
Si       5.41599267       1.30597315       3.67057308
Si       1.80533036       3.23884253       0.11169929
18
Lattice="7.244985321920767 1.3835042264588393e-06 -5.694687709704036e-15 3.622491425583729 6.469287483850094 0.2141408959738642 3.6224921657886724 2.5930622195693847 7.183652528142075" Properties=species:S:1:pos:R:3 unique_starting_index=182 config_type=initial n_minim_iter=20 stress="0.01085347149807252 8.266177138406202e-09 -5.354700372226321e-10 8.266177138406202e-09 -0.03243395500553143 0.0028040955542967313 -5.354700372226321e-10 0.0028040955542967313 -0.005389253358087816" pbc="T T T"
Si       3.40944469       1.20390334       1.53457451
Si       7.03193695       3.32727280       2.16432221
Si      11.08052422       7.85844773       5.86321892
Si       7.45803197       5.73507828       5.23347122
Si       5.46574702       6.81565382       4.41848198
Si       9.08823969       6.77787143       6.67820816
Si       9.02422190       2.24669726       2.97931145
Si       5.40172923       2.28447964       0.71958527
Si       3.76355866       3.72963635       2.53479042
Si       0.14106656       0.80153854       1.16410630
Si      10.72641026       5.33271473       4.86300301
Si      14.34890236       8.26081253       6.23368713
Si       5.47456064       3.45222599       4.21836245
Si       1.85206843       1.07894956      -0.51946573
Si       9.01540828       5.61012509       3.17943098
Si      12.63790049       7.98340151       7.91725916
Si       5.43373875       1.29653179       3.59182627
Si       1.81124572       3.23464373       0.10707045
18
Lattice="7.010425818441239 1.3387126791765754e-06 1.0750537334231332e-15 3.5052116336932735 6.679544238093889 0.18109158139201736 3.5052124101605027 2.6134246235395078 7.133990199746011" Properties=species:S:1:pos:R:3 unique_starting_index=182 config_type=initial n_minim_iter=21 stress="-0.001506219978408413 2.6253796567857408e-09 -3.486632916110677e-10 2.6253796567857408e-09 -0.015254530851614115 0.001825849114946197 -3.486632916110677e-10 0.001825849114946197 -0.0064026614656064445" pbc="T T T"
Si       3.30415450       1.20164447       1.51792631
Si       6.80936698       3.44484121       2.13961459
Si      10.71669537       8.09132572       5.79715548