18
Lattice="5.890962541543628 -2.792122340602359e-28 -2.2020257880474983e-39 3.2459046820629966e-28 6.84615402826621 5.35395396775963e-14 4.3442447853307924e-39 -9.192227136553565e-14 11.754191989436054" Properties=species:S:1:pos:R:3 unique_starting_index=81 config_type=initial n_minim_iter=9 energy=-2928.470172619639 free_energy=-2928.470172619639 pbc="T T T"
Si       2.32894309       2.20925408       4.65329627
Si       2.32894309       4.63689995       7.10089572
Si       2.32894309       2.20925408       7.10089572
Si       2.32894309       4.63689995       4.65329627
Si       5.82118487       2.22100264       4.65918606
Si       5.82118487       4.62515139       7.09500593
Si       5.82118487       2.22100264       7.09500593
Si       5.82118487       4.62515139       4.65918606
Si       4.08853294       5.67497179       3.55997248
Si       4.08853294       1.17118223       8.19421951
Si       4.08853294       5.67497179       8.19421951
Si       4.08853294       1.17118223       3.55997248
Si       3.76473272       5.62635037      10.54782520
Si       3.76473272       1.21980366       1.20636679
Si       3.76473272       5.62635037       1.20636679
Si       3.76473272       1.21980366      10.54782520
Si       1.79925298       6.84615403      10.54524944
Si       1.79925298      -0.00000000       1.20894255
