6
Lattice="4.901137758507909 2.1412681917144734e-14 -1.937106816297421e-11 -1.7327048987176616e-14 3.965979337038986 -3.009801065734122e-14 2.0223913739054722e-11 3.8288170392037523e-14 5.116919026734214" Properties=species:S:1:pos:R:3 unique_starting_index=12 config_type=initial n_minim_iter=14 energy=-972.9054797349061 free_energy=-972.9054797349061 pbc="T T T"
Si       0.34403119       1.98298967       3.73198091
Si       0.34403119       1.98298967       1.38493812
Si       2.79449332       1.15621120       2.55845951
Si       2.79449332       2.80976814       2.55845951
Si       0.34460923       0.00000000      -0.00000000
Si       2.79520352       0.00000000      -0.00000000
