10
Lattice="8.747237439628739 -5.693552114846114e-46 -4.990549195612294e-31 9.682086449198924e-46 5.240620798832744 1.0954921476988392e-14 3.713239260062849e-31 -1.3547924267142275e-14 6.49951935572281" Properties=species:S:1:pos:R:3 unique_starting_index=27 config_type=initial n_minim_iter=10 energy=-1623.848391576537 free_energy=-1623.848391576537 pbc="T T T"
Si       0.93993885       0.82784623       5.79914608
Si       7.80729859       0.82784623       0.70037327
Si       5.31355757       0.82784623       0.70037327
Si       3.43367987       0.82784623       5.79914608
Si       7.80687963       3.23108244       0.70024005
Si       0.94035780       3.23108244       5.79927930
Si       3.43326091       3.23108244       5.79927930
Si       5.31397652       3.23108244       0.70024005
Si       2.18680936       4.64922565       7.13759402
Si       6.56042808       4.64922565      -0.63807466
