18
Lattice="6.957140525377145 -1.432296791923238e-19 -8.950744569345357e-30 1.971671249110654e-19 9.577061142117527 3.680617662407307e-16 1.5845943541936346e-29 -4.73345692206292e-16 12.316575779980974" Properties=species:S:1:pos:R:3 unique_starting_index=81 config_type=initial n_minim_iter=1 energy=-2914.349418254984 free_energy=-2914.349418254984 pbc="T T T"
Si       3.88101963       3.63876154       5.01732818
Si       3.88101963       5.93829960       7.29924760
Si       3.88101963       3.63876154       7.29924760
Si       3.88101963       5.93829960       5.01732818
Si       6.11943944       3.49452608       4.29518707
Si       6.11943944       6.08253506       8.02138871
Si       6.11943944       3.49452608       8.02138871
Si       6.11943944       6.08253506       4.29518707
Si       4.68346681       8.19463060       4.92252585
Si       4.68346681       1.38243054       7.39404993
Si       4.68346681       8.19463060       7.39404993
Si       4.68346681       1.38243054       4.92252585
Si       4.05625011       8.41645006       9.59928502
Si       4.05625011       1.16061108       2.71729076
Si       4.05625011       8.41645006       2.71729076
Si       4.05625011       1.16061108       9.59928502
Si       2.44408665       9.57706114      10.62041458
Si       2.44408665      -0.00000000       1.69616120
18
Lattice="6.800022961448826 -1.3916633429622031e-19 -9.020831883003089e-30 2.00688495520415e-19 9.69253166551561 3.7249948300087173e-16 1.5147398783589572e-29 -4.668747344092342e-16 12.148199805579118" Properties=species:S:1:pos:R:3 unique_starting_index=81 config_type=initial n_minim_iter=2 stress="-0.0015285339679317865 2.3141027417776287e-17 2.2324234295736997e-17 2.3141027417776287e-17 0.0015252895422531731 1.9114286161304787e-17 2.2324234295736997e-17 1.9114286161304787e-17 -0.0031090841378614434" pbc="T T T"
Si       3.78883196       3.67926632       4.94745187
Si       3.78883196       6.01326534       7.20074794
Si       3.78883196       3.67926632       7.20074794
Si       3.78883196       6.01326534       4.94745187
Si       5.97782963       3.53607279       4.24507672
Si       5.97782963       6.15645887       7.90312309
Si       5.97782963       3.53607279       7.90312309
Si       5.97782963       6.15645887       4.24507672
Si       4.58282161       8.29368118       4.85293554
Si       4.58282161       1.39885049       7.29526426
Si       4.58282161       8.29368118       7.29526426
Si       4.58282161       1.39885049       4.85293554
Si       3.97099487       8.51477787       9.47708453
Si       3.97099487       1.17775380       2.67111527
Si       3.97099487       8.51477787       2.67111527
Si       3.97099487       1.17775380       9.47708453
Si       2.38184329       9.69253167      10.49154595
Si       2.38184329      -0.00000000       1.65665385
18
Lattice="6.662028719836043 -1.3740213884576417e-19 -8.623175172115223e-30 1.9982126931344927e-19 9.720931102916788 3.735909187663741e-16 1.5716124344415494e-29 -4.72196504012476e-16 12.286673609460637" Properties=species:S:1:pos:R:3 unique_starting_index=81 config_type=initial n_minim_iter=3 stress="-0.0027860973922748506 -6.267861878820781e-18 -7.255458898335846e-18 -6.267861878820781e-18 0.004360300809702706 2.019278776291023e-18 -7.255458898335846e-18 2.019278776291023e-18 0.0038083658673927663" pbc="T T T"
Si       3.69978694       3.68526970       4.99780979
Si       3.69978694       6.03566140       7.28886382
Si       3.69978694       3.68526970       7.28886382
Si       3.69978694       6.03566140       4.99780979
Si       5.85262903       3.54507745       4.31166133
Si       5.85262903       6.17585366       7.97501228
Si       5.85262903       3.54507745       7.97501228
Si       5.85262903       6.17585366       4.31166133
Si       4.50054754       8.31876006       4.90421236
Si       4.50054754       1.40217104       7.38246125
Si       4.50054754       8.31876006       7.38246125
Si       4.50054754       1.40217104       4.90421236
Si       3.90370448       8.53446848       9.60545191
Si       3.90370448       1.18646262       2.68122170
Si       3.90370448       8.53446848       2.68122170
Si       3.90370448       1.18646262       9.60545191
Si       2.31756590       9.72093110      10.64731549
Si       2.31756590      -0.00000000       1.63935811
18
Lattice="6.515784758961985 -1.3751327202180347e-19 -8.490401343244412e-30 1.9116958865110525e-19 9.509438560777282 3.6546292235427515e-16 1.550135137990925e-29 -4.687206844652913e-16 12.19623189731551" Properties=species:S:1:pos:R:3 unique_starting_index=81 config_type=initial n_minim_iter=4 stress="-0.005450053828097597 -1.061108750373088e-17 1.2046941529384458e-17 -1.061108750373088e-17 -0.006547340655037228 -6.957395946464634e-19 1.2046941529384458e-17 -6.957395946464634e-19 0.002467777326484732" pbc="T T T"
Si       3.59173174       3.59699866       4.95220834
Si       3.59173174       5.91243991       7.24402356
Si       3.59173174       3.59699866       7.24402356
Si       3.59173174       5.91243991       4.95220834
Si       5.71941664       3.46479580       4.31624917
Si       5.71941664       6.04464276       7.87998273
Si       5.71941664       3.46479580       7.87998273
Si       5.71941664       6.04464276       4.31624917
Si       4.42241980       8.13955783       4.86011953
Si       4.42241980       1.36988073       7.33611237
Si       4.42241980       8.13955783       7.33611237
Si       4.42241980       1.36988073       4.86011953
Si       3.84406449       8.33996677       9.57518465
Si       3.84406449       1.16947179       2.62104725
Si       3.84406449       8.33996677       2.62104725
Si       3.84406449       1.16947179       9.57518465
Si       2.23639691       9.50943856      10.64139529
Si       2.23639691      -0.00000000       1.55483661
18
Lattice="6.248484218399782 -1.2238372337649147e-19 -9.257267860162954e-30 2.0220628772332837e-19 9.404788438907383 3.61441050945342e-16 1.2723937789324488e-29 -4.443382269986646e-16 11.561794129018848" Properties=species:S:1:pos:R:3 unique_starting_index=81 config_type=initial n_minim_iter=5 stress="0.003499460228290931 -4.350617009424899e-18 7.108051192709284e-18 -4.350617009424899e-18 -0.010604415035013698 1.1528870105068539e-17 7.108051192709284e-18 1.1528870105068539e-17 -0.0025159408618522995" pbc="T T T"
Si       3.30390390       3.51992623       4.65955804
Si       3.30390390       5.88486221       6.90223609
Si       3.30390390       3.51992623       6.90223609
Si       3.30390390       5.88486221       4.65955804
Si       5.47336103       3.40972331       4.26398928
Si       5.47336103       5.99506513       7.29780485
Si       5.47336103       3.40972331       7.29780485
Si       5.47336103       5.99506513       4.26398928
Si       4.33997849       8.06098505       4.56857821
Si       4.33997849       1.34380339       6.99321592
Si       4.33997849       8.06098505       6.99321592
Si       4.33997849       1.34380339       4.56857821
Si       3.81055554       8.20346942       9.27288411
Si       3.81055554       1.20131902       2.28891002
Si       3.81055554       8.20346942       2.28891002
Si       3.81055554       1.20131902       9.27288411
Si       2.00212608       9.40478844      10.43251263
Si       2.00212608      -0.00000000       1.12928150
18
Lattice="6.111553440500637 -1.1403139416771911e-19 -9.709058438920567e-30 2.098399602549176e-19 9.42088688774418 3.6205974003215304e-16 1.1463412463494261e-29 -4.397468669329465e-16 11.442325766661948" Properties=species:S:1:pos:R:3 unique_starting_index=81 config_type=initial n_minim_iter=6 stress="0.0033903940360213917 2.296091104022934e-18 -3.79170932557786e-18 2.296091104022934e-18 -0.01079690106596433 6.887918309002314e-18 -3.79170932557786e-18 6.887918309002314e-18 -0.008225611565398463" pbc="T T T"
Si       3.19883869       3.51917716       4.60304898
Si       3.19883869       5.90170973       6.83927679
Si       3.19883869       3.51917716       6.83927679
Si       3.19883869       5.90170973       4.60304898
Si       5.35413423       3.41343086       4.25845972
Si       5.35413423       6.00745603       7.18386605
Si       5.35413423       3.41343086       7.18386605
Si       5.35413423       6.00745603       4.25845972
Si       4.26541067       8.07793674       4.51228494
Si       4.26541067       1.34295014       6.93004083
Si       4.26541067       8.07793674       6.93004083
Si       4.26541067       1.34295014       4.51228494
Si       3.75196739       8.20973749       9.22275519
Si       3.75196739       1.21114940       2.21957058
Si       3.75196739       8.20973749       2.21957058
Si       3.75196739       1.21114940       9.22275519
Si       1.93122732       9.42088689      10.39332015
Si       1.93122732      -0.00000000       1.04900562
18
Lattice="5.670724610549627 -1.0524632722495671e-19 -8.8812560464419e-30 2.145903669066039e-19 9.768410112588791 3.754156130077043e-16 1.2042415798480667e-29 -4.407601887818936e-16 11.468692660431742" Properties=species:S:1:pos:R:3 unique_starting_index=81 config_type=initial n_minim_iter=7 stress="-0.011051767583306414 3.1762029567657726e-17 -3.128145207250257e-17 3.1762029567657726e-17 0.011697604340764101 2.6071202857337593e-17 -3.128145207250257e-17 2.6071202857337593e-17 0.0008437582809076851" pbc="T T T"
Si       2.88604050       3.65165073       4.60230258
Si       2.88604050       6.11675938       6.86639008
Si       2.88604050       3.65165073       6.86639008
Si       2.88604050       6.11675938       4.60230258
Si       5.00151367       3.54957401       4.34481526
Si       5.00151367       6.21883611       7.12387740
Si       5.00151367       3.54957401       7.12387740
Si       5.00151367       6.21883611       4.34481526
Si       3.98561364       8.38895291       4.49925226
Si       3.98561364       1.37945721       6.96944040
Si       3.98561364       8.38895291       6.96944040
Si       3.98561364       1.37945721       4.49925226
Si       3.51287554       8.51520398       9.34975118
Si       3.51287554       1.25320613       2.11894148
Si       3.51287554       8.51520398       2.11894148
Si       3.51287554       1.25320613       9.34975118
Si       1.77009005       9.76841011      10.46883987
Si       1.77009005      -0.00000000       0.99985279
18
Lattice="5.666533037849319 -1.478040957705887e-19 -7.726348784659186e-30 1.6162238875694376e-19 10.03845144534741 3.857937331467624e-16 1.4093219247018803e-29 -4.4125233216922303e-16 11.481498361317641" Properties=species:S:1:pos:R:3 unique_starting_index=81 config_type=initial n_minim_iter=8 stress="0.003141148911824821 1.0360988807304532e-16 5.9497067143788735e-18 1.0360988807304532e-16 0.02837706559705646 1.9832772999628077e-17 5.9497067143788735e-18 1.9832772999628077e-17 0.017651224995685024" pbc="T T T"
Si       2.78882920       3.77866250       4.59583286
Si       2.78882920       6.25978895       6.88566551
Si       2.78882920       3.77866250       6.88566551
Si       2.78882920       6.25978895       4.59583286
Si       5.06972554       3.67584628       4.41197603
Si       5.06972554       6.36260516       7.06952233
Si       5.06972554       3.67584628       7.06952233
Si       5.06972554       6.36260516       4.41197603
Si       3.99111529       8.63566189       4.47980424
Si       3.99111529       1.40278955       7.00169412
Si       3.99111529       8.63566189       7.00169412
Si       3.99111529       1.40278955       4.47980424
Si       3.51370113       8.77765459       9.46518388
Si       3.51370113       1.26079686       2.01631449
Si       3.51370113       8.77765459       2.01631449
Si       3.51370113       1.26079686       9.46518388
Si       1.79138057      10.03845145      10.40325423
Si       1.79138057      -0.00000000       1.07824413
18
Lattice="5.412132260806079 -1.960372874402487e-19 -6.475111580548835e-30 8.834747892063356e-20 9.939400572154625 3.819870487453329e-16 1.527527445459028e-29 -4.293958375821257e-16 11.172989310287633" Properties=species:S:1:pos:R:3 unique_starting_index=81 config_type=initial n_minim_iter=9 stress="-0.011501315765443535 1.57611728118226e-16 -1.6624736138445176e-18 1.57611728118226e-16 0.024194030842224188 -1.4337095889223822e-17 -1.6624736138445176e-18 -1.4337095889223822e-17 0.009009123472366844" pbc="T T T"
Si       2.54458742       3.76248978       4.44661114
Si       2.54458742       6.17691079       6.72637817
Si       2.54458742       3.76248978       6.72637817
Si       2.54458742       6.17691079       4.44661114
Si       4.91496696       3.66786062       4.39180899
Si       4.91496696       6.27153995       6.78118032
Si       4.91496696       3.66786062       6.78118032
Si       4.91496696       6.27153995       4.39180899
Si       3.83497404       8.56558864       4.32542741
Si       3.83497404       1.37381194       6.84756190
Si       3.83497404       8.56558864       6.84756190
Si       3.83497404       1.37381194       4.32542741
Si       3.38172195       8.70719996       9.35214875
Si       3.38172195       1.23220061       1.82084056
Si       3.38172195       8.70719996       1.82084056
Si       3.38172195       1.23220061       9.35214875
Si       1.70571083       9.93940057      10.08742996
Si       1.70571083      -0.00000000       1.08555935
18
Lattice="5.553177398831945 -1.9943903669203906e-19 -7.999680421987742e-30 7.38739461089377e-20 9.563422856627337 3.675376242865519e-16 1.2784074808237807e-29 -4.1919318470821577e-16 10.907513679467735" Properties=species:S:1:pos:R:3 unique_starting_index=81 config_type=initial n_minim_iter=10 stress="-0.003752505433008996 9.059487219697932e-17 -9.96627578472178e-18 9.059487219697932e-17 0.007594745813256256 -2.5450030488639113e-17 -9.96627578472178e-18 -2.5450030488639113e-17 -0.003527347896170006" pbc="T T T"
Si       2.55191377       3.62350576       4.31398818
Si       2.55191377       5.93991710       6.59352549
Si       2.55191377       3.62350576       6.59352549
Si       2.55191377       5.93991710       4.31398818
Si       5.08300346       3.54555023       4.33199050
Si       5.08300346       6.01787263       6.57552318
Si       5.08300346       3.54555023       6.57552318
Si       5.08300346       6.01787263       4.33199050
Si       3.94289552       8.24584942       4.19973428
Si       3.94289552       1.31757343       6.70777940
Si       3.94289552       8.24584942       6.70777940
Si       3.94289552       1.31757343       4.19973428
Si       3.48636380       8.38172017       9.19744899
Si       3.48636380       1.18170268       1.71006469
Si       3.48636380       8.38172017       1.71006469
Si       3.48636380       1.18170268       9.19744899
Si       1.73926399       9.56342286       9.80017441
Si       1.73926399      -0.00000000       1.10733927
18
Lattice="5.733398236366005 -1.9412693868869825e-19 -1.0090338913057887e-29 7.480499618980353e-20 9.287211653724002 3.569223861750473e-16 9.51792135649633e-30 -4.1794454966683023e-16 10.875023873204682" Properties=species:S:1:pos:R:3 unique_starting_index=81 config_type=initial n_minim_iter=11 stress="-0.0011964313718801586 1.8698593714665147e-16 -1.318120946861122e-17 1.8698593714665147e-16 -0.00738328216742656 1.3834895647058828e-17 -1.318120946861122e-17 1.3834895647058828e-17 0.003333355198277206" pbc="T T T"
Si       2.67718819       3.50780347       4.29616220
Si       2.67718819       5.77940819       6.57886168
Si       2.67718819       3.50780347       6.57886168
Si       2.67718819       5.77940819       4.29616220
Si       5.23718136       3.43840605       4.26890461
Si       5.23718136       5.84880561       6.60611926
Si       5.23718136       3.43840605       6.60611926
Si       5.23718136       5.84880561       4.26890461
Si       4.05002568       7.99829085       4.18978364
Si       4.05002568       1.28892081       6.68524023
Si       4.05002568       7.99829085       6.68524023
Si       4.05002568       1.28892081       4.18978364
Si       3.58488493       8.13554666       9.12063648
Si       3.58488493       1.15166500       1.75438739
Si       3.58488493       8.13554666       1.75438739
Si       3.58488493       1.15166500       9.12063648
Si       1.80327702       9.28721165       9.70467325
Si       1.80327702      -0.00000000       1.17035062
18
Lattice="5.8060586384969515 -1.905146573251369e-19 -1.1616442728173953e-29 7.799434581330798e-20 9.198553171064152 3.535150990081602e-16 6.753040407342757e-30 -4.123896723031637e-16 10.730484546325375" Properties=species:S:1:pos:R:3 unique_starting_index=81 config_type=initial n_minim_iter=12 stress="0.007010494223906045 1.1202258443796192e-16 -9.105164858163031e-18 1.1202258443796192e-16 -0.006781643305441455 -1.4840405827475205e-17 -9.105164858163031e-18 -1.4840405827475205e-17 -0.0041780909416769645" pbc="T T T"
Si       2.70419261       3.44910915       4.22181159
Si       2.70419261       5.74944402       6.50867296
Si       2.70419261       3.44910915       6.50867296
Si       2.70419261       5.74944402       4.22181159
Si       5.30117268       3.40068540       4.21662650
Si       5.30117268       5.79786777       6.51385805
Si       5.30117268       3.40068540       6.51385805
Si       5.30117268       5.79786777       4.21662650
Si       4.10492879       7.91461980       4.11835975
Si       4.10492879       1.28393337       6.61212479
Si       4.10492879       7.91461980       6.61212479
Si       4.10492879       1.28393337       4.11835975
Si       3.65270452       8.04072062       9.01775597
Si       3.65270452       1.15783255       1.71272858
Si       3.65270452       8.04072062       1.71272858
Si       3.65270452       1.15783255       9.01775597
Si       1.79281116       9.19855317       9.57782466
Si       1.79281116      -0.00000000       1.15265989
18
Lattice="5.697951484541907 -1.7839862083595226e-19 -1.3765063833482636e-29 8.998043532734839e-20 9.08430710534925 3.491244401754598e-16 2.4135025456746645e-30 -4.041690791661297e-16 10.51658261578786" Properties=species:S:1:pos:R:3 unique_starting_index=81 config_type=initial n_minim_iter=13 stress="0.006125487186393986 1.22982220713625e-16 -4.017827281614912e-17 1.22982220713625e-16 -0.005319252643480165 -9.786327070458691e-17 -4.017827281614912e-17 -9.786327070458691e-17 -0.015395594195838578" pbc="T T T"
Si       2.61002661       3.34536837       4.09291359
Si       2.61002661       5.73893873       6.42366903
Si       2.61002661       3.34536837       6.42366903
Si       2.61002661       5.73893873       4.09291359
Si       5.21999424       3.35034860       4.14959196
Si       5.21999424       5.73395851       6.36699065
Si       5.21999424       3.35034860       6.36699065
Si       5.21999424       5.73395851       4.14959196
Si       4.03561875       7.79508440       3.98291823
Si       4.03561875       1.28922271       6.53366439
Si       4.03561875       7.79508440       6.53366439
Si       4.03561875       1.28922271       3.98291823
Si       3.64253895       7.90269983       8.91337398
Si       3.64253895       1.18160727       1.60320864
Si       3.64253895       7.90269983       1.60320864
Si       3.64253895       1.18160727       8.91337398
Si       1.68206457       9.08430711       9.35495237
Si       1.68206457      -0.00000000       1.16163025
18
Lattice="5.547488336115505 -1.6060306102405808e-19 -1.4573004757223222e-29 1.0984617656975782e-19 9.000352833530476 3.458979394882948e-16 8.518529545946137e-31 -4.0304225430749463e-16 10.487262216827475" Properties=species:S:1:pos:R:3 unique_starting_index=81 config_type=initial n_minim_iter=14 stress="0.004800391646550511 1.661765340387118e-16 6.042783434936351e-18 1.661765340387118e-16 -0.0034592365416156175 -5.915664815185272e-17 6.042783434936351e-18 -5.915664815185272e-17 -0.009149083038273982" pbc="T T T"
Si       2.50745534       3.24744863       4.03765382
Si       2.50745534       5.75290420       6.44960840
Si       2.50745534       3.24744863       6.44960840
Si       2.50745534       5.75290420       4.03765382
Si       5.10028350       3.30801526       4.12554451
Si       5.10028350       5.69233757       6.36171771
Si       5.10028350       3.30801526       6.36171771
Si       5.10028350       5.69233757       4.12554451
Si       3.92642838       7.69173372       3.90488720
Si       3.92642838       1.30861912       6.58237502
Si       3.92642838       7.69173372       6.58237502
Si       3.92642838       1.30861912       3.90488720
Si       3.60394398       7.79012209       8.96183366
Si       3.60394398       1.21023074       1.52542856
Si       3.60394398       7.79012209       1.52542856
Si       3.60394398       1.21023074       8.96183366
Si       1.55874727       9.00035283       9.27574330
Si       1.55874727      -0.00000000       1.21151892
18
Lattice="5.154802394388697 -7.194037644352033e-20 -1.495709486492943e-29 2.2070415596334704e-19 8.92494652564688 3.429999353802295e-16 1.6892368180228653e-31 -4.0365915218077485e-16 10.5033134218085" Properties=species:S:1:pos:R:3 unique_starting_index=81 config_type=initial n_minim_iter=15 stress="-0.010729165512014412 1.3842770700486882e-17 -2.0218500008324594e-17 1.3842770700486882e-17 -0.0042804813668459165 -8.883554334979265e-17 -2.0218500008324594e-17 -8.883554334979265e-17 0.0003487878118488159" pbc="T T T"
Si       2.21708524       3.12569056       3.96880144
Si       2.21708524       5.79925596       6.53451198
Si       2.21708524       3.12569056       6.53451198
Si       2.21708524       5.79925596       3.96880144
Si       4.80568408       3.27368084       4.13256748
Si       4.80568408       5.65126569       6.37074594
Si       4.80568408       3.27368084       6.37074594
Si       4.80568408       5.65126569       4.13256748
Si       3.65394574       7.58375555       3.76643278
Si       3.65394574       1.34119098       6.73688065
Si       3.65394574       7.58375555       6.73688065
Si       3.65394574       1.34119098       3.76643278
Si       3.45491497       7.67667722       9.17596101
Si       3.45491497       1.24826930       1.32735241
Si       3.45491497       7.67667722       1.32735241
Si       3.45491497       1.24826930       9.17596101
Si       1.31823123       8.92494653       9.20674774
Si       1.31823123      -0.00000000       1.29656568
18
Lattice="5.05059963209007 2.230117558462811e-20 -1.4972281912743962e-29 3.458524964426897e-19 8.92608692368934 3.4304376625224605e-16 1.0218949845177557e-31 -4.0310911435941183e-16 10.489001415232579" Properties=species:S:1:pos:R:3 unique_starting_index=81 config_type=initial n_minim_iter=16 stress="-0.019979623650698608 -2.306771191278388e-17 -4.692783385388335e-17 -2.306771191278388e-17 -0.0007774036089629539 -2.933209321316246e-17 -4.692783385388335e-17 -2.933209321316246e-17 -0.001156001362870395" pbc="T T T"
Si       2.12068150       3.09719864       3.93660403
Si       2.12068150       5.82888829       6.55239739
Si       2.12068150       3.09719864       6.55239739
Si       2.12068150       5.82888829       3.93660403
Si       4.74221822       3.27235606       4.12066556
Si       4.74221822       5.65373086       6.36833585
Si       4.74221822       3.27235606       6.36833585
Si       4.74221822       5.65373086       4.12066556
Si       3.58159846       7.57263325       3.69680127
Si       3.58159846       1.35345367       6.79220014
Si       3.58159846       7.57263325       6.79220014
Si       3.58159846       1.35345367       3.69680127
Si       3.42425136       7.66864018       9.25436213
Si       3.42425136       1.25744675       1.23463928
Si       3.42425136       7.66864018       1.23463928
Si       3.42425136       1.25744675       9.25436213
Si       1.24601137       8.92608692       9.15514982
Si       1.24601137      -0.00000000       1.33385159
18
Lattice="5.231167859694787 1.0656990625691046e-19 -1.5125560077600365e-29 4.733894216858404e-19 9.053099030289793 3.4792504660563873e-16 7.639072759533759e-32 -4.0678016926175107e-16 10.584523268865379" Properties=species:S:1:pos:R:3 unique_starting_index=81 config_type=initial n_minim_iter=17 stress="0.0043270334269540035 -4.2192758398177044e-17 -2.270214358140231e-17 -4.2192758398177044e-17 0.024335136703746454 1.1985226769567311e-18 -2.270214358140231e-17 1.1985226769567311e-18 0.019018133845334996" pbc="T T T"
Si       2.17597216       3.17242661       3.98873419
Si       2.17597216       5.88067242       6.59578908
Si       2.17597216       3.17242661       6.59578908
Si       2.17597216       5.88067242       3.98873419
Si       4.94337747       3.31953412       4.09970676
Si       4.94337747       5.73356491       6.48481651
Si       4.94337747       3.31953412       6.48481651
Si       4.94337747       5.73356491       4.09970676
Si       3.69660127       7.69252695       3.67781638
Si       3.69660127       1.36057208       6.90670689
Si       3.69660127       7.69252695       6.90670689
Si       3.69660127       1.36057208       3.67781638
Si       3.54049975       7.82130439       9.38310644
Si       3.54049975       1.23179464       1.20141683
Si       3.54049975       7.82130439       1.20141683
Si       3.54049975       1.23179464       9.38310644
Si       1.30682293       9.05309903       9.20066360
Si       1.30682293      -0.00000000       1.38385966
18
Lattice="5.391004621589773 1.4915847414876008e-19 -1.4971983804216125e-29 5.500709317437236e-19 8.685040253564926 3.337799612577063e-16 4.3062351677103906e-32 -4.0210123160832167e-16 10.462776186795665" Properties=species:S:1:pos:R:3 unique_starting_index=81 config_type=initial n_minim_iter=18 stress="0.0071914897384677285 -2.2946512309593754e-17 5.3145268042760696e-17 -2.2946512309593754e-17 0.0023844643101015974 -2.831879843393543e-17 5.3145268042760696e-17 -2.831879843393543e-17 0.006535974149775113" pbc="T T T"
Si       2.22153678       3.07157201       3.96180659
Si       2.22153678       5.61346824       6.50096959
Si       2.22153678       3.07157201       6.50096959
Si       2.22153678       5.61346824       3.96180659
Si       5.12580187       3.17366819       3.99483987
Si       5.12580187       5.51137207       6.46793632
Si       5.12580187       3.17366819       6.46793632
Si       5.12580187       5.51137207       3.99483987
Si       3.79850604       7.38437636       3.57210771
Si       3.79850604       1.30066389       6.89066848
Si       3.79850604       7.38437636       6.89066848
Si       3.79850604       1.30066389       3.57210771
Si       3.64391953       7.54745488       9.31749657
Si       3.64391953       1.13758537       1.14527962
Si       3.64391953       7.54745488       1.14527962
Si       3.64391953       1.13758537       9.31749657
Si       1.35743946       8.68504025       9.07814142
Si       1.35743946      -0.00000000       1.38463477
18
Lattice="5.375077482618357 2.3711868932276727e-19 -1.502416746528116e-29 6.707003403313349e-19 8.637009034685365 3.3193404718729146e-16 2.393242786558688e-32 -4.0321510439810866e-16 10.491759526050478" Properties=species:S:1:pos:R:3 unique_starting_index=81 config_type=initial n_minim_iter=19 stress="0.002787304480375245 6.23406288424832e-17 1.2536505295894748e-18 6.23406288424832e-17 -0.009197003868661433 -1.228470672117206e-17 1.2536505295894748e-18 -1.228470672117206e-17 0.005884745496655808" pbc="T T T"
Si       2.23545872       3.08191788       4.00624550
Si       2.23545872       5.55509115       6.48551402
Si       2.23545872       3.08191788       6.48551402
Si       2.23545872       5.55509115       4.00624550
Si       5.10060141       3.13957728       3.98988735
Si       5.10060141       5.49743176       6.50187218
Si       5.10060141       3.13957728       6.50187218
Si       5.10060141       5.49743176       3.98988735
Si       3.78527669       7.34673106       3.58433495
Si       3.78527669       1.29027797       6.90742458
Si       3.78527669       7.34673106       6.90742458
Si       3.78527669       1.29027797       3.58433495
Si       3.61149272       7.52328731       9.30314173
Si       3.61149272       1.11372173       1.18861780
Si       3.61149272       7.52328731       1.18861780
Si       3.61149272       1.11372173       9.30314173
Si       1.37990892       8.63700903       9.16486553
Si       1.37990892      -0.00000000       1.32689400
18
Lattice="5.271867738442151 3.7400102279515346e-19 -1.5082710242847515e-29 8.461148224230801e-19 8.628589529982108 3.3161047428333253e-16 1.477063410824644e-32 -4.0465584878926374e-16 10.529248135444547" Properties=species:S:1:pos:R:3 unique_starting_index=81 config_type=initial n_minim_iter=20 stress="-0.012367284146890584 3.847838170906293e-17 1.721095668152703e-17 3.847838170906293e-17 -0.010987214869781603 -2.3781391565618266e-17 1.721095668152703e-17 -2.3781391565618266e-17 -0.0006685447427186868" pbc="T T T"
Si       2.17997477       3.07647409       4.03546229
Si       2.17997477       5.55211544       6.49378584
Si       2.17997477       3.07647409       6.49378584
Si       2.17997477       5.55211544       4.03546229
Si       5.00805187       3.11239802       3.99600644
Si       5.00805187       5.51619151       6.53324170
Si       5.00805187       3.11239802       6.53324170
Si       5.00805187       5.51619151       3.99600644
Si       3.71467190       7.32924558       3.55138518
Si       3.71467190       1.29934395       6.97786296
Si       3.71467190       7.32924558       6.97786296
Si       3.71467190       1.29934395       3.55138518
Si       3.55569430       7.51406515       9.35778233
Si       3.55569430       1.11452438       1.17146581
Si       3.55569430       7.51406515       1.17146581
Si       3.55569430       1.11452438       9.35778233
Si       1.33650002       8.62858953       9.26328822
Si       1.33650002      -0.00000000       1.26595991
18