18
Lattice="4.72405978010203 0.0 0.0 0.0 9.493693548120213 -6.446079941309002e-16 0.0 6.269728770468095e-16 9.232363421966786" Properties=species:S:1:pos:R:3 unique_starting_index=36 config_type=initial n_minim_iter=17 energy=-2929.284428201171 free_energy=-2929.284428201171 pbc="T T T"
Si       4.05570460       8.89593227       8.14439844
Si       0.66835518       8.89593227       1.08796498
Si       3.03038507       8.89593227       3.52821673
Si       1.69367471       8.89593227       5.70414669
Si       0.38709314       1.77126476       1.44528182
Si       4.33696664       1.77126476       7.78708160
Si       1.97493675       1.77126476       6.06146353
Si       2.74912303       1.77126476       3.17089989
Si       0.41978072       7.64328586       3.15931979
Si       4.30427906       7.64328586       6.07304363
Si       1.94224917       7.64328586       7.77550150
Si       2.78181061       7.64328586       1.45686192
Si       2.98350224       0.45873005       1.11823689
Si       1.74055754       0.45873005       8.11412653
Si      -0.62147235       0.45873005       5.73441860
Si       5.34553213       0.45873005       3.49794482
Si       0.00000000       6.79676600       0.00000000
Si       2.36202989       6.79676600       4.61618171
