18
Lattice="6.274345066208498 0.6274549213318112 -0.09367637658152145 -1.1937943796503179 5.897914718056751 -0.5402496729254042 -2.3626042898251294 -3.112980937825045 10.163100266937331" Properties=species:S:1:pos:R:3 unique_starting_index=108 config_type=initial n_minim_iter=1 energy=-2930.078539825772 free_energy=-2930.078539825772 pbc="T T T"
Si       3.20963211      -1.82603700       8.53079197
Si       3.11061463       1.31834494       7.05243665
Si      -2.25254413       3.01153068       5.02551806
Si       4.04049365       5.23113336       1.84892917
Si       3.66254822      -0.46324648       5.63273640
Si       2.49418564       7.14352613       0.65464597
Si       1.12387858       3.60956449       0.20306959
Si       1.76965108      -1.58885967       6.58409899
Si       2.30275670       2.27052479       3.95670297
Si       5.40791468       3.51771151      -0.96183222
Si       1.00510265       3.71057934       2.55896823
Si       3.08254938       0.03805190       3.36142935
Si       4.18738631       3.40444399       7.29760262
Si       1.06659707       1.96053944       5.98745291
Si      -0.78993321       4.37250934       3.86218537
Si      -1.47063119       2.72452182       9.70530267
Si       3.52520993       3.44554133       0.42404281
Si      -1.43987999       5.88298798       0.14788975
18
Lattice="6.281988531315991 0.6269440020229994 -0.0930027808119673 -1.1963566537526333 5.903641778672366 -0.5400481857594931 -2.363866004967545 -3.1135932993809985 10.177207501174921" Properties=species:S:1:pos:R:3 unique_starting_index=108 config_type=initial n_minim_iter=2 stress="0.0006213318710806393 0.00012998238960800737 -7.702224449085872e-05 0.00012998238960800737 0.0006652819491345435 -0.00024231975727052565 -7.702224449085872e-05 -0.00024231975727052565 0.0005726921883974276" pbc="T T T"
Si       3.21500362      -1.82678966       8.54329344
Si       3.11485096       1.32063385       7.06370863
Si      -2.25574581       3.01545984       5.03364091
Si       4.04468286       5.23578706       1.85322212
Si       3.66764102      -0.46323548       5.64126874
Si       2.49615049       7.14995801       0.65721406
Si       1.12495347       3.61301174       0.20412156
Si       1.77283621      -1.58937841       6.59393674
Si       2.30585052       2.27308778       3.96313000
Si       5.41396822       3.51981775      -0.96223891
Si       1.00600086       3.71458188       2.56376074
Si       3.08672179       0.03814676       3.36687634
Si       4.19267686       3.40826368       7.30883973
Si       1.06828921       1.96299971       5.99650570
Si      -0.79117721       4.37802748       3.86846807
Si      -1.47167180       2.72944337       9.72023904
Si       3.52900198       3.44823168       0.42561299
Si      -1.44277677       5.88868860       0.14907864
18
Lattice="6.280368354683806 0.618944535380082 -0.08760267382312484 -1.2032875319822607 5.897576506570647 -0.5307500691523938 -2.3529594755331327 -3.0893640270560794 10.177445054059051" Properties=species:S:1:pos:R:3 unique_starting_index=108 config_type=initial n_minim_iter=3 stress="0.00037765110301431047 -0.00044068591380247424 0.00019895061259244269 -0.00044068591380247424 -0.0002467139941137288 0.0006187584895607939 0.00019895061259244269 0.0006187584895607939 0.000515711848375249" pbc="T T T"
Si       3.22384950      -1.81384233       8.54801750
Si       3.11641996       1.32988690       7.07558770
Si      -2.25890342       3.02169881       5.04417714
Si       4.03854382       5.22879972       1.86753621
Si       3.67029212      -0.45672369       5.64647505
Si       2.48845766       7.13976834       0.67173551
Si       1.12303567       3.60962076       0.21125110
Si       1.77911951      -1.57779525       6.59907794
Si       2.30726392       2.27543239       3.97108616
Si       5.40921916       3.50701670      -0.95489453
Si       1.00360676       3.71524842       2.57459377
Si       3.08875329       0.04019745       3.37272670
Si       4.19222525       3.41199376       7.31845438
Si       1.07084437       1.96770325       6.00309718
Si      -0.79287550       4.38440277       3.87725183
Si      -1.46651158       2.74702435       9.73342100
Si       3.52487824       3.44076587       0.43385897
Si      -1.45009281       5.88265810       0.15854764
18
Lattice="6.271414808978843 0.6287151116344912 -0.08982863175670444 -1.1932308362376085 5.906447815200491 -0.5398427083613111 -2.355557267251429 -3.1143740715663273 10.176296937998115" Properties=species:S:1:pos:R:3 unique_starting_index=108 config_type=initial n_minim_iter=4 stress="-0.0008707284911609841 0.0005187796316749906 -0.0005090516601633989 0.0005187796316749906 0.0008875662308452438 -0.0003703400378190993 -0.0005090516601633989 -0.0003703400378190993 -0.00021201694739751516" pbc="T T T"
Si       3.21879384      -1.82860306       8.54306263
Si       3.10696172       1.32906951       7.07375380
Si      -2.26364469       3.00964004       5.04543874
Si       4.03597827       5.23896099       1.85964620
Si       3.65898909      -0.46048005       5.64123646
Si       2.49541419       7.15113372       0.65781415
Si       1.13294653       3.62107433       0.20486971
Si       1.77267487      -1.58926618       6.60378481
Si       2.31092412       2.27681817       3.96220954
Si       5.40831101       3.51800256      -0.96644742
Si       1.00691525       3.72231559       2.57149119
Si       3.08399189       0.03834295       3.37360683
Si       4.18614382       3.40956031       7.29362891
Si       1.07327299       1.95385787       5.98923403
Si      -0.78499613       4.39520337       3.86347881
Si      -1.45859441       2.73919009       9.72888061
Si       3.52432327       3.45009203       0.42542085
Si      -1.44259610       5.88537405       0.14796395
18
Lattice="6.287801453250188 0.6212450971105269 -0.08084903957977142 -1.2027396845267082 5.892075725718427 -0.5420697314055366 -2.3444863403918816 -3.1050532411425045 10.171086059916004" Properties=species:S:1:pos:R:3 unique_starting_index=108 config_type=initial n_minim_iter=5 stress="0.0006531051105120924 -0.00012410149699002145 0.0002801382845049522 -0.00012410149699002145 -0.0008901135645456927 -0.000365870763860958 0.0002801382845049522 -0.000365870763860958 -6.787919984878955e-05" pbc="T T T"
Si       3.24168757      -1.82791066       8.54603406
Si       3.12398184       1.32149126       7.07600424
Si      -2.26471775       3.00488245       5.03897059
Si       4.04462482       5.22059327       1.86440914
Si       3.67687651      -0.46263401       5.64602366
Si       2.49706764       7.13057927       0.66065354
Si       1.13293772       3.61104133       0.20631040
Si       1.78800090      -1.58855349       6.60591603
Si       2.32103364       2.26806047       3.96393475
Si       5.41914833       3.50344952      -0.95821960
Si       1.01031562       3.71127406       2.57168171
Si       3.09717971       0.03530073       3.37761195
Si       4.20574361       3.39571555       7.29934532
Si       1.08266388       1.94681583       5.98839638
Si      -0.78731007       4.38435140       3.86229120
Si      -1.45175638       2.73261729       9.72342552
Si       3.53220368       3.43765153       0.43019848
Si      -1.45205276       5.87052354       0.14485859
18
Lattice="6.282014396310268 0.6182550034837208 -0.07896898068538534 -1.2052069697079795 5.899993330046338 -0.5289415169652851 -2.339852499919367 -3.0852725032392323 10.164659449105908" Properties=species:S:1:pos:R:3 unique_starting_index=108 config_type=initial n_minim_iter=6 stress="0.0004388756029427941 -0.00033030762140982654 0.000435244414014571 -0.00033030762140982654 0.00020783796246121462 0.0009518986243684455 0.000435244414014571 0.0009518986243684455 -0.00032941730865591027" pbc="T T T"
Si       3.24104420      -1.81423127       8.54252455
Si       3.11997607       1.33672999       7.07863654
Si      -2.26275307       3.02505310       5.04227907
Si       4.03804695       5.22912432       1.87679706
Si       3.67322039      -0.45197509       5.64673834
Si       2.49178941       7.14180357       0.67717431
Si       1.12968917       3.61659653       0.21464752
Si       1.78721328      -1.57899655       6.60444887
Si       2.31831162       2.27872452       3.96833174
Si       5.41384149       3.50308845      -0.94836378
Si       1.00810147       3.72132464       2.57995178
Si       3.09501877       0.04154552       3.37867052
Si       4.20231309       3.41435647       7.31103277
Si       1.08071811       1.96161336       5.99203831
Si      -0.79199276       4.40041745       3.87469208
Si      -1.45276824       2.75988913       9.72821778
Si       3.52855459       3.44124967       0.43813679
Si      -1.45458586       5.87885296       0.15716071
18
Lattice="6.268575251777131 0.6143509036902307 -0.0856278518610086 -1.2051959066393694 5.894044269996697 -0.5319127468372464 -2.34318599908342 -3.084930680561117 10.197420760557751" Properties=species:S:1:pos:R:3 unique_starting_index=108 config_type=initial n_minim_iter=7 stress="-0.0006935485713388975 -0.0005623177345793256 -0.0003325692354636818 -0.0005623177345793256 -0.0009250803802978792 0.0003877301266073029 -0.0003325692354636818 0.0003877301266073029 0.0016286988633176453" pbc="T T T"
Si       3.22884578      -1.81940043       8.56372058
Si       3.10268523       1.33090959       7.09504182
Si      -2.26630784       3.02392970       5.05483065
Si       4.02376566       5.21829715       1.87689242
Si       3.65716762      -0.45420089       5.66101802
Si       2.48408999       7.13267649       0.67336787
Si       1.12716119       3.61438448       0.21259248
Si       1.77662747      -1.58480067       6.62708891
Si       2.31076112       2.27345400       3.97373916
Si       5.40518237       3.49495197      -0.95699656
Si       1.00228029       3.71625736       2.58600844
Si       3.08572097       0.03891403       3.38704877
Si       4.18633418       3.40402167       7.32669509
Si       1.07185644       1.95232676       6.00315778
Si      -0.80041476       4.39897774       3.88661750
Si      -1.46144212       2.75616674       9.75526983
Si       3.52132515       3.43504350       0.43391526
Si      -1.45612626       5.86917761       0.15471066
18
Lattice="6.274962567476895 0.6197508987600585 -0.07349874419944853 -1.203614001291094 5.904353108461102 -0.5455455427590211 -2.32618045053014 -3.113741418695368 10.168093026185952" Properties=species:S:1:pos:R:3 unique_starting_index=108 config_type=initial n_minim_iter=8 stress="-0.00023934506816618157 0.00031498557337687126 -0.00024029520002517824 0.00031498557337687126 0.00039632007407133275 -0.00037805339062443156 -0.00024029520002517824 -0.00037805339062443156 -0.00031425543625787433" pbc="T T T"
Si       3.26101177      -1.84934524       8.54353141
Si       3.10299906       1.32358483       7.08135760
Si      -2.27334146       3.02967044       5.02336848
Si       4.02723442       5.21570750       1.87494623
Si       3.65390812      -0.45618030       5.65887905
Si       2.50299033       7.14670362       0.66020719
Si       1.14530755       3.63762928       0.20840786
Si       1.78438330      -1.62113549       6.64262915
Si       2.33717970       2.27175220       3.94734625
Si       5.43016095       3.49537772      -0.95057857
Si       1.01273537       3.72495556       2.58164199
Si       3.09909763       0.03610882       3.39453349
Si       4.21536304       3.39056147       7.29669777
Si       1.08889162       1.91842114       5.95650948
Si      -0.80726496       4.43033802       3.86940162
Si      -1.44247195       2.75706909       9.71567363
Si       3.54073575       3.44091408       0.42912402
Si      -1.46319171       5.85614064       0.12927619
18
Lattice="6.273046390311195 0.6061250656097396 -0.05310187070882328 -1.216947801543576 5.897126988161867 -0.5359277923172487 -2.2889366404604865 -3.0796792003230333 10.17677637697799" Properties=species:S:1:pos:R:3 unique_starting_index=108 config_type=initial n_minim_iter=9 stress="0.0005053139415019986 1.926563384258218e-05 0.0016207474049471206 1.926563384258218e-05 -0.00104477980621491 0.0008016168933421925 0.0016207474049471206 0.0008016168933421925 0.0011201573505594622" pbc="T T T"
Si       3.29653995      -1.83607530       8.56884873
Si       3.11509636       1.33251035       7.11338324
Si      -2.27112133       3.06143492       5.03215158
Si       4.02130628       5.19846456       1.90681139
Si       3.65655863      -0.45009127       5.69091990
Si       2.49680479       7.13750205       0.68760666
Si       1.14368772       3.64499435       0.22389747
Si       1.80200512      -1.63068638       6.67777473
Si       2.35183693       2.27680291       3.95713410
Si       5.43724029       3.47147735      -0.92557038
Si       1.00278792       3.73017512       2.60657370
Si       3.11197989       0.03957463       3.41457316
Si       4.23970066       3.38806489       7.32892512
Si       1.10037487       1.91634772       5.95915742
Si      -0.80950452       4.45895645       3.88959912
Si      -1.42369725       2.78894676       9.73778515
Si       3.54657609       3.42835817       0.44750848
Si      -1.48131230       5.83323349       0.13302679
18
Lattice="6.276873652327364 0.5887510987876591 -0.06718304708797884 -1.2334017943446898 5.904002147265 -0.5305090147805641 -2.3054996607774623 -3.0713445573816376 10.170087320942061" Properties=species:S:1:pos:R:3 unique_starting_index=108 config_type=initial n_minim_iter=10 stress="0.0018431229680982678 -0.0013197260965936125 -0.00024592555316344227 -0.0013197260965936125 -0.001083055080915557 0.0009897713635229723 -0.00024592555316344227 0.0009897713635229723 0.00022990668524390745" pbc="T T T"
Si       3.28762686      -1.84431603       8.55257687
Si       3.09574934       1.32646056       7.10087996
Si      -2.29677424       3.08233845       5.03257162
Si       4.00639250       5.18767481       1.89841235
Si       3.63939188      -0.46063732       5.68123724
Si       2.47968335       7.13715355       0.68411927
Si       1.13578209       3.65185831       0.22433953
Si       1.78989595      -1.64877034       6.67527938
Si       2.34185768       2.27555659       3.94194096
Si       5.44376981       3.45530058      -0.93502439
Si       0.97986370       3.73391440       2.60597541
Si       3.10832016       0.03255788       3.40443164
Si       4.22227645       3.37647153       7.30855616
Si       1.08072465       1.91111315       5.94144717
Si      -0.83253938       4.47860269       3.88943332
Si      -1.45792569       2.80244298       9.73047706
Si       3.54509336       3.42006949       0.43948840
Si      -1.50312160       5.83140997       0.13491721
18
Lattice="6.254395854939762 0.5887683332406176 -0.06653895055223394 -1.2312693456193538 5.923536176162741 -0.5406620641394151 -2.293352255965232 -3.0970941482296634 10.175016997807468" Properties=species:S:1:pos:R:3 unique_starting_index=108 config_type=initial n_minim_iter=11 stress="0.00028787618018782425 -0.0006881855900809253 7.262298540273539e-05 -0.0006881855900809253 1.7625109684319364e-05 -3.970387296844906e-05 7.262298540273539e-05 -3.970387296844906e-05 9.773395365205199e-05" pbc="T T T"
Si       3.28269538      -1.86475121       8.55975764
Si       3.08578914       1.31564517       7.10196999
Si      -2.29299141       3.10004615       5.02877316
Si       3.99316550       5.19566330       1.89218607
Si       3.61608955      -0.47802927       5.69002618
Si       2.47076522       7.15965004       0.67395660
Si       1.13217326       3.67326647       0.22246086
Si       1.78228749      -1.68722642       6.69003622
Si       2.33722096       2.27998405       3.93043338
Si       5.43516397       3.46281825      -0.93881418
Si       0.96295526       3.74508971       2.60369077
Si       3.10075641       0.02668672       3.40436069
Si       4.21460325       3.36712442       7.29742163
Si       1.07598120       1.90007684       5.92679406
Si      -0.82732676       4.50521507       3.88093513
Si      -1.45490460       2.79968049       9.72507700
Si       3.53944077       3.42850965       0.43382609
Si      -1.50491704       5.83663443       0.12064031
18
Lattice="6.24916778454525 0.6032331006577369 -0.07313690273401742 -1.215929222844686 5.922419661005017 -0.5360620408759791 -2.309139135563201 -3.097507014837186 10.179510638490964" Properties=species:S:1:pos:R:3 unique_starting_index=108 config_type=initial n_minim_iter=12 stress="0.00022067580674789704 0.0013280537281444103 -0.0006484887681953947 0.0013280537281444103 -0.000394256694870105 0.000342968460819485 -0.0006484887681953947 0.000342968460819485 -3.280000858055649e-05" pbc="T T T"
Si       3.26974023      -1.85176031       8.56124866
Si       3.07709829       1.32438246       7.10286798
Si      -2.29351042       3.11273138       5.03644207
Si       4.00082174       5.20466885       1.89329117
Si       3.59313373      -0.47100036       5.69229224
Si       2.48500566       7.17015388       0.67669063
Si       1.14106110       3.68688652       0.22762618
Si       1.76574762      -1.69876572       6.69955955
Si       2.33821262       2.29321001       3.92303527
Si       5.44781328       3.47299892      -0.94389219
Si       0.95877587       3.75236295       2.60749833
Si       3.09599647       0.03652272       3.40205915
Si       4.21440063       3.37662975       7.29167115
Si       1.07267328       1.89868005       5.91907646
Si      -0.81884191       4.52569530       3.88579220
Si      -1.46030464       2.80645047       9.73161440
Si       3.54924789       3.43766585       0.43155988
Si      -1.49526236       5.82420853       0.12195389
18
Lattice="6.232081406815782 0.589450461826457 -0.06646981940131375 -1.2280587354734818 5.939638431722007 -0.5446837341709463 -2.283664591465525 -3.1112744347741588 10.181282344566693" Properties=species:S:1:pos:R:3 unique_starting_index=108 config_type=initial n_minim_iter=13 stress="-0.000705845627467073 0.0005585217391025778 -1.2555206932265229e-05 0.0005585217391025778 0.0005516259398521451 -0.000367739178556697 -1.2555206932265229e-05 -0.000367739178556697 -0.00018283197198277722" pbc="T T T"
Si       3.28076045      -1.87291659       8.57087081
Si       3.07449072       1.30822179       7.10512663
Si      -2.29287782       3.13115250       5.03088912
Si       3.98228758       5.20210091       1.89380469
Si       3.58082566      -0.49115502       5.70018562
Si       2.46247166       7.18077861       0.67205103
Si       1.13133624       3.69985019       0.22877412
Si       1.77067592      -1.73065746       6.71254433
Si       2.33369878       2.29272497       3.91745285
Si       5.43155427       3.46665313      -0.94247184
Si       0.94481419       3.75674034       2.60421386
Si       3.09400427       0.02555869       3.40614454
Si       4.20740658       3.36044374       7.28915109
Si       1.07402422       1.88480752       5.91059810
Si      -0.82273102       4.55049153       3.88060774
Si      -1.45365714       2.80809734       9.72704880
Si       3.53744537       3.43664808       0.43137069
Si      -1.51012820       5.83209667       0.10993150
18
Lattice="6.198936423182762 0.5475956646805705 -0.04907972188019107 -1.2657056321624272 5.968818569917038 -0.5576824836533664 -2.221179609180669 -3.1203513115279913 10.192149955065638" Properties=species:S:1:pos:R:3 unique_starting_index=108 config_type=initial n_minim_iter=14 stress="-0.000971249533646523 -0.0012914164580045133 0.0008693829258226801 -0.0012914164580045133 0.0014839864177437164 -0.000983316669775592 0.0008693829258226801 -0.000983316669775592 -0.00016373001119040264" pbc="T T T"
Si       3.32183454      -1.90750246       8.60510454
Si       3.07287715       1.26523689       7.11519942
Si      -2.30033910       3.19119407       5.02610954
Si       3.94068668       5.18135954       1.90941757
Si       3.54153250      -0.53689675       5.72015319
Si       2.40113623       7.19001953       0.67437750
Si       1.10729492       3.72711947       0.24217167
Si       1.78529496      -1.81200664       6.75750283
Si       2.32469841       2.29653085       3.90715187
Si       5.39709787       3.43561874      -0.93829266
Si       0.91200661       3.75823645       2.59979315
Si       3.09474913       0.00179156       3.42185711
Si       4.19267821       3.31529473       7.29625961
Si       1.08578714       1.83827548       5.89537667
Si      -0.83954121       4.63112229       3.88315767
Si      -1.44159199       2.82321037       9.73051285
Si       3.51160103       3.42406262       0.43840841
Si      -1.56033042       5.83434964       0.08609439
18
Lattice="6.166421063946389 0.5172815016032694 -0.03919769256378476 -1.289431909665126 5.974752081772441 -0.5558824823255569 -2.179533818108229 -3.100136135574429 10.217383441477041" Properties=species:S:1:pos:R:3 unique_starting_index=108 config_type=initial n_minim_iter=15 stress="0.00022863934763887896 1.039601598767177e-05 0.0001682085815942665 1.039601598767177e-05 5.959708548856935e-05 0.00033434282980005593 0.0001682085815942665 0.00033434282980005593 0.00043683327287089024" pbc="T T T"
Si       3.35805756      -1.90549071       8.65000523
Si       3.06495212       1.22917982       7.13273913
Si      -2.31548671       3.27996433       5.04180906
Si       3.91356272       5.15298138       1.94458693
Si       3.46057932      -0.56795599       5.73924354
Si       2.35401387       7.18927823       0.69716769
Si       1.09452443       3.75924234       0.26683693
Si       1.78126774      -1.91292699       6.83483485
Si       2.32139701       2.31909612       3.89264834
Si       5.38249173       3.40232506      -0.93972551
Si       0.87586202       3.75768959       2.61096447
Si       3.09294456      -0.00387693       3.44120000
Si       4.18047909       3.27621733       7.31149466
Si       1.10332883       1.77037015       5.87537603
Si      -0.84891817       4.75760576       3.90896306
Si      -1.44056620       2.85362481       9.75831897
Si       3.50022108       3.40985204       0.45248602
Si      -1.61099163       5.79550245       0.07039760
18
Lattice="6.130686031107772 0.4694852192043375 -0.026912796433380164 -1.328637050084559 5.973786976101135 -0.5635376938537486 -2.1237693577921815 -3.083813512484693 10.239351494529904" Properties=species:S:1:pos:R:3 unique_starting_index=108 config_type=initial n_minim_iter=16 stress="0.0020096318650095215 0.0015764834997613743 -0.0012758031619540702 0.0015764834997613743 -0.001192563495637906 0.0016933671737605475 -0.0012758031619540702 0.0016933671737605475 0.0006988211157942759" pbc="T T T"
Si       3.40898904      -1.92580894       8.68915533
Si       3.05807423       1.16370576       7.14265012
Si      -2.33889635       3.38055486       5.04884352
Si       3.87724162       5.10286552       1.98379843
Si       3.36068312      -0.62196949       5.74453953
Si       2.28803517       7.17432766       0.71735786
Si       1.07363708       3.78198195       0.27816546
Si       1.78506168      -2.05945918       6.93641204
Si       2.32148068       2.33029846       3.86779730
Si       5.35876671       3.35492610      -0.94553911
Si       0.82754227       3.74849893       2.62404188
Si       3.09191322      -0.01914494       3.46061850
Si       4.16663067       3.20828429       7.31385892
Si       1.12727219       1.65667275       5.83388577
Si      -0.86415118       4.91277675       3.92737962
Si      -1.44425616       2.86802812       9.77180641
Si       3.48059735       3.38167781       0.46753615
Si      -1.68630571       5.74073433       0.04105027
18
Lattice="6.103638457666115 0.42628283431557057 -0.01507862402714993 -1.36466522387962 5.967251447690121 -0.5768366247215158 -2.0734175939702277 -3.0773976668450183 10.25309242334292" Properties=species:S:1:pos:R:3 unique_starting_index=108 config_type=initial n_minim_iter=17 stress="0.002678187157121087 0.0021091094321112423 -0.002083273229313953 0.0021091094321112423 -0.0028546093205928315 0.0021098891533039557 -0.002083273229313953 0.0021098891533039557 -3.6747027061780055e-05" pbc="T T T"
Si       3.45066387      -1.95604187       8.71337739
Si       3.05811288       1.10115179       7.14652002
Si      -2.35354327       3.44462596       5.04726592
Si       3.84698826       5.05719204       2.01115397
Si       3.29235643      -0.67397073       5.74123628
Si       2.23067115       7.15161269       0.72792010
Si       1.05207310       3.78372276       0.27516189
Si       1.79736538      -2.17708597       7.01348776
Si       2.32201104       2.32591667       3.85007702
Si       5.32971768       3.31515903      -0.95056317
Si       0.78954169       3.73405655       2.63121627
Si       3.09182956      -0.03680519       3.47269277
Si       4.15726577       3.14679470       7.31089728
Si       1.14692545       1.55703184       5.79950129
Si      -0.87529522       5.01754760       3.93216031
Si      -1.44503005       2.86008248       9.77190359
Si       3.45761386       3.35366352       0.47846573
Si      -1.74832380       5.70001996       0.01382751
18
Lattice="6.11866193969005 0.4257890156780788 -0.020387676416053904 -1.3644216317145061 5.935272779889155 -0.5827885670764117 -2.087812715003096 -3.07414166494095 10.24921486742685" Properties=species:S:1:pos:R:3 unique_starting_index=108 config_type=initial n_minim_iter=18 stress="0.0014926392940819348 0.0020759952143086647 -0.0027450116878142273 0.0020759952143086647 -0.004657519534297444 0.0022872881891738794 -0.0027450116878142273 0.0022872881891738794 -0.001475552573190797" pbc="T T T"
Si       3.44019206      -1.95910648       8.69254733
Si       3.07215241       1.08453985       7.13215834
Si      -2.34289547       3.40122481       5.04397908
Si       3.86167976       5.04635187       2.00643130
Si       3.30769570      -0.68364883       5.70856024
Si       2.23287727       7.11600620       0.72508444
Si       1.04796175       3.73188496       0.24659372
Si       1.80303347      -2.16323895       6.99977475
Si       2.32482799       2.30185067       3.86128078
Si       5.31483555       3.31967203      -0.95953035
Si       0.80058030       3.70944613       2.62798935
Si       3.09126498      -0.03669352       3.45942465
Si       4.15773201       3.14353691       7.30508973
Si       1.14877478       1.53874271       5.80778516
Si      -0.86036701       4.97068619       3.92094484
Si      -1.45139255       2.81213601       9.75902998
Si       3.44707968       3.34252523       0.47894512
Si      -1.74700365       5.69451179       0.01868382
18
Lattice="6.095682711245206 0.3797058741306122 -0.00034089422762201423 -1.4076265450323422 5.955164841312504 -0.6191790687073095 -2.019498755531954 -3.1143331306796105 10.269740845848366" Properties=species:S:1:pos:R:3 unique_starting_index=108 config_type=initial n_minim_iter=19 stress="0.001787422515562691 0.0011309776020606444 -0.001692716844193923 0.0011309776020606444 -0.0009524904955171516 0.00038548547503342744 -0.001692716844193923 0.00038548547503342744 0.0005882094437051539" pbc="T T T"
Si       3.47563978      -2.04395176       8.71223728
Si       3.08752477       1.01697469       7.14319539
Si      -2.33070515       3.43165324       5.02445507
Si       3.82878767       5.03138381       2.01850675
Si       3.29559218      -0.76531588       5.71471728
Si       2.17512488       7.11758712       0.71635356
Si       1.01452998       3.71216282       0.21074562
Si       1.83911965      -2.28556227       7.06549968
Si       2.33207033       2.26864702       3.86085402
Si       5.25938505       3.29909209      -0.95789435
Si       0.76011684       3.70689936       2.63091000
Si       3.09682089      -0.06528877       3.46166839
Si       4.16680482       3.09598812       7.30568775
Si       1.15530953       1.45210597       5.78270836
Si      -0.86034848       5.02048034       3.90121103
Si      -1.44230425       2.76660825       9.74341756
Si       3.40843151       3.32943810       0.48418031
Si      -1.80189855       5.70842237      -0.01811888
18
Lattice="6.087083909892224 0.36897233406297036 0.011575851030533593 -1.419324080353459 5.975375361058103 -0.6323612823434683 -1.9894183763384006 -3.1376771388046616 10.26170700070394" Properties=species:S:1:pos:R:3 unique_starting_index=108 config_type=initial n_minim_iter=20 stress="0.0005604535266913669 0.00047587313048766384 0.0004719634033917612 0.00047587313048766384 0.0025816919504326004 -0.0004566152315546778 0.0004719634033917612 -0.0004566152315546778 0.0012727339342853703" pbc="T T T"
Si       3.47779334      -2.08066698       8.70836126
Si       3.09570951       1.01675687       7.14516115
Si      -2.30824278       3.41762399       5.00882499
Si       3.81432191       5.05224983       2.01306581
Si       3.33419271      -0.79117564       5.72615291
Si       2.16097756       7.13136573       0.70762064
Si       1.00109706       3.69863645       0.19851364
Si       1.85839581      -2.29367123       7.05153334
Si       2.33437180       2.24928687       3.87078100
Si       5.22566714       3.29616925      -0.94773172
Si       0.75107176       3.71575164       2.62477932
Si       3.10174416      -0.07377630       3.45330451
Si       4.17788286       3.10600741       7.30343698
Si       1.14565700       1.45875083       5.78149526
Si      -0.85410847       4.98911219       3.88346952
Si      -1.42759822       2.75042218       9.72768224
Si       3.38809610       3.33787349       0.48476496
Si      -1.80319268       5.74726084      -0.02469249
18
Lattice="6.043620908241874 0.3122366215596252 0.03200162121062951 -1.4680833596831435 5.991689363029501 -0.6529077697478383 -1.91093349126166 -3.145883804442205 10.265974060251587" Properties=species:S:1:pos:R:3 unique_starting_index=108 config_type=initial n_minim_iter=21 stress="-0.001633163718634404 -0.0008633082835772254 0.0019085538647204995 -0.0008633082835772254 0.002254701114112006 -0.0011965678112397338 0.0019085538647204995 -0.0011965678112397338 -0.00027063265563378384" pbc="T T T"
Si       3.51265206      -2.14313977       8.73129997
Si       3.08979153       0.96854971       7.15186681