18
Lattice="5.990522097438981 0.14117921865912092 -0.11949235396881563 -1.6118063519417825 6.08258275060511 -0.8569381945432023 -2.046224572626761 -3.539261564786401 10.251945660840384" Properties=species:S:1:pos:R:3 unique_starting_index=108 config_type=initial n_minim_iter=1 energy=-2931.0208062587785 free_energy=-2931.0208062587785 pbc="T T T"
Si       3.33241973      -2.69774846       8.75438510
Si       2.92004677       0.50642438       6.72996397
Si      -2.22100221       3.19571042       4.89042377
Si       3.55452193       5.07211338       1.50105521
Si       3.40882695      -1.53257721       5.77644282
Si       1.59669830       7.72119741       0.44867115
Si       0.62171399       3.99779313      -0.00396775
Si       1.85298180      -3.16429451       6.89814982
Si       2.49849904       1.70463023       3.49812875
Si       4.86662787       3.13923734      -1.39394634
Si       0.49467565       3.15160327       2.27407302
Si       3.14994239      -0.74835698       3.58733108
Si       3.92323829       2.57316823       7.14591173
Si       1.13219884       0.81971374       5.26571287
Si      -1.01653095       4.68344665       3.46098896
Si      -1.95107037       2.71765648       9.77260321
Si       2.94347221       3.46697492      -0.04820190
Si      -2.21633094       6.81271764       0.22447910
18
Lattice="5.975172875554534 0.13324240966749112 -0.12170113478231522 -1.6139681900233915 6.028729457154537 -0.8478160141908675 -2.041162170498758 -3.4899745165918077 10.255549587189325" Properties=species:S:1:pos:R:3 unique_starting_index=108 config_type=initial n_minim_iter=2 stress="-0.0032704170882407305 -0.00020930085386626298 -9.431434841481407e-05 -0.00020930085386626298 -0.006493408140157721 0.00028915889937722756 -9.431434841481407e-05 0.00028915889937722756 -0.0034601231383940578" pbc="T T T"
Si       3.32314849      -2.66377783       8.75664870
Si       2.90770642       0.50849254       6.73788226
Si      -2.22028517       3.17514074       4.90079928
Si       3.53875706       5.02762053       1.50927787
Si       3.39784332      -1.51453078       5.77844149
Si       1.58533452       7.65281639       0.45668789
Si       0.61364367       3.95887704       0.00121485
Si       1.84926430      -3.12663187       6.89779268
Si       2.48850768       1.69341347       3.50603515
Si       4.85080927       3.10505098      -1.39104942
Si       0.48561756       3.12270672       2.27954805
Si       3.14296412      -0.73891703       3.58527238
Si       3.91043861       2.56002462       7.15486427
Si       1.12401391       0.81978472       5.27040614
Si      -1.02136060       4.64730730       3.46945032
Si      -1.95354107       2.70530381       9.78133129
Si       2.93527085       3.43439494      -0.04439704
Si      -2.21234540       6.75497034       0.23794360
18
Lattice="5.992567545775841 0.11932329734839583 -0.12710485190163703 -1.6312579642999303 6.00474769623526 -0.8385280582036995 -2.047016409189076 -3.439917897476952 10.370415889073339" Properties=species:S:1:pos:R:3 unique_starting_index=108 config_type=initial n_minim_iter=3 stress="0.004075843644902841 -0.0013867120605844292 -0.0003555105481822567 -0.0013867120605844292 -0.004067888423838218 0.0019988369124616374 -0.0003555105481822567 0.0019988369124616374 0.008331102109779394" pbc="T T T"
Si       3.33138805      -2.63318399       8.85444195
Si       2.90388458       0.51925486       6.82878467
Si      -2.23564188       3.17569947       4.97435399
Si       3.53518429       5.01137047       1.54352312
Si       3.40133473      -1.50028681       5.84445390
Si       1.57734149       7.62372885       0.47411387
Si       0.60001792       3.93176285       0.01092796
Si       1.85705226      -3.09307574       6.96928724
Si       2.48823769       1.69625386       3.56301061
Si       4.85686935       3.08220821      -1.39775193
Si       0.46644085       3.10285017       2.31299126
Si       3.15684554      -0.72928384       3.61554329
Si       3.92091842       2.57446115       7.24973187
Si       1.11358544       0.83200569       5.33504008
Si      -1.04049216       4.63870263       3.52025114
Si      -1.97475592       2.71211246       9.89545172
Si       2.94628547       3.41998116      -0.03865065
Si      -2.21386135       6.73454708       0.27011648
18
Lattice="5.943349032333286 0.1251598543487044 -0.1267649833630626 -1.613028255796745 6.04060932468299 -0.8408078601294815 -2.033513269259066 -3.476372143013149 10.305181026181332" Properties=species:S:1:pos:R:3 unique_starting_index=108 config_type=initial n_minim_iter=4 stress="-0.002668088909517387 0.00010686695547644242 0.0007893772248364203 0.00010686695547644242 0.0005345659438143753 0.00227628971998712 0.0007893772248364203 0.00227628971998712 0.00048354377118731476" pbc="T T T"
Si       3.29987195      -2.65896647       8.80262376
Si       2.86701325       0.51303396       6.80039336
Si      -2.21214078       3.17524926       4.94279196
Si       3.50651507       5.05579660       1.53337014
Si       3.36181672      -1.51796688       5.81113273
Si       1.57797300       7.67666829       0.44423624
Si       0.58651078       3.93588021       0.00309297
Si       1.83950924      -3.11255391       6.92477457
Si       2.46677925       1.71171066       3.55464839
Si       4.81410041       3.11637150      -1.38514868
Si       0.44208452       3.09402077       2.28621486
Si       3.14061191      -0.73179382       3.57772102
Si       3.90845963       2.60623667       7.20326997
Si       1.09052753       0.83435465       5.29688483
Si      -1.03496360       4.65627403       3.47826999
Si      -1.96092092       2.68479455       9.79895917
Si       2.94223240       3.45726018      -0.04749271
Si      -2.15312345       6.77833535       0.27212756
18
Lattice="5.973740204033913 0.12350902966817144 -0.14111344602798442 -1.6213017178206879 6.033214239516664 -0.8732465364810905 -2.066167459060578 -3.5327707263985872 10.304061021669073" Properties=species:S:1:pos:R:3 unique_starting_index=108 config_type=initial n_minim_iter=5 stress="-0.00010059230989989913 -0.0007295418204425063 -0.001129344833180065 -0.0007295418204425063 -0.0005154741877000803 -0.0017589626745807198 -0.001129344833180065 -0.0017589626745807198 -0.00019737208708972117" pbc="T T T"
Si       3.29705184      -2.70899646       8.78963153
Si       2.86200532       0.46939390       6.77684613
Si      -2.23456752       3.13593925       4.91627669
Si       3.51875516       5.03753975       1.48946051
Si       3.36323074      -1.55222601       5.79707033
Si       1.58380517       7.65561525       0.38691295
Si       0.58673423       3.91981041      -0.02284633
Si       1.83375346      -3.14795575       6.92109816
Si       2.47044643       1.68614426       3.53050456
Si       4.83897632       3.11762114      -1.41126724
Si       0.43077475       3.06427615       2.25658722
Si       3.14948956      -0.75288448       3.56301717
Si       3.91579471       2.55929761       7.15887951
Si       1.07917752       0.79932777       5.27492026
Si      -1.05091571       4.62292814       3.43882660
Si      -1.99237358       2.61061533       9.75253369
Si       2.95929927       3.45525080      -0.07691214
Si      -2.15585836       6.76631267       0.23820784
18
Lattice="6.00800479128682 0.14167782526990336 -0.12369695553894876 -1.6139828141140071 6.0134064093143 -0.8674961019194395 -2.0599970904261347 -3.5184528220921565 10.260956727806276" Properties=species:S:1:pos:R:3 unique_starting_index=108 config_type=initial n_minim_iter=6 stress="0.0034071541869743513 0.0012050719814462251 0.0009995044180825792 0.0012050719814462251 -0.0005510066174016372 0.0002991678182706048 0.0009995044180825792 0.0002991678182706048 -0.0022761774211047733" pbc="T T T"
Si       3.33269116      -2.67955906       8.77056754
Si       2.89234305       0.49186974       6.77105937
Si      -2.22136936       3.12857107       4.90195679
Si       3.55932879       5.04691871       1.50134984
Si       3.39046097      -1.53082493       5.78326608
Si       1.61996863       7.63935025       0.39603304
Si       0.60504261       3.90025218      -0.01304664
Si       1.85244737      -3.12282431       6.89957601
Si       2.49919532       1.69369398       3.52648675
Si       4.86859749       3.12335294      -1.38897095
Si       0.43742186       3.04656250       2.24915291
Si       3.17395741      -0.73593345       3.55825514
Si       3.97232709       2.58107613       7.15035374
Si       1.09699908       0.80708923       5.26300176
Si      -1.03382614       4.60921409       3.42844774
Si      -1.96109212       2.59998127       9.70884278
Si       2.98800815       3.46672887      -0.06518315
Si      -2.12976462       6.75400882       0.25001517
18
Lattice="5.956237095065893 0.1417560145250927 -0.12539646260748774 -1.599752447949715 6.003837461232477 -0.8798406606361191 -2.043737644893963 -3.524331846270792 10.33078735464183" Properties=species:S:1:pos:R:3 unique_starting_index=108 config_type=initial n_minim_iter=7 stress="-0.0005938562811046306 0.0011454920142979796 0.0014371347746105635 0.0011454920142979796 0.0013319893910449065 -0.0011259105142161822 0.0014371347746105635 -0.0011259105142161822 0.001362407517184405" pbc="T T T"
Si       3.30514754      -2.67778855       8.83954871
Si       2.84305497       0.51161772       6.83363025
Si      -2.19798787       3.12370383       4.94210240
Si       3.53002922       5.06390346       1.50690483
Si       3.34980900      -1.53408373       5.80890291
Si       1.61111238       7.60429407       0.37795228
Si       0.61393058       3.84869897      -0.00634060
Si       1.83028766      -3.11094628       6.94632929
Si       2.47454438       1.68187218       3.53458251
Si       4.81369645       3.11622608      -1.40011231
Si       0.39393433       2.98607676       2.24199984
Si       3.13715589      -0.73680383       3.57909338
Si       3.95190509       2.58569512       7.18944926
Si       1.07088193       0.79635970       5.29994630
Si      -1.02838954       4.58107314       3.44015636
Si      -1.91566241       2.55254886       9.73711172
Si       2.96036875       3.49605543      -0.07384868
Si      -2.05844174       6.78020819       0.28089685
18
Lattice="5.96530571625236 0.12766061599207082 -0.14353137817954725 -1.6135273205126004 6.008363261078232 -0.855294673262822 -2.070864493894154 -3.492120568467274 10.302592051986073" Properties=species:S:1:pos:R:3 unique_starting_index=108 config_type=initial n_minim_iter=8 stress="0.0009583230519584226 -0.0008350650222755975 -0.00096617988917823 -0.0008350650222755975 0.0014790292101191185 0.00119132639271924 -0.00096617988917823 0.00119132639271924 -0.0009356457826161867" pbc="T T T"
Si       3.28988484      -2.66115590       8.80119946
Si       2.82374970       0.52920560       6.80852625
Si      -2.22493978       3.14753312       4.94624403
Si       3.51986445       5.06475970       1.50670794
Si       3.34020216      -1.52344831       5.77747828
Si       1.59415522       7.60252214       0.39406742
Si       0.60912443       3.84658023       0.00447664
Si       1.81775150      -3.09581770       6.91569166
Si       2.46286229       1.68505314       3.51783734
Si       4.81720163       3.10149016      -1.40455619
Si       0.37939845       2.98856745       2.24281493
Si       3.12763763      -0.73552948       3.56131444
Si       3.92745468       2.59637226       7.16538914
Si       1.05495509       0.80826138       5.28687143
Si      -1.05047515       4.59400361       3.45034072
Si      -1.94879626       2.58577495       9.72842812
Si       2.95409350       3.49131902      -0.07079173
Si      -2.07700879       6.79588811       0.30995256
18
Lattice="5.9650251013585045 0.13863082818278885 -0.13560933341698017 -1.6033829612063566 5.999137903486183 -0.8630210066370199 -2.063327732782828 -3.499911127955069 10.311673350390258" Properties=species:S:1:pos:R:3 unique_starting_index=108 config_type=initial n_minim_iter=9 stress="0.00023869439920059894 0.0001602726691003119 -0.0003331308907575606 0.0001602726691003119 -0.0007382837905449265 0.00037568964481787077 -0.0003331308907575606 0.00037568964481787077 0.0002926954635025366" pbc="T T T"
Si       3.29990932      -2.65867885       8.81589904
Si       2.83715929       0.53316223       6.80780497
Si      -2.21731207       3.14296799       4.94128111
Si       3.53247111       5.06337001       1.50854599
Si       3.34745411      -1.51109767       5.78548031
Si       1.60784426       7.59263726       0.39308857
Si       0.62187000       3.84659175       0.00342106
Si       1.82053077      -3.09488216       6.92805181
Si       2.46948277       1.68042455       3.51056114
Si       4.82041194       3.10483894      -1.40582310
Si       0.39428629       2.98257206       2.24458263
Si       3.11927332      -0.73565544       3.57618017
Si       3.93249421       2.58520695       7.16994419
Si       1.06941496       0.80356522       5.29217415
Si      -1.03211858       4.58261892       3.45503191
Si      -1.92031680       2.57713358       9.74265301
Si       2.95437069       3.48456634      -0.06262882
Si      -2.07217394       6.79406283       0.30339337
18
Lattice="5.956772968466133 0.12102602040023966 -0.10991172882181907 -1.6234598075908455 6.012304769231103 -0.8848532426725857 -2.005901649930535 -3.5249542488258583 10.2935338424312" Properties=species:S:1:pos:R:3 unique_starting_index=108 config_type=initial n_minim_iter=10 stress="-0.0007372202394375635 -0.0013385024647042706 0.0011991658330476227 -0.0013385024647042706 -0.002968297523457456 -0.0012725629218063692 0.0011991658330476227 -0.0012725629218063692 -0.0007228837188350202" pbc="T T T"
Si       3.35080262      -2.69558364       8.82760059
Si       2.85883531       0.51391836       6.79642193
Si      -2.21888045       3.14601662       4.90674626
Si       3.51742151       5.06647994       1.51621611
Si       3.36756564      -1.51297251       5.79388210
Si       1.59229017       7.59304162       0.36514961
Si       0.60790825       3.83921598      -0.00596099
Si       1.85774853      -3.11584054       6.93412659
Si       2.46911936       1.66351326       3.49556832
Si       4.79236563       3.10196364      -1.39627765
Si       0.39030563       2.94489149       2.23308507
Si       3.10848137      -0.76445423       3.58528912
Si       3.94278150       2.55153130       7.15889926
Si       1.08921174       0.78798748       5.28095024
Si      -1.02112546       4.57220058       3.43838701
Si      -1.85859871       2.54137072       9.71157454
Si       2.94730658       3.46537972      -0.04034904
Si      -2.07174896       6.84233868       0.29434415
18
Lattice="5.947728095935739 0.15224120249497888 -0.1375715371230807 -1.5852366190732574 6.018816111662097 -0.8702425644366899 -2.068173153075193 -3.5316443371617563 10.30654210921178" Properties=species:S:1:pos:R:3 unique_starting_index=108 config_type=initial n_minim_iter=11 stress="-0.0008241619239671902 0.0015750631577041662 -0.001111862889333513 0.0015750631577041662 -0.001209124297758735 -0.00044586123918497633 -0.001111862889333513 -0.00044586123918497633 4.7075279682496644e-05" pbc="T T T"
Si       3.29298264      -2.67347613       8.81748346
Si       2.82402647       0.53700232       6.78752170
Si      -2.22991446       3.14796959       4.92206083
Si       3.52956125       5.10540433       1.51321021
Si       3.32516852      -1.48436655       5.78414131
Si       1.63302941       7.62458041       0.36142377
Si       0.62237281       3.85076535      -0.00652929
Si       1.80806466      -3.10384766       6.92828001
Si       2.45447311       1.68823069       3.48903551
Si       4.80569377       3.13702486      -1.41771894
Si       0.39435892       2.94671361       2.23807625
Si       3.07583990      -0.74851389       3.56828936
Si       3.91674447       2.58980883       7.14810397
Si       1.06559053       0.80499199       5.27930223
Si      -1.00913463       4.58189525       3.45077523
Si      -1.88264456       2.54108091       9.72987145
Si       2.96706155       3.48474710      -0.04257391
Si      -2.02555744       6.85755727       0.31855274
18
Lattice="5.948388181290697 0.13443866938306756 -0.1254380161824361 -1.6055737106401569 6.0354700155829795 -0.8679965894854695 -2.0375251465420283 -3.5242454715098974 10.294765546228197" Properties=species:S:1:pos:R:3 unique_starting_index=108 config_type=initial n_minim_iter=12 stress="0.0001852235817661259 0.00018955210518262685 -6.095521943191201e-07 0.00018955210518262685 0.0008437660930015283 0.00018862626201773607 -6.095521943191201e-07 0.00018862626201773607 0.00030717248784763477" pbc="T T T"
Si       3.31918726      -2.68030995       8.81789082
Si       2.83718664       0.53267616       6.79253547
Si      -2.23286352       3.16268964       4.91703527
Si       3.51657863       5.10719822       1.52475457
Si       3.34123794      -1.49406096       5.78944571
Si       1.61289663       7.63548973       0.37153859
Si       0.60886435       3.85766498      -0.00274410
Si       1.83313998      -3.11027139       6.92655192
Si       2.45614575       1.69022440       3.49651878
Si       4.79536382       3.12885283      -1.40570781
Si       0.39197776       2.95489010       2.24177546
Si       3.08630298      -0.75610461       3.56815803
Si       3.92588644       2.59065858       7.15552363
Si       1.07195314       0.80981701       5.27854198
Si      -1.01640966       4.59814001       3.44961809
Si      -1.87511553       2.55905781       9.72277090
Si       2.95954374       3.48454550      -0.03374696
Si      -2.04486173       6.87223550       0.31922003
18
Lattice="5.946726148342029 0.11393985036006289 -0.11320302418157462 -1.627912065652781 6.048539953187357 -0.863658956767113 -2.004625447563224 -3.511202824084454 10.274209221749027" Properties=species:S:1:pos:R:3 unique_starting_index=108 config_type=initial n_minim_iter=13 stress="0.0008433448210389457 -0.0016457579430721426 0.0008273721789653329 -0.0016457579430721426 0.0009463725279813067 0.00044621714724592346 0.0008273721789653329 0.00044621714724592346 -0.00012541358616736535" pbc="T T T"
Si       3.34961253      -2.67604219       8.81514527
Si       2.84511919       0.53499798       6.79397520
Si      -2.25123992       3.17808014       4.90568890
Si       3.49793463       5.11565058       1.54155632
Si       3.35238809      -1.49571344       5.79064802
Si       1.59746975       7.62788254       0.38204336
Si       0.59702104       3.85088749       0.00438471
Si       1.86174448      -3.11007996       6.92218630
Si       2.45031376       1.69564204       3.49315003
Si       4.77964548       3.11493787      -1.39826715
Si       0.38695512       2.94165528       2.24442803
Si       3.07907210      -0.76614208       3.55735997
Si       3.93553999       2.59153725       7.15312612
Si       1.07056704       0.81951788       5.27194603
Si      -1.02095432       4.60770762       3.44620498
Si      -1.85817283       2.56665757       9.70426034
Si       2.95257706       3.48932225      -0.01600254
Si      -2.04826403       6.88860134       0.33435180
18
Lattice="5.943001764541044 0.12770770448898136 -0.11773038004959724 -1.6124037054690377 6.061121267589469 -0.8548497500745057 -2.0194489853792983 -3.5149539429231766 10.259070234413818" Properties=species:S:1:pos:R:3 unique_starting_index=108 config_type=initial n_minim_iter=14 stress="-3.986800374845656e-06 -0.00022757551077993144 0.0003171732341728218 -0.00022757551077993144 0.0007241375564851349 0.00033839326020718846 0.0003171732341728218 0.00033839326020718846 -5.39326185311318e-05" pbc="T T T"
Si       3.34067031      -2.65590225       8.79969808
Si       2.84386500       0.55032742       6.77321936
Si      -2.27091898       3.18778611       4.89408983
Si       3.50243311       5.14162716       1.54949992
Si       3.34026761      -1.47598831       5.78318677
Si       1.62373722       7.64168546       0.39322776
Si       0.60736931       3.86733292       0.00775777
Si       1.85445098      -3.10893447       6.91583331
Si       2.44095459       1.71856448       3.47771709
Si       4.78734836       3.13133429      -1.40538617
Si       0.41037731       2.95101254       2.25381329
Si       3.04837526      -0.76174954       3.54060959
Si       3.93045482       2.60809572       7.13590260
Si       1.06547415       0.83734602       5.26148098
Si      -1.00454308       4.62191879       3.45038551
Si      -1.85652863       2.58083350       9.70549281
Si       2.96295363       3.50279426      -0.00059538
Si      -2.03149404       6.89125208       0.34309884
18
Lattice="5.944518116791153 0.14196715723707587 -0.12436750644982672 -1.5971227419091782 6.049220605203278 -0.8558290477639371 -2.039562056464812 -3.519594643108282 10.26301376932211" Properties=species:S:1:pos:R:3 unique_starting_index=108 config_type=initial n_minim_iter=15 stress="-0.00031745918602206025 0.0006050141922333751 -0.0006483242550180165 0.0006050141922333751 -0.0008793201122823233 -0.0005014618708539052 -0.0006483242550180165 -0.0005014618708539052 8.456653429138775e-05" pbc="T T T"
Si       3.33103804      -2.64143831       8.80066058
Si       2.83272743       0.56402222       6.76745630
Si      -2.27803724       3.17937748       4.89348542
Si       3.51199441       5.14835953       1.55020212
Si       3.32373428      -1.46136487       5.77580335
Si       1.64886039       7.62464015       0.38314487
Si       0.62208181       3.85103972       0.00844158
Si       1.84112472      -3.09953105       6.92117552
Si       2.43387194       1.72409514       3.46479010
Si       4.79416388       3.13901529      -1.41085338
Si       0.41195683       2.92825319       2.25080205
Si       3.02638916      -0.75549981       3.53327882
Si       3.93443679       2.61303885       7.12436316
Si       1.05648723       0.83825907       5.26015343
Si      -0.99523439       4.60548196       3.45118502
Si      -1.85070222       2.55908808       9.70141663
Si       2.97701174       3.51081026       0.00202166
Si      -1.99750633       6.88288968       0.35186134
18
Lattice="5.954533106457686 0.13966356710841418 -0.10786513613117689 -1.604407994814442 6.050853871978113 -0.8484341998915287 -2.0143200355826405 -3.502778856133767 10.235777128800338" Properties=species:S:1:pos:R:3 unique_starting_index=108 config_type=initial n_minim_iter=16 stress="-4.737878638815433e-05 4.3563348757194425e-05 0.00016001918889938947 4.3563348757194425e-05 -0.000367456057833877 0.00018122072438126323 0.00016001918889938947 0.00018122072438126323 -0.0002489534487787933" pbc="T T T"
Si       3.37592624      -2.61769726       8.79150883
Si       2.85152184       0.58774829       6.75494581
Si      -2.28538541       3.19421295       4.87855961
Si       3.51262149       5.14297885       1.58450548
Si       3.32561204      -1.44695860       5.76331649
Si       1.66360906       7.61465205       0.39199201
Si       0.63042407       3.84326867       0.01982968
Si       1.87085012      -3.08800881       6.93089192
Si       2.42586846       1.74553212       3.45895016
Si       4.79919312       3.14297613      -1.37838991
Si       0.42762159       2.92592098       2.25948298
Si       3.01220934      -0.74486637       3.52114535
Si       3.97420326       2.62772151       7.11581142
Si       1.06400180       0.85180377       5.25732522
Si      -0.98958581       4.60653056       3.45849845
Si      -1.82763923       2.57559418       9.68283954
Si       2.99811527       3.51189032       0.02927507
Si      -1.98499067       6.86169744       0.35207098
18
Lattice="5.961974773189838 0.1424623010074599 -0.09494100697243722 -1.6056272587673293 6.0596242445961925 -0.8485987143620873 -1.9966711759571554 -3.505449117628094 10.21890743810576" Properties=species:S:1:pos:R:3 unique_starting_index=108 config_type=initial n_minim_iter=17 stress="0.00017028595055447988 -0.00043124791812953155 0.00014418498312009556 -0.00043124791812953155 0.0010915065237195433 0.0002760993740246796 0.00014418498312009556 0.0002760993740246796 0.00048320701036343714" pbc="T T T"
Si       3.42137972      -2.60666085       8.78769439
Si       2.86349544       0.60924235       6.74749327
Si      -2.30207697       3.20894754       4.86184147
Si       3.51205265       5.14525460       1.61958364
Si       3.31281134      -1.43256105       5.74890181
Si       1.68947525       7.60948971       0.38358437
Si       0.64861142       3.83680034       0.02612869
Si       1.89620173      -3.08442044       6.95648565
Si       2.40965645       1.77062109       3.44376131
Si       4.80923413       3.16565940      -1.35938381
Si       0.43798046       2.91125795       2.26290260
Si       2.98173439      -0.73520996       3.50440415
Si       4.01356562       2.64050655       7.09788921
Si       1.06625333       0.85978391       5.25574636
Si      -0.98154744       4.60202832       3.46721416
Si      -1.79495922       2.57257815       9.66301663
Si       3.02098847       3.51559862       0.05771234
Si      -1.95949038       6.85180473       0.35000401
18
Lattice="5.980686751740566 0.15526733070875195 -0.09079970927442135 -1.5982919407388447 6.043939790032816 -0.8691076836957409 -2.002919279149347 -3.5356501629358874 10.214386149539214" Properties=species:S:1:pos:R:3 unique_starting_index=108 config_type=initial n_minim_iter=18 stress="9.109520360406236e-05 -5.9681570724770266e-05 -0.00037067861741923866 -5.9681570724770266e-05 -7.218760089255145e-05 -0.0003041446461431188 -0.00037067861741923866 -0.0003041446461431188 1.147216028013357e-05" pbc="T T T"
Si       3.45189001      -2.62742776       8.77857189
Si       2.87965152       0.59154229       6.75545839
Si      -2.31543446       3.18711008       4.84646467
Si       3.52948024       5.12353270       1.61697189
Si       3.30542770      -1.44264336       5.73644774
Si       1.71690312       7.58603280       0.35384517
Si       0.67843032       3.83564413       0.01464890
Si       1.90974568      -3.09328909       6.98291697
Si       2.41630183       1.76895411       3.42801593
Si       4.85100736       3.19505591      -1.37670722
Si       0.42995431       2.89527615       2.24271037
Si       2.98368763      -0.72468631       3.49130704
Si       4.04566272       2.62161125       7.06912563
Si       1.07418661       0.83836448       5.25187576
Si      -0.97921340       4.56873919       3.45923031
Si      -1.77341827       2.52501432       9.63253751
Si       3.02994756       3.50209346       0.05058536
Si      -1.96042147       6.81558876       0.32194268
18
Lattice="5.9954290351895265 0.1656784749878305 -0.06850735966365219 -1.594925947826692 6.047847710443199 -0.8669820464592554 -1.9768607404931209 -3.534823502900507 10.169988224662928" Properties=species:S:1:pos:R:3 unique_starting_index=108 config_type=initial n_minim_iter=19 stress="4.977675269867693e-05 0.00032339439903692846 0.0004890630502252899 0.00032339439903692846 -0.0007696966403133903 0.0003581991002963398 0.0004890630502252899 0.0003581991002963398 7.999979886762977e-05" pbc="T T T"
Si       3.52080744      -2.59669179       8.76130136
Si       2.90839459       0.62282395       6.73612836
Si      -2.35099120       3.19989100       4.81648830
Si       3.54200656       5.13813704       1.65793858
Si       3.29691689      -1.41713809       5.71545583
Si       1.75944891       7.57080875       0.35681061
Si       0.70717212       3.83260249       0.02556725
Si       1.95357159      -3.08100838       7.00277081
Si       2.40862279       1.80196786       3.40306894
Si       4.87942325       3.21947680      -1.34853083
Si       0.43958852       2.87200967       2.23945752
Si       2.94983021      -0.70787420       3.45991515
Si       4.10297156       2.63943942       7.03646914
Si       1.08856020       0.85325329       5.24212675
Si      -0.95912246       4.55865512       3.46395600
Si      -1.71493501       2.51596779       9.58696034
Si       3.06412068       3.50584012       0.08391950
Si      -1.92904568       6.79690275       0.32833331
18
Lattice="6.011394003042155 0.1698376104757444 -0.05883605656396577 -1.596874458315028 6.061693034136346 -0.8753178377374813 -1.968493168582174 -3.56021036179864 10.126307869838927" Properties=species:S:1:pos:R:3 unique_starting_index=108 config_type=initial n_minim_iter=20 stress="-0.0005771508010905938 0.00018241707526965435 0.000962049193587194 0.00018241707526965435 -0.0005887058015161867 0.00042353022399647965 0.000962049193587194 0.00042353022399647965 -0.00030335495372330593" pbc="T T T"
Si       3.56907290      -2.60044259       8.73214385
Si       2.93102057       0.62486148       6.70532852
Si      -2.39308606       3.20189408       4.79352630
Si       3.55540646       5.15109187       1.65395119
Si       3.28461205      -1.42682449       5.68958000
Si       1.76948614       7.58132511       0.34926117
Si       0.72614633       3.85482897       0.02516057
Si       1.99043026      -3.09424501       7.00805656
Si       2.41603766       1.80825360       3.38399664
Si       4.92357763       3.23457276      -1.32396105
Si       0.40951909       2.86748265       2.20955539
Si       2.95311077      -0.69764327       3.42699153
Si       4.13094370       2.63589369       6.99139193
Si       1.11086909       0.84763919       5.22945412
Si      -0.96163873       4.54911988       3.45364591
Si      -1.68618880       2.49667138       9.52308688
Si       3.08816822       3.49839895       0.06945458
Si      -1.93993323       6.79214628       0.31741079
18
Lattice="6.019888515165398 0.17241232339295084 -0.08197828071819653 -1.5935470396593883 6.069929016062985 -0.8812188603953242 -2.011648153167375 -3.5855614036507064 10.14009249537865" Properties=species:S:1:pos:R:3 unique_starting_index=108 config_type=initial n_minim_iter=21 stress="0.0008921086039278484 -0.0002200440348538141 -0.0012808478481512264 -0.0002200440348538141 0.0009426560284868837 -0.0006785805889050726 -0.0012808478481512264 -0.0006785805889050726 0.00030722887235976835" pbc="T T T"
Si       3.54220936      -2.62220270       8.72581513
Si       2.91513234       0.60714611       6.69617818