18
Lattice="6.829957119516201 1.3042506413632172e-06 2.9665945177292856e-13 3.4149772857918634 6.671367768686852 -0.1987029826135071 3.4149781423746415 2.1857072146046606 6.426421273883809" Properties=species:S:1:pos:R:3 unique_starting_index=182 config_type=initial n_minim_iter=14 energy=-2929.7885078445042 free_energy=-2929.7885078445042 pbc="T T T"
Si       3.34515888       0.71248646       1.48508936
Si       6.76013687       3.71605229       1.62876979
Si      10.31475367       8.14458981       4.74262894
Si       6.89977568       5.14102398       4.59894851
Si       4.73787374       6.50982241       2.16360861
Si       8.15285225       6.77579056       7.17796883
Si       8.92203882       2.34725386       4.06410968
Si       5.50706031       2.08128572      -0.95025053
Si       3.16428508       3.12881236       1.95657385
Si      -0.25069313       1.29972502       1.15728530
Si      10.49562748       5.72826391       4.27114445
Si      13.91060569       7.55735125       5.07043300
Si       5.14403019       3.68254282       3.58357344
Si       1.72905219       0.74599532      -0.46971429
Si       8.51588236       5.17453345       2.64414486
Si      11.93086036       8.11108095       6.69743259
Si       5.12246763       1.09285425       3.21321064
Si       1.70748865       3.33568388      -0.09935149
