10
Lattice="3.6832370910331735 -0.18845729499638478 0.4483798673650933 1.6620507059056644 5.455514100953172 1.5348674517230012 0.7484968271857994 5.60943779829887 10.284626685304136" Properties=species:S:1:pos:R:3 unique_starting_index=160 config_type=initial n_minim_iter=1 energy=-1628.35411516183 free_energy=-1628.35411516183 pbc="T T T"
Si       4.35401623      10.71168845      10.67731547
Si       6.31509918      10.16273410       9.55178115
Si       2.39815279       0.94126798       3.43393240
Si       4.11741201       1.98609143       4.78459507
Si       1.49453542       4.33070004       3.74052181
Si       3.46745256       2.67544907       6.99364986
Si       3.54680914       3.68738335       2.28548907
Si       3.09923049       7.51967959       9.55337772
Si       1.72979001       2.30664410       1.55065423
Si       2.60891922       4.67484073       5.86164430
10
Lattice="3.670946024541168 -0.19959922460945673 0.4516419364306505 1.6408968605604677 5.46570161901812 1.5429589248987903 0.7367327242919464 5.630149316649489 10.30488315683076" Properties=species:S:1:pos:R:3 unique_starting_index=160 config_type=initial n_minim_iter=2 stress="-0.0013161592625208205 -0.000640024639993946 0.00022007125926735865 -0.000640024639993946 0.0003610056440261808 2.0389036709459112e-05 0.00022007125926735865 2.0389036709459112e-05 0.0007679216700339826" pbc="T T T"
Si       4.31434712      10.73427483      10.70483179
Si       6.27076117      10.17826124       9.57891424
Si       2.38862236       0.93817340       3.44261163
Si       4.09972969       1.98365670       4.79662990
Si       1.47761830       4.34066263       3.74939562
Si       3.45279015       2.67746517       7.00818403
Si       3.52417535       3.68818182       2.29622179
Si       3.07180732       7.53840146       9.57625624
Si       1.71962817       2.30858893       1.55586454
Si       2.59031625       4.68346434       5.87532607
10
Lattice="3.6830011994773297 -0.19944328435652173 0.4488978773158931 1.645751566284586 5.473211164267547 1.5434261083093566 0.735429254935309 5.646380295858233 10.281546263493034" Properties=species:S:1:pos:R:3 unique_starting_index=160 config_type=initial n_minim_iter=3 stress="0.002106606698130991 -0.00035338885363634737 -0.0005133281433757401 -0.00035338885363634737 0.001069889662763997 0.0003941406562758492 -0.0005133281433757401 0.0003941406562758492 -0.0007609549430541123" pbc="T T T"
Si       4.32538411      10.75525672      10.68427465
Si       6.29307946      10.20051543       9.55916341
Si       2.39235406       0.93938856       3.43651752
Si       4.10994806       1.99345002       4.78528660
Si       1.47652494       4.34994352       3.73801886
Si       3.46534437       2.68725089       6.98751837
Si       3.53434809       3.69569393       2.29747564
Si       3.07276355       7.55704925       9.55741180
Si       1.73018959       2.31194955       1.55252050
Si       2.59786357       4.69125981       5.85984113
10
Lattice="3.6739886275356906 -0.19477493247872935 0.4524109955146755 1.6496282325761245 5.462929895699937 1.5426785671170515 0.7503552000424752 5.631741247955215 10.276723181521366" Properties=species:S:1:pos:R:3 unique_starting_index=160 config_type=initial n_minim_iter=4 stress="-0.0012230514186678126 0.0004745417465315254 0.0001593523090466016 0.0004745417465315254 -0.0016582381694779345 1.3836630789956741e-05 0.0001593523090466016 1.3836630789956741e-05 -0.0030546491851205864" pbc="T T T"
Si       4.33949645      10.73320849      10.68124165
Si       6.30295708      10.18503426       9.55771475
Si       2.38780879       0.93643940       3.44093686
Si       4.10522635       1.99485831       4.78784654
Si       1.47713282       4.34217983       3.73199040
Si       3.46900292       2.68364229       6.98567610
Si       3.53188769       3.69200173       2.30402227
Si       3.07890816       7.54164397       9.55502670
Si       1.73479130       2.30834907       1.55288729
Si       2.60356794       4.67891215       5.85585195
10
Lattice="3.673991785629194 -0.19370859982660724 0.455301421557759 1.65204638769561 5.465276746288176 1.5466812113099624 0.7562808300079676 5.631537992160822 10.307605563215947" Properties=species:S:1:pos:R:3 unique_starting_index=160 config_type=initial n_minim_iter=5 stress="0.00013628784312726816 0.0006642262445640608 0.0003887949108023005 0.0006642262445640608 -0.00032516302269061637 -0.00016912161745557234 0.0003887949108023005 -0.00016912161745557234 0.0004773802222487232" pbc="T T T"
Si       4.34859184      10.73586805      10.71363080
Si       6.31259861      10.19020261       9.58680133
Si       2.38757427       0.93532894       3.45477971
Si       4.10658717       1.99707270       4.80415904
Si       1.47714768       4.34435887       3.74007391
Si       3.47336784       2.68431026       7.00734208
Si       3.53392790       3.69452788       2.31480678
Si       3.08289613       7.54325561       9.58399310
Si       1.73897484       2.30938204       1.55815067
Si       2.60778932       4.67753238       5.87173184
10
Lattice="3.6725046715929195 -0.19848761799189152 0.45232012456245535 1.6431543525360977 5.467237480881525 1.5466844068298247 0.7405766655800597 5.636948959290111 10.30822928708442" Properties=species:S:1:pos:R:3 unique_starting_index=160 config_type=initial n_minim_iter=6 stress="-0.0001533220355348854 -0.0001700609463342204 -0.00047284048252022666 -0.0001700609463342204 -0.00012574069908727963 1.6935292127503587e-05 -0.00047284048252022666 1.6935292127503587e-05 0.0007339310205316453" pbc="T T T"
Si       4.32596333      10.73972043      10.71320128
Si       6.29143536      10.19248603       9.58396530
Si       2.38181846       0.93369484       3.45481791
Si       4.09756677       1.99478242       4.80092512
Si       1.46619721       4.34742747       3.73841195
Si       3.46220806       2.68351502       7.00542060
Si       3.52630290       3.69348094       2.31434217
Si       3.06436126       7.54677263       9.58246660
Si       1.73580523       2.30899512       1.55840629
Si       2.59565901       4.67608535       5.86833963
10
Lattice="3.6735681818611856 -0.20483838677075394 0.4550826648668597 1.6358101200878559 5.478346360851132 1.5478109770200668 0.7409173793486096 5.6523732572265875 10.297602983114826" Properties=species:S:1:pos:R:3 unique_starting_index=160 config_type=initial n_minim_iter=7 stress="-0.00010151880685339149 -0.0009623027810613028 9.199403099918073e-05 -0.0009623027810613028 0.0011770504334710904 6.5684878559015e-05 9.199403099918073e-05 6.5684878559015e-05 0.0006162897824140066" pbc="T T T"
Si       4.32372132      10.76028911      10.70880866
Si       6.28939761      10.21336345       9.57988791
Si       2.38061027       0.93357907       3.45805294
Si       4.09608050       1.99540204       4.79814240
Si       1.45720354       4.36025519       3.73198969
Si       3.46126998       2.68685503       7.00174490
Si       3.52421370       3.69879576       2.31950408
Si       3.06183373       7.56260688       9.57314337
Si       1.73793543       2.31195777       1.56225737
Si       2.59172955       4.67638590       5.85765492
10
Lattice="3.6745250929691964 -0.20402787325675723 0.4535013962783241 1.6367380571413885 5.478648506493127 1.5483112099502228 0.7385894020087359 5.655603441673103 10.293551189364898" Properties=species:S:1:pos:R:3 unique_starting_index=160 config_type=initial n_minim_iter=8 stress="-0.00034349850542598684 -0.0007720341072969475 -0.000534614816390741 -0.0007720341072969475 0.0005285312524889165 0.00033536846079355756 -0.000534614816390741 0.00033536846079355756 0.0003910430859572954" pbc="T T T"
Si       4.33024238      10.76228932      10.70764329
Si       6.29671830      10.22154181       9.57505368
Si       2.37572548       0.93624721       3.46231149
Si       4.09238341       1.99877233       4.79336314
Si       1.44989128       4.36621986       3.72533772
Si       3.45680288       2.69073072       6.99947377
Si       3.52770247       3.70144437       2.32263919
Si       3.06113806       7.56459485       9.56644575
Si       1.74342172       2.31253200       1.56638979
Si       2.58865014       4.66678086       5.84567764
10
Lattice="3.6776166865277675 -0.20183533640512694 0.45567478832977476 1.6425931443035524 5.47660173806724 1.5449307438068007 0.7493210701249245 5.6472546817321785 10.284328674883229" Properties=species:S:1:pos:R:3 unique_starting_index=160 config_type=initial n_minim_iter=9 stress="2.3144617897302138e-06 -0.00021809314393427705 -7.466370649974926e-05 -0.00021809314393427705 8.904063288748436e-05 -8.360230183142245e-05 -7.466370649974926e-05 -8.360230183142245e-05 -4.5432148704080545e-05" pbc="T T T"
Si       4.35185300      10.75349417      10.69815771
Si       6.31845580      10.21806645       9.56642345
Si       2.37713093       0.93633604       3.46478037
Si       4.09820509       1.99778936       4.79151972
Si       1.45222816       4.36607331       3.71856957
Si       3.46430112       2.68816135       6.99724229
Si       3.53639298       3.70122386       2.32223477
Si       3.07467713       7.55620550       9.55708743
Si       1.74928307       2.31218167       1.56753300
Si       2.59531168       4.65633786       5.83550496
10
Lattice="3.6798894909148014 -0.19569441439387844 0.4580499352181562 1.653397891759177 5.476719224685513 1.547496945189387 0.7659364266682199 5.648837155575297 10.283605487255432" Properties=species:S:1:pos:R:3 unique_starting_index=160 config_type=initial n_minim_iter=10 stress="0.00023162148605438012 0.0011337140875437486 0.0003689854740506698 0.0011337140875437486 -0.0006593326917820479 -9.390973448205171e-06 0.0003689854740506698 -9.390973448205171e-06 -0.000450502550888732" pbc="T T T"
Si       4.38603617      10.75753481      10.70154213
Si       6.35190417      10.22892459       9.57128305
Si       2.37578979       0.94331095       3.47028829
Si       4.10535981       2.00441062       4.79464190
Si       1.45674176       4.37213482       3.71710222
Si       3.47626280       2.69587060       7.00184189
Si       3.55032816       3.70503660       2.32321396
Si       3.09473016       7.55741234       9.56012509
Si       1.75592805       2.31582653       1.57166033
Si       2.60422199       4.65088852       5.82935404
10
Lattice="3.6817425494292313 -0.20890089319280544 0.4603393233498072 1.6361397356569116 5.473666285973396 1.5420020181330227 0.7528111918831967 5.638676634079842 10.277539462277733" Properties=species:S:1:pos:R:3 unique_starting_index=160 config_type=initial n_minim_iter=11 stress="0.0005708970554815584 -5.8562526180006114e-05 0.000552211484900349 -5.8562526180006114e-05 -0.0008760154224983118 -0.0012414785050515074 0.000552211484900349 -0.0012414785050515074 -0.00035881553083078174" pbc="T T T"
Si       4.36749728      10.73903583      10.68617375
Si       6.33702307      10.20738017       9.56375343
Si       2.36084301       0.93682978       3.47660005
Si       4.09968532       1.98463544       4.80087915
Si       1.43446596       4.37428972       3.71027801
Si       3.47996621       2.68018424       7.00821049
Si       3.54840602       3.68849900       2.30961649
Si       3.07310501       7.53543134       9.56244909
Si       1.74650455       2.31498793       1.57025013
Si       2.58453807       4.62800202       5.81429741
10
Lattice="3.6777755076911 -0.21030126698072985 0.45856137888421383 1.6308722100993087 5.487990728617167 1.5534632790852558 0.7451867464514855 5.6731769345422425 10.28974864249483" Properties=species:S:1:pos:R:3 unique_starting_index=160 config_type=initial n_minim_iter=12 stress="-8.823751731796481e-05 1.9851806370915038e-05 0.00011850330352317494 1.9851806370915038e-05 0.0001712866062423659 -0.00017228430866680236 0.00011850330352317494 -0.00017228430866680236 -1.4755136006980402e-05" pbc="T T T"
Si       4.35810342      10.78285731      10.70613508
Si       6.32654799      10.24849887       9.58398879
Si       2.35062525       0.94752701       3.48052440
Si       4.09053681       1.99722963       4.80649509
Si       1.42393458       4.39429052       3.71736794
Si       3.47505623       2.70059877       7.01667766
Si       3.54527032       3.69806938       2.31210608
Si       3.06223479       7.56946877       9.58145612
Si       1.74202175       2.32397688       1.57539220
Si       2.57456470       4.64434439       5.81890647
10
Lattice="3.6783172816295213 -0.2158844417733552 0.45601762360597686 1.620301571280735 5.495017885847706 1.5686190170564978 0.7296050516330901 5.7079588178954195 10.30507369919348" Properties=species:S:1:pos:R:3 unique_starting_index=160 config_type=initial n_minim_iter=13 stress="-0.00017753479604191787 -0.0005220734553027712 -0.00013803180415951103 -0.0005220734553027712 -8.476868745765582e-05 0.0013822977740378059 -0.00013803180415951103 0.0013822977740378059 0.0006063760764649512" pbc="T T T"
Si       4.34567125      10.81693156      10.73005070
Si       6.31403027      10.27826628       9.60819251
Si       2.33539533       0.95974221       3.48873846
Si       4.07839503       2.00703693       4.81566486
Si       1.40029356       4.41244471       3.72247584
Si       3.47036022       2.72051768       7.03081221
Si       3.54435278       3.69852095       2.31302331
Si       3.04712250       7.59598898       9.60758775
Si       1.73653508       2.32966808       1.58389326
Si       2.56036578       4.64995965       5.82118248
10
Lattice="3.6754001823894016 -0.22011058865219493 0.44304278298282374 1.6100031593771422 5.521987258208804 1.5579031843659104 0.6909709869930081 5.733510854952618 10.277826151022543" Properties=species:S:1:pos:R:3 unique_starting_index=160 config_type=initial n_minim_iter=14 stress="-0.0016885749036580355 0.000510910998905578 -0.0015499625465403802 0.000510910998905578 0.002444301386248372 0.00038445399482632043 -0.0015499625465403802 0.00038445399482632043 -3.9149502509298055e-05" pbc="T T T"
Si       4.32549808      10.86710996      10.67564186
Si       6.29007361      10.32762340       9.55638987
Si       2.29899509       0.97361275       3.48727693
Si       4.04316614       2.01563846       4.80512263
Si       1.35318429       4.44141183       3.69321355
Si       3.45090731       2.73548892       7.02205747
Si       3.54460292       3.70486247       2.27741344
Si       3.01935380       7.62291581       9.58816392
Si       1.72604407       2.34223028       1.57893358
Si       2.53428445       4.64991724       5.78232186
10
Lattice="3.6951026469519723 -0.23637712574197622 0.42971358406931776 1.5903125667925566 5.515686689408325 1.5464917707930492 0.6372466760017339 5.729513079399286 10.241118959513624" Properties=species:S:1:pos:R:3 unique_starting_index=160 config_type=initial n_minim_iter=15 stress="-1.236585343368529e-05 0.00044591344461952613 0.0002559613141790944 0.00044591344461952613 0.0003252810963718759 -0.0006891889533964423 0.0002559613141790944 -0.0006891889533964423 -0.0004291603961305224" pbc="T T T"
Si       4.31947145      10.85351219      10.59681582
Si       6.27844785      10.30264075       9.48400610
Si       2.25091557       0.98860990       3.49388644
Si       4.00739733       2.00509841       4.80848672
Si       1.26547607       4.44546522       3.64986662
Si       3.45162856       2.73166640       7.02925273
Si       3.56308719       3.66700660       2.21365312
Si       3.00403312       7.59521629       9.57770745
Si       1.71032936       2.33626175       1.57617068
Si       2.51445353       4.61015577       5.73127601
10
Lattice="3.7242677184400304 -0.27648190540479295 0.39864204089909383 1.532646753296318 5.534134549327302 1.5417289194200978 0.5043716114623938 5.786247672172466 10.190732862641832" Properties=species:S:1:pos:R:3 unique_starting_index=160 config_type=initial n_minim_iter=16 stress="0.000827865176598821 0.0016089007971250952 0.0010007277827892573 0.0016089007971250952 0.0002877237416834607 -0.0018358240127514052 0.0010007277827892573 -0.0018358240127514052 -0.0022960868496090248" pbc="T T T"
Si       4.27819373      10.90651910      10.47465052
Si       6.22675117      10.33513397       9.36967905
Si       2.11744310       1.03813311       3.52500292
Si       3.90942305       2.00342629       4.82440717
Si       1.05231553       4.50460762       3.57938362
Si       3.43830376       2.75671289       7.05993283
Si       3.59320052       3.60662191       2.08659285
Si       2.93182053       7.59961742       9.58858459
Si       1.67133284       2.34311109       1.58234825
Si       2.44260396       4.54736597       5.62012308
10
Lattice="3.7395302813117604 -0.2992061012522041 0.383991570433404 1.4999476974562187 5.538664076311659 1.5421759733030844 0.4351883406115562 5.8126809751224355 10.175298037846604" Properties=species:S:1:pos:R:3 unique_starting_index=160 config_type=initial n_minim_iter=17 stress="0.0016308293326871503 0.0021460957336317857 0.001520007966206965 0.0021460957336317857 0.00016508550412361274 -0.0023241807282091144 0.001520007966206965 -0.0023241807282091144 -0.0033726962685045893" pbc="T T T"
Si       4.25259414      10.92384511      10.42460489
Si       6.19592257      10.34097948       9.32231716
Si       2.04719019       1.06336208       3.54506621
Si       3.85967650       1.99929770       4.83838722
Si       0.94064927       4.53351374       3.55389418
Si       3.43283192       2.76573875       7.08308855
Si       3.60824117       3.56936969       2.02144386
Si       2.89185932       7.59528773       9.60470607
Si       1.64973906       2.34431618       1.58729083
Si       2.40523931       4.51273796       5.56881402
10
Lattice="3.762244149484089 -0.3372077450988807 0.3650482738411926 1.4448748346708065 5.532825264893524 1.5490979872844037 0.33053719671325055 5.843842225497893 10.176047864124985" Properties=species:S:1:pos:R:3 unique_starting_index=160 config_type=initial n_minim_iter=18 stress="0.004575438831132317 0.0017160757788314512 0.0027993571784531183 0.0017160757788314512 -0.0015158803191050656 -0.00232854460625656 0.0027993571784531183 -0.00232854460625656 -0.0026253854565309693" pbc="T T T"
Si       4.20518578      10.92482602      10.38036703
Si       6.14178707      10.32483326       9.27481431
Si       1.93872681       1.09714797       3.58741235
Si       3.78541528       1.98738413       4.87237169
Si       0.76580689       4.57054218       3.53585525
Si       3.42773620       2.76933496       7.13394158
Si       3.62648633       3.50215281       1.92924621
Si       2.82510586       7.57345798       9.65172467
Si       1.62003937       2.33759362       1.59936392
Si       2.35042296       4.45350039       5.50229497
10
Lattice="3.774423182267069 -0.38159997274947854 0.35585610685415664 1.3757752899255424 5.49249045846669 1.5733176426482607 0.23264582573819384 5.851120640377598 10.23736043103293" Properties=species:S:1:pos:R:3 unique_starting_index=160 config_type=initial n_minim_iter=19 stress="0.006572144814417498 -0.002575493848672423 0.007556183857335721 -0.002575493848672423 -0.011886074820262665 0.0011403925695636476 0.007556183857335721 0.0011403925695636476 0.0032333925632743446" pbc="T T T"
Si       4.12045996      10.86203122      10.43056474
Si       6.05212905      10.24853720       9.28255698
Si       1.83017091       1.11003453       3.66257297
Si       3.71693229       1.96215152       4.93280956
Si       0.58163330       4.58314657       3.58947915
Si       3.43148903       2.74093474       7.21892604
Si       3.61433036       3.41695566       1.86020430
Si       2.73551793       7.51739730       9.74848935
Si       1.60961452       2.29913120       1.62350883
Si       2.30527862       4.39211766       5.45882493
10
Lattice="3.741195901318691 -0.37437956615488877 0.3489343637461323 1.3725175851781728 5.5341203466911795 1.5585667598194048 0.21956961964447227 5.871842224031813 10.229581902317598" Properties=species:S:1:pos:R:3 unique_starting_index=160 config_type=initial n_minim_iter=20 stress="0.0009761251251579373 -0.0049534802129617295 0.005009066533979657 -0.0049534802129617295 -0.014229852766555633 0.003596545081852585 0.005009066533979657 0.003596545081852585 0.003149397167555327" pbc="T T T"
Si       4.03859485      10.93031530      10.44856794
Si       5.97673501      10.34036150       9.23133757
Si       1.83023545       1.08365247       3.66802280
Si       3.70944409       1.97176382       4.89015124
Si       0.59092987       4.60609598       3.65702064
Si       3.39313615       2.72530600       7.17251893
Si       3.56120103       3.47893663       1.87999897
Si       2.67167107       7.57306337       9.68468122
Si       1.64788421       2.29009962       1.61595547
Si       2.29885245       4.45398741       5.41721928
10
Lattice="3.736734451320629 -0.3894186260028181 0.3234890061124044 1.343447241019731 5.598389782879896 1.5377558422367654 0.13411133169164635 5.9350017993866775 10.178888195767271" Properties=species:S:1:pos:R:3 unique_starting_index=160 config_type=initial n_minim_iter=21 stress="-0.0010835092034974598 -0.0020354417145860442 0.004117464883384161 -0.0020354417145860442 -0.006087686050822914 0.002547115454359851 0.004117464883384161 0.002547115454359851 0.002985908594970687" pbc="T T T"
Si       3.97882369      11.04694688      10.35440480
Si       5.91170024      10.46250045       9.11378633
Si       1.74543774       1.11330686       3.68253995
Si       3.64036408       1.98739065       4.86651231
Si       0.47193205       4.68063725       3.64600094
Si       3.35191198       2.74463306       7.15135496
Si       3.56360832       3.49717786       1.80721225
Si       2.59987748       7.63541266       9.63255609
Si       1.64170096       2.30592539       1.60929956
Si       2.25347884       4.46478728       5.31552405
