24
Lattice="9.800880660332927 2.898610809978072e-16 -1.1587806894828227e-29 -4.900440330166463 8.487811631307917 -1.692876997027656e-29 6.057784104893718e-30 1.3716437753252666e-29 5.123628622481041" Properties=species:S:1:pos:R:3 unique_starting_index=210 config_type=initial n_minim_iter=1 energy=-3905.039671563255 free_energy=-3905.039671563255 pbc="T T T"
Si       4.88924494       6.11009792       3.69761705
Si       2.06475817       1.17916137       3.69761705
Si       7.74731788       1.19855235       3.69761705
Si       2.84687755       7.28925929       3.69761705
Si      -0.01119539       2.37771372       3.69761705
Si      -2.83568216       7.30865027       3.69761705
Si       1.56365573       5.16363080       4.61309939
Si      -0.35322298       7.26016182       4.61309939
Si      -1.21043275       4.55183066       4.61309939
Si       3.69000758       3.93598098       4.61309939
Si       6.46409606       3.32418084       4.61309939
Si       4.54721735       1.22764982       4.61309939
Si       6.69303888       1.31116579       0.86227052
Si       5.31885834       5.14075881       0.86227052
Si       2.68942377       2.03588704       0.86227052
Si      -2.21101656       6.45192460       0.86227052
Si       1.79259855       7.17664585       0.86227052
Si       0.41841801       3.34705283       0.86227052
Si      -0.41851797       7.24906919       2.15626230
Si      -1.16817875       4.50082985       2.15626230
Si       1.58669672       5.22572424       2.15626230
Si       6.48713705       3.26208740       2.15626230
Si       4.48192236       1.23874245       2.15626230
Si       3.73226158       3.98698179       2.15626230
24
Lattice="9.749318423037733 3.3739625385339226e-16 -1.152742867468597e-29 -4.874659211518866 8.443157423934316 -1.6840878050490137e-29 6.057881528489629e-30 1.3716465592535803e-29 5.123972924029723" Properties=species:S:1:pos:R:3 unique_starting_index=210 config_type=initial n_minim_iter=2 stress="-0.0015858238208231548 1.2476782469978271e-16 -8.949590801250236e-18 1.2476782469978271e-16 -0.0015858238208234245 2.711199566261101e-17 -8.949590801250236e-18 2.711199566261101e-17 -0.003550782593424037" pbc="T T T"
Si       4.86334083       6.07750902       3.69757850
Si       2.05437081       1.17302220       3.69757850
Si       7.70626599       1.19262622       3.69757850
Si       2.83160678       7.25053121       3.69757850
Si      -0.01131839       2.36564842       3.69757850
Si      -2.82028840       7.27013523       3.69757850
Si       1.55490117       5.13582696       4.61298753
Si      -0.35054798       7.22182786       4.61298753
Si      -1.20435318       4.52866004       4.61298753
Si       3.67030603       3.91449739       4.61298753
Si       6.42956038       3.30733048       4.61298753
Si       4.52411123       1.22132957       4.61298753
Si       6.65802141       1.30331555       0.86242393
Si       5.29160335       5.11435791       0.86242393
Si       2.67435288       2.02548398       0.86242393
Si      -2.20030633       6.41767345       0.86242393
Si       1.78336220       7.13984188       0.86242393
Si       0.41694414       3.32879952       0.86242393
Si      -0.41557130       7.21111798       2.15702061
Si      -1.16256650       4.47770314       2.15702061
Si       1.57813780       5.19749374       2.15702061
Si       6.45279701       3.24566369       2.15702061
Si       4.45908792       1.23203945       2.15702061
Si       3.71209271       3.96545429       2.15702061
24
Lattice="9.705001156346563 5.399872631940175e-16 -1.1562227786660385e-29 -4.852500578173281 8.404777545153474 -1.6938724482840132e-29 6.100444808064121e-30 1.378437841606287e-29 5.1986008388260325" Properties=species:S:1:pos:R:3 unique_starting_index=210 config_type=initial n_minim_iter=3 stress="-0.0015537545896917226 2.662704029867894e-16 3.560744818702395e-17 2.662704029867894e-16 -0.0015537545896914544 -2.3563752476707027e-18 3.560744818702395e-17 -2.3563752476707027e-18 0.005897457441701334" pbc="T T T"
Si       4.84049944       6.04680776       3.74960441
Si       2.04806231       1.16859161       3.74960441
Si       7.66893998       1.18937819       3.74960441
Si       2.81643941       7.21539936       3.74960441
Si      -0.01200114       2.35796980       3.74960441
Si      -2.80443826       7.23618595       3.74960441
Si       1.54446197       5.10895761       4.67753773
Si      -0.34421748       7.18784205       4.67753773
Si      -1.20024449       4.51275545       4.67753773
Si       3.65225608       3.89202211       4.67753773
Si       6.39696255       3.29581995       4.67753773
Si       4.50828310       1.21693550       4.67753773
Si       6.62969280       1.29145618       0.87561007
Si       5.27172090       5.09575430       0.87561007
Si       2.65608804       2.01756708       0.87561007
Si      -2.19641254       6.38721047       0.87561007
Si       1.77719222       7.11332137       0.87561007
Si       0.41922032       3.30902326       0.87561007
Si      -0.40931121       7.17913708       2.19227387
Si      -1.16015891       4.46073511       2.19227387
Si       1.56947011       5.16968291       2.19227387
Si       6.42197069       3.23509464       2.19227387
Si       4.44318937       1.22564047       2.19227387
Si       3.69234167       3.94404245       2.19227387
24
Lattice="9.694835502293415 5.688677720625253e-16 -1.1537569313126891e-29 -4.847417751146707 8.395973830497363 -1.6895886952070857e-29 6.077641592204826e-30 1.3736824724027006e-29 5.1737719268830595" Properties=species:S:1:pos:R:3 unique_starting_index=210 config_type=initial n_minim_iter=4 stress="-0.0012868470668005538 2.5730086525921733e-16 -1.3049582817962354e-17 2.5730086525921733e-16 -0.0012868470668007564 2.899907292880523e-17 -1.3049582817962354e-17 2.899907292880523e-17 0.001860071968732457" pbc="T T T"
Si       4.83387275       6.02947082       3.72650941
Si       2.05622423       1.17152120       3.72650941
Si       7.65215627       1.19498182       3.72650941
Si       2.80473852       7.20099202       3.72650941
Si      -0.01354500       2.36650302       3.72650941
Si      -2.79119353       7.22445264       3.72650941
Si       1.53177471       5.09394528       4.64713683
Si      -0.32995561       7.17555701       4.64713683
Si      -1.20181909       4.52244539       4.64713683
Si       3.64559866       3.87352845       4.64713683
Si       6.37919246       3.30202856       4.64713683
Si       4.51746214       1.22041683       4.64713683
Si       6.62919938       1.27262334       0.87293380
Si       5.27811167       5.10474340       0.87293380
Si       2.63494220       2.01860710       0.87293380
Si      -2.21247555       6.37736674       0.87293380
Si       1.78178163       7.12335050       0.87293380
Si       0.43069392       3.29123043       0.87293380
Si      -0.39654717       7.17257481       2.19354494
Si      -1.16594066       4.46626651       2.19354494
Si       1.56248783       5.15310636       2.19354494
Si       6.40990558       3.24286748       2.19354494
Si       4.45087058       1.22339903       2.19354494
Si       3.68147710       3.92970733       2.19354494
24
Lattice="9.688484866911752 6.813384690151767e-16 -1.1523326165386498e-29 -4.844242433455875 8.39047401892667 -1.6873052644647176e-29 6.064459070335225e-30 1.3709143972343535e-29 5.159676184129008" Properties=species:S:1:pos:R:3 unique_starting_index=210 config_type=initial n_minim_iter=5 stress="-0.0002660385286995372 3.7930765840141935e-16 1.416117217339563e-17 3.7930765840141935e-16 -0.00026603852869926613 3.8116052205027484e-17 1.416117217339563e-17 3.8116052205027484e-17 -0.0007463936980689437" pbc="T T T"
Si       4.82946171       6.01463389       3.71042997
Si       2.06492827       1.17511959       3.71042997
Si       7.63833732       1.20072055       3.71042997
Si       2.79409489       7.18975347       3.71042997
Si      -0.01478073       2.37584014       3.71042997
Si      -2.77931416       7.21535444       3.71042997
Si       1.51921966       5.08174547       4.62921136
Si      -0.31628807       7.16528411       4.62921136
Si      -1.20293159       4.53391847       4.62921136
Si       3.64131084       3.85655556       4.62921136
Si       6.36346209       3.30872855       4.62921136
Si       4.52795436       1.22518992       4.62921136
Si       6.63289182       1.25904788       0.87392357
Si       5.28167152       5.11472888       0.87392357
Si       2.61816397       2.01669727       0.87392357
Si      -2.22607847       6.37377676       0.87392357
Si       1.78864939       7.13142615       0.87392357
Si       0.43742908       3.27574514       0.87392357
Si      -0.38632695       7.16690348       2.19539188
Si      -1.16931457       4.47245334       2.19539188
Si       1.55564151       5.14159124       2.19539188
Si       6.39988395       3.24888279       2.19539188
Si       4.45791549       1.22357055       2.19539188
Si       3.67492787       3.91802069       2.19539188
24
Lattice="9.656184638550087 6.779672029813311e-16 -1.1499171945719318e-29 -4.828092319275044 8.362501200617432 -1.6847037418485102e-29 6.063897335652823e-30 1.370336572751048e-29 5.1653252230141025" Properties=species:S:1:pos:R:3 unique_starting_index=210 config_type=initial n_minim_iter=6 stress="0.0015135635545910917 3.3059204577820674e-16 -6.91395200409736e-17 3.3059204577820674e-16 0.00151356355459116 9.635613572601517e-17 -6.91395200409736e-17 9.635613572601517e-17 -0.0006877854488111108" pbc="T T T"
Si       4.81124967       5.96937918       3.69828365
Si       2.08092579       1.18197486       3.69828365
Si       7.59210149       1.21114718       3.69828365
Si       2.76400917       7.15135403       3.69828365
Si      -0.01684265       2.39312203       3.69828365
Si      -2.74716652       7.18052635       3.69828365
Si       1.48507598       5.04620062       4.63189775
Si      -0.28458359       7.12551442       4.63189775
Si      -1.20049239       4.55328737       4.63189775
Si       3.62759993       3.80921383       4.63189775
Si       6.31316830       3.31630059       4.63189775
Si       4.54350873       1.23698679       4.63189775
Si       6.63573144       1.24030021       0.88787816
Si       5.26418743       5.12656190       0.88787816
Si       2.58435809       1.99563910       0.88787816
Si      -2.24373423       6.36686211       0.88787816
Si       1.80763912       7.12220100       0.88787816
Si       0.43609511       3.23593931       0.88787816
Si      -0.36795827       7.13497799       2.20338825
Si      -1.16700073       4.47635101       2.20338825
Si       1.53495900       5.11367342       2.20338825
Si       6.36305132       3.24882779       2.20338825
Si       4.46013405       1.22752322       2.20338825
Si       3.66109158       3.88615020       2.20338825
24
Lattice="9.613210605577166 9.15644148540028e-16 -1.1463252478929565e-29 -4.806605302788583 8.325284596359817 -1.680259333952452e-29 6.059424718589083e-30 1.3688478007531382e-29 5.16801111706206" Properties=species:S:1:pos:R:3 unique_starting_index=210 config_type=initial n_minim_iter=7 stress="0.0005340469417492395 2.399698963233807e-16 -7.878206327842532e-17 2.399698963233807e-16 0.0005340469417497892 9.475321409636845e-17 -7.878206327842532e-17 9.475321409636845e-17 0.00033758974304462914" pbc="T T T"
Si       4.78985659       5.91977230       3.68013242
Si       2.09160911       1.18825134       3.68013242
Si       7.53835020       1.21726096       3.68013242
Si       2.73174490       7.10802364       3.68013242
Si      -0.01674871       2.40551230       3.68013242
Si      -2.71499619       7.13703326       3.68013242
Si       1.44603476       5.00930884       4.65508230
Si      -0.25460078       7.07293302       4.65508230
Si      -1.19143397       4.56832735       4.65508230
Si       3.61517133       3.75695726       4.65508230
Si       6.25264006       3.31597576       4.65508230
Si       4.55200452       1.25235159       4.65508230
Si       6.64711871       1.25666327       0.90983313
Si       5.20134894       5.12824204       0.90983313
Si       2.57134826       1.94037930       0.90983313
Si      -2.23525704       6.38490530       0.90983313
Si       1.84051341       7.06862133       0.90983313
Si       0.39474363       3.19704257       0.90983313
Si      -0.36042261       7.08436507       2.18233896
Si      -1.14842351       4.47096693       2.18233896
Si       1.50884612       5.09523721       2.18233896
Si       6.31545143       3.23004740       2.18233896
Si       4.44618269       1.24091953       2.18233896
Si       3.65818179       3.85431768       2.18233896
24
Lattice="9.52619715867392 7.818291213207197e-16 -1.1365503300519947e-29 -4.76309857933696 8.249928740870757 -1.6665769792333735e-29 6.038249096616625e-30 1.3638982569024932e-29 5.152187230361077" Properties=species:S:1:pos:R:3 unique_starting_index=210 config_type=initial n_minim_iter=8 stress="-0.007584580084853726 1.9385108840350048e-16 4.661200145487282e-18 1.9385108840350048e-16 -0.007584580084852884 3.674122467619387e-17 4.661200145487282e-18 3.674122467619387e-17 -0.003175250782859767" pbc="T T T"
Si       4.74736510       5.84947563       3.64866626
Si       2.08672011       1.18660097       3.64866626
Si       7.45521052       1.21385215       3.64866626
Si       2.69211194       7.03607660       3.64866626
Si      -0.01573347       2.40045312       3.64866626
Si      -2.67637847       7.06332778       3.64866626
Si       1.39729191       4.93808946       4.67309244
Si      -0.21205829       6.99097431       4.67309244
Si      -1.18523362       4.57079373       4.67309244
Si       3.57786496       3.67913502       4.67309244
Si       6.16039049       3.31183929       4.67309244
Si       4.55104029       1.25895444       4.67309244
Si       6.66129914       1.27855641       0.91004991
Si       5.08828526       5.12957608       0.91004991
Si       2.53971134       1.84179626       0.91004991
Si      -2.22338724       6.40813248       0.91004991
Si       1.89820056       6.97137234       0.91004991
Si       0.32518668       3.12035267       0.91004991
Si      -0.31611735       7.01213830       2.16058877
Si      -1.15153265       4.47009394       2.16058877
Si       1.46765000       5.01762525       2.16058877
Si       6.23074857       3.23230350       2.16058877
Si       4.44698123       1.23779045       2.16058877
Si       3.61156593       3.77983481       2.16058877
24
Lattice="9.555184907601292 4.894823308788917e-16 -1.1376468986400234e-29 -4.777592453800646 8.275032867840382 -1.6685264653449072e-29 6.013311393089767e-30 1.3589837403392462e-29 5.121106575690909" Properties=species:S:1:pos:R:3 unique_starting_index=210 config_type=initial n_minim_iter=9 stress="-0.0013507266186043997 2.2702199162903527e-16 -3.989335722466743e-17 2.2702199162903527e-16 -0.0013507266186038383 8.198016364381828e-17 -3.989335722466743e-17 8.198016364381828e-17 -0.0005435671563704622" pbc="T T T"
Si       4.76326076       5.87546837       3.62216759
Si       2.08524966       1.18737064       3.62216759
Si       7.48426694       1.21219386       3.62216759
Si       2.70667449       7.06283901       3.62216759
Si      -0.01433169       2.39956450       3.62216759
Si      -2.69234279       7.08766223       3.62216759
Si       1.39265674       4.93199367       4.67261952
Si      -0.18996773       7.01511216       4.67261952
Si      -1.20268902       4.60295992       4.67261952
Si       3.57490344       3.67207296       4.67261952
Si       6.17024920       3.34303920       4.67261952
Si       4.58762473       1.25992072       4.67261952
Si       6.74599238       1.31960926       0.88047843
Si       5.03937358       5.18239616       0.88047843
Si       2.54741140       1.77302747       0.88047843
Si      -2.23018106       6.50200541       0.88047843
Si       1.96839993       6.95542362       0.88047843
Si       0.26178113       3.09263672       0.88047843
Si      -0.26029629       7.04349211       2.14840703
Si      -1.19210250       4.52786362       2.14840703
Si       1.45239879       4.97871001       2.14840703
Si       6.22999124       3.29632286       2.14840703
Si       4.51729617       1.23154076       2.14840703
Si       3.58548995       3.74716926       2.14840703
24
Lattice="9.572182434326862 9.703104327569489e-16 -1.1391111067533764e-29 -4.786091217163431 8.289753157786228 -1.6703711887327284e-29 6.010756457631977e-30 1.3585748994067893e-29 5.116626550285985" Properties=species:S:1:pos:R:3 unique_starting_index=210 config_type=initial n_minim_iter=10 stress="0.0027881336441755934 3.240352774723036e-16 1.4014183941312707e-17 3.240352774723036e-16 0.0027881336441760137 6.890876786752785e-17 1.4014183941312707e-17 6.890876786752785e-17 0.0027692125179008386" pbc="T T T"
Si       4.76945480       5.88843203       3.61439304
Si       2.08792331       1.18625301       3.61439304
Si       7.50089554       1.21506813       3.61439304
Si       2.71480432       7.07468504       3.61439304
Si      -0.01663641       2.40132114       3.61439304
Si      -2.69816791       7.10350015       3.61439304
Si       1.39192147       4.92396273       4.66204209
Si      -0.17414632       7.03321115       4.66204209
Si      -1.21777515       4.62233245       4.66204209
Si       3.56831607       3.66742072       4.66204209
Si       6.17801269       3.36579044       4.66204209
Si       4.61194489       1.25654201       4.66204209
Si       6.77438862       1.32659470       0.87032758
Si       5.03612342       5.20349530       0.87032758
Si       2.54776161       1.75966317       0.87032758
Si      -2.23832960       6.53008999       0.87032758
Si       1.98829741       6.96315846       0.87032758
Si       0.25003220       3.08625787       0.87032758
Si      -0.22425834       7.06003070       2.16700373
Si      -1.21594554       4.56552439       2.16700373
Si       1.44020389       4.95395124       2.16700373
Si       6.22629511       3.33580193       2.16700373
Si       4.56183287       1.22972247       2.16700373
Si       3.57014567       3.72422877       2.16700373
24
Lattice="9.571278224827747 9.335695891331511e-16 -1.1272802406758417e-29 -4.7856391124138735 8.288970089389657 -1.6448387954706854e-29 5.928929310829063e-30 1.3437854316084593e-29 4.9963241325917975" Properties=species:S:1:pos:R:3 unique_starting_index=210 config_type=initial n_minim_iter=11 stress="-0.004475021239426299 6.918087722620589e-17 8.224857076096366e-17 6.918087722620589e-17 -0.004475021239425869 -2.6467987440795373e-17 8.224857076096366e-17 -2.6467987440795373e-17 -0.01284355455136189" pbc="T T T"
Si       4.76689948       5.89353557       3.49003211
Si       2.08387697       1.18148827       3.49003211
Si       7.50614089       1.21394626       3.49003211
Si       2.72050178       7.07502383       3.49003211
Si      -0.01873963       2.39543453       3.49003211
Si      -2.70176215       7.10748183       3.49003211
Si       1.36236811       4.86139053       4.57315040
Si      -0.10563264       7.03812023       4.57315040
Si      -1.25673548       4.67842944       4.57315040
Si       3.52890364       3.61054066       4.57315040
Si       6.14800723       3.42757957       4.57315040
Si       4.68000648       1.25084987       4.57315040
Si       6.86339629       1.43083842       0.85309036
Si       4.90043766       5.22845634       0.85309036
Si       2.59308339       1.62967534       0.85309036
Si      -2.19255573       6.65929475       0.85309036
Si       2.07775718       6.85813168       0.85309036
Si       0.11479855       3.06051376       0.85309036
Si      -0.10931615       7.03669740       2.13148363
Si      -1.25366152       4.67595083       2.13148363
Si       1.36297767       4.86529196       2.13148363
Si       6.14861678       3.42367814       2.13148363
Si       4.67632296       1.25227269       2.13148363
Si       3.53197759       3.61301927       2.13148363
24
Lattice="9.612207286386882 1.030256378114409e-15 -1.129531541266788e-29 -4.806103643193441 8.324415696452922 -1.646891959783198e-29 5.90242433289795e-30 1.3386033368545345e-29 4.962767997138539" Properties=species:S:1:pos:R:3 unique_starting_index=210 config_type=initial n_minim_iter=12 stress="-0.006264523227242028 5.28689759607626e-16 1.776220057645266e-17 5.28689759607626e-16 -0.006264523227241456 2.4113956513039523e-17 1.776220057645266e-17 2.4113956513039523e-17 -0.012560606026231023" pbc="T T T"
Si       4.78732795       5.93620646       3.44373388
Si       2.07763772       1.17784440       3.44373388
Si       7.55334526       1.21036486       3.44373388
Si       2.74724161       7.11405085       3.44373388
Si      -0.01877569       2.38820925       3.44373388
Si      -2.72846592       7.14657131       3.44373388
Si       1.36946409       4.85092192       4.53770358
Si      -0.07965002       7.08494543       4.53770358
Si      -1.28981408       4.71296405       4.53770358
Si       3.51628957       3.61145166       4.53770358
Si       6.17556774       3.47349378       4.53770358
Si       4.72645363       1.23947027       4.53770358
Si       6.90046272       1.51412003       0.85914143
Si       4.85070952       5.21891601       0.85914143
Si       2.66713869       1.59137967       0.85914143
Si      -2.13896496       6.73303603       0.85914143
Si       2.09435908       6.81029568       0.85914143
Si       0.04460588       3.10549970       0.85914143
Si      -0.05307793       7.04640659       2.13297907
Si      -1.26972450       4.75524557       2.13297907
Si       1.32280243       4.84717925       2.13297907
Si       6.12890607       3.47723646       2.13297907
Si       4.75302571       1.27800912       2.13297907
Si       3.53637915       3.56917013       2.13297907
24
Lattice="9.648692473568035 9.076611659859202e-16 -1.1370294465939134e-29 -4.8243462367840175 8.356012795413633 -1.659721592958301e-29 5.923719127801707e-30 1.3423967593121885e-29 4.994783393619556" Properties=species:S:1:pos:R:3 unique_starting_index=210 config_type=initial n_minim_iter=13 stress="-0.000985722717414345 3.2283670403236427e-16 4.75613798198833e-17 3.2283670403236427e-16 -0.0009857227174136392 9.325321531934006e-17 4.75613798198833e-17 9.325321531934006e-17 -0.0017668918556105202" pbc="T T T"
Si       4.80833054       5.96441648       3.46308886
Si       2.07919102       1.18192816       3.46308886
Si       7.58551715       1.20966817       3.46308886
Si       2.76117092       7.14634464       3.46308886
Si      -0.01601570       2.39159632       3.46308886
Si      -2.74515522       7.17408464       3.46308886
Si       1.38235709       4.86999419       4.55556711
Si      -0.08437099       7.11817206       4.55556711
Si      -1.29798610       4.72385935       4.55556711
Si       3.52636014       3.63215345       4.55556711
Si       6.20670332       3.48601861       4.55556711
Si       4.73997525       1.23784074       4.55556711
Si       6.89055627       1.52879807       0.87751195
Si       4.87943638       5.20299774       0.87751195
Si       2.70304607       1.62421699       0.87751195
Si      -2.12130017       6.73179581       0.87751195
Si       2.06621003       6.82721473       0.87751195
Si       0.05509014       3.15301506       0.87751195
Si      -0.06318472       7.06516160       2.14818173
Si      -1.26267082       4.76871242       2.14818173
Si       1.32585555       4.87815158       2.14818173
Si       6.15020179       3.47786123       2.14818173
Si       4.76116151       1.29085120       2.14818173
Si       3.56167541       3.58730038       2.14818173
24
Lattice="9.65304093089929 8.830981288565514e-16 -1.13840342278403e-29 -4.826520465449645 8.359778669929774 -1.6622716894552162e-29 5.92646062361921e-30 1.342740448126233e-29 5.000880091513809" Properties=species:S:1:pos:R:3 unique_starting_index=210 config_type=initial n_minim_iter=14 stress="0.0003056932328319395 3.1197365131047817e-16 8.036622829724289e-17 3.1197365131047817e-16 0.00030569323283208033 6.100542961031616e-17 8.036622829724289e-17 6.100542961031616e-17 0.0018239857253843977" pbc="T T T"
Si       4.81345613       5.96255540       3.45074046
Si       2.08258842       1.18729759       3.45074046
Si       7.58351685       1.20992569       3.45074046
Si       2.75699638       7.14985299       3.45074046
Si      -0.01306434       2.39722328       3.45074046
Si      -2.74393204       7.17248109       3.45074046
Si       1.36469142       4.84764300       4.56968875
Si      -0.05400723       7.11781461       4.56968875
Si      -1.31068419       4.75409974       4.56968875
Si       3.51583628       3.60567894       4.56968875
Si       6.19121189       3.51213567       4.56968875
Si       4.77251323       1.24196407       4.56968875
Si       6.91820434       1.55927746       0.88640405
Si       4.84356487       5.21170199       0.88640405
Si       2.71779218       1.58879924       0.88640405
Si      -2.10872829       6.77097944       0.88640405
Si       2.09168388       6.80050122       0.88640405
Si       0.01704441       3.14807669       0.88640405
Si      -0.02762209       7.05978516       2.15099727
Si      -1.27362177       4.80596466       2.15099727
Si       1.30124387       4.85380753       2.15099727
Si       6.12776433       3.50597114       2.15099727
Si       4.79889837       1.29999352       2.15099727
Si       3.55289869       3.55381402       2.15099727
24
Lattice="9.68949818458371 7.778346743738799e-16 -1.1421832528158855e-29 -4.844749092291855 8.391351577772694 -1.6674661693186495e-29 5.906430870448717e-30 1.3383576327777898e-29 4.98185688663662" Properties=species:S:1:pos:R:3 unique_starting_index=210 config_type=initial n_minim_iter=15 stress="0.0038224987502967034 1.4608747688272754e-16 1.8062222751541736e-16 1.4608747688272754e-16 0.0038224987502971245 4.481295022575226e-17 1.8062222751541736e-16 4.481295022575226e-17 0.0018527339241515386" pbc="T T T"
Si       4.84669405       5.98793903       3.42125110
Si       2.08044385       1.20339066       3.42125110
Si       7.60710938       1.20002190       3.42125110
Si       2.76236028       7.19132969       3.42125110
Si       0.00194496       2.40341256       3.42125110
Si      -2.76430524       7.18796092       3.42125110
Si       1.34650638       4.82950301       4.56465475
Si      -0.01097638       7.14270881       4.56465475
Si      -1.33552999       4.81049135       4.56465475
Si       3.50921910       3.58086023       4.56465475
Si       6.19125547       3.56184858       4.56465475
Si       4.83377271       1.24864278       4.56465475
Si       6.94661395       1.58916522       0.88823480
Si       4.83993376       5.22136155       0.88823480
Si       2.74769956       1.58082482       0.88823480
Si      -2.09704953       6.81052676       0.88823480
Si       2.10186486       6.80218637       0.88823480
Si      -0.00481533       3.16999003       0.88823480
Si       0.01828320       7.09217226       2.14162621
Si      -1.30639385       4.86109917       2.14162621
Si       1.28811065       4.82943174       2.14162621
Si       6.13285974       3.56191984       2.14162621
Si       4.86303229       1.29917933       2.14162621
Si       3.53835525       3.53025242       2.14162621
24
Lattice="9.667761060929797 8.904252553689327e-16 -1.1410924922502561e-29 -4.833880530464898 8.3725266764832 -1.6663488922715218e-29 5.908172430642585e-30 1.3382827937547258e-29 4.989717671650661" Properties=species:S:1:pos:R:3 unique_starting_index=210 config_type=initial n_minim_iter=16 stress="0.00028049563479492064 1.6932945894797693e-16 2.5997294772735255e-16 1.6932945894797693e-16 0.0002804956347946392 2.2334445681044033e-18 2.5997294772735255e-16 2.2334445681044033e-18 0.0016886292085402238" pbc="T T T"
Si       4.83806478       5.97913328       3.43460181
Si       2.07064736       1.20032037       3.43460181
Si       7.59292945       1.19307304       3.43460181
Si       2.75904892       7.17945364       3.43460181
Si       0.00418425       2.39339341       3.43460181
Si      -2.76323317       7.17220631       3.43460181
Si       1.34757091       4.82628416       4.57484055
Si      -0.01958960       7.12641524       4.57484055
Si      -1.32798130       4.79235397       4.57484055
Si       3.50589923       3.58017272       4.57484055
Si       6.18145144       3.54624253       4.57484055
Si       4.81429093       1.24611144       4.57484055
Si       6.92165917       1.57335496       0.88255301
Si       4.84436611       5.20765520       0.88255301
Si       2.73561631       1.59151653       0.88255301
Si      -2.09826422       6.78101016       0.88255301
Si       2.08777864       6.79917172       0.88255301
Si       0.01048558       3.16487148       0.88255301
Si       0.00531094       7.08653096       2.14115308
Si      -1.30589077       4.83386061       2.14115308
Si       1.30057983       4.82466180       2.14115308
Si       6.13446036       3.54786488       2.14115308
Si       4.83919147       1.28599573       2.14115308
Si       3.52798976       3.53866608       2.14115308
24
Lattice="9.673952576614951 8.298430180503692e-16 -1.1415855477064504e-29 -4.836976288307476 8.377888686354472 -1.666939908335665e-29 5.8943257460097644e-30 1.3352151346965037e-29 4.977084021354009" Properties=species:S:1:pos:R:3 unique_starting_index=210 config_type=initial n_minim_iter=17 stress="-0.0004098003297226728 4.1724959024398585e-16 1.2385377019115674e-16 4.1724959024398585e-16 -0.0004098003297222501 -3.522951685437347e-17 1.2385377019115674e-16 -3.522951685437347e-17 -0.0005728637328808809" pbc="T T T"
Si       4.84074276       5.98880912       3.42837048
Si       2.06712036       1.19780165       3.42837048
Si       7.60306575       1.19127793       3.42837048
Si       2.76608946       7.18661077       3.42837048
Si       0.00376647       2.38907957       3.42837048
Si      -2.76985593       7.18008705       3.42837048
Si       1.35079025       4.82959613       4.56345610
Si      -0.02097177       7.13290930       4.56345610
Si      -1.32981848       4.79327195       4.56345610
Si       3.50715781       3.58461674       4.56345610
Si       6.18776654       3.54829256       4.56345610
Si       4.81600451       1.24497940       4.56345610