10
Lattice="3.656224344046276 -0.35477592964440335 1.04584151171303 1.6121856964848529 4.945205175421937 2.125316480753535 1.956990857546391 5.337907548197924 11.839302875546835" Properties=species:S:1:pos:R:3 unique_starting_index=160 config_type=initial n_minim_iter=1 energy=-1627.2913653258838 free_energy=-1627.2913653258838 pbc="T T T"
Si       4.52274395       9.50068764      12.88478753
Si       6.77378579       8.39019819      11.97641574
Si       3.51399879       0.69675435       3.91328587
Si       4.26116939       2.16002316       5.80549475
Si       2.53419689       3.80170235       5.00774260
Si       3.66940516       2.75835678       8.03987390
Si       3.97641980       3.76369765       3.14491167
Si       4.07540410       6.44660504      11.81781417
Si       2.22323431       2.01964260       2.27997138
Si       2.97635818       4.96433763       7.15708272
10
Lattice="3.6435888731007644 -0.3639082852681717 1.02016178836188 1.591536180497351 4.900216570846942 2.0674002024576423 1.8841084274982232 5.227936852424532 11.695834068080854" Properties=species:S:1:pos:R:3 unique_starting_index=160 config_type=initial n_minim_iter=2 stress="-0.0052202112374264064 -0.0007776979249970204 -0.0018125912777117302 -0.0007776979249970204 -0.006136687122118701 -0.00122707556085221 -0.0018125912777117302 -0.00122707556085221 -0.008388766248168492" pbc="T T T"
Si       4.43458646       9.35736852      12.69304500
Si       6.68283524       8.25654010      11.78496361
Si       3.48578327       0.66850165       3.85962718
Si       4.21759817       2.09645396       5.72275903
Si       2.49722538       3.74421860       4.93146482
Si       3.62243194       2.68257543       7.93835134
Si       3.94787294       3.71563501       3.07072042
Si       3.99415387       6.33108299      11.65511844
Si       2.20247208       1.98929126       2.23482846
Si       2.92821729       4.88680323       7.04678664
10
Lattice="3.6676076257965917 -0.37026656374010664 1.0195010958347852 1.5984847468811128 4.913810757743217 2.0533377370753967 1.870113355119106 5.197510351766784 11.7394515489441" Properties=species:S:1:pos:R:3 unique_starting_index=160 config_type=initial n_minim_iter=3 stress="0.005382369263669677 -0.0014107095690004416 -0.0040490473254263075 -0.0014107095690004416 0.0037039114096504735 -0.0041449209222400255 -0.0040490473254263075 -0.0041449209222400255 0.0013941087393872227" pbc="T T T"
Si       4.43766893       9.34458460      12.71804568
Si       6.69836973       8.24291614      11.80023528
Si       3.50237945       0.66257120       3.87482299
Si       4.23225934       2.06491053       5.74243228
Si       2.50245080       3.73914647       4.94312661
Si       3.63981781       2.65170974       7.97066290
Si       3.97143505       3.71797559       3.05885351
Si       3.99137478       6.31287518      11.68500007
Si       2.21001978       1.98649731       2.23200672
Si       2.93663149       4.87936281       7.05664455
10
Lattice="3.6599576294468523 -0.3521291932019058 1.0486764346689845 1.6239911308148611 4.9179472389177254 2.0988294238853364 1.9645201855132737 5.248968255157452 11.835397043549275" Properties=species:S:1:pos:R:3 unique_starting_index=160 config_type=initial n_minim_iter=4 stress="0.0030317245456719915 0.00017063794010851001 2.4501453072900305e-05 0.00017063794010851001 0.003497524549603276 -0.0013047846727128102 2.4501453072900305e-05 -0.0013047846727128102 0.0035463757169311516" pbc="T T T"
Si       4.54408531       9.40293635      12.85915150
Si       6.77995506       8.30790965      11.94176359
Si       3.51969919       0.70366710       3.92450820
Si       4.26241082       2.08213733       5.81742138
Si       2.53901019       3.76336187       5.00772498
Si       3.70398462       2.68786278       8.05462822
Si       3.99354273       3.73626701       3.11567150
Si       4.07523965       6.37929044      11.79489565
Si       2.21942406       1.99810585       2.26549514
Si       2.99860384       4.91505669       7.13138270
10
Lattice="3.653012393282167 -0.3375991886374368 1.0613372766083322 1.6370036468583722 4.903325475802989 2.132105031588924 2.009613107537013 5.2788146197216985 11.892367943596371" Properties=species:S:1:pos:R:3 unique_starting_index=160 config_type=initial n_minim_iter=5 stress="-0.00105679461849336 0.0005867831023727208 0.0012160775888370038 0.0005867831023727208 0.0004320537899651052 0.0004221654740959566 0.0012160775888370038 0.0004221654740959566 0.0013493739572386304" pbc="T T T"
Si       4.59735675       9.42574807      12.94865913
Si       6.80784196       8.33983210      12.02272853
Si       3.52579339       0.74824061       3.95168862
Si       4.27232828       2.06984341       5.86918057
Si       2.55202640       3.77019093       5.05356697
Si       3.75152567       2.70212210       8.10842116
Si       4.00327781       3.73550749       3.14493749
Si       4.10288614       6.42712741      11.85339209
Si       2.21559749       1.99747145       2.28075122
Si       3.03611075       4.92905597       7.17103157
10
Lattice="3.6706919012183326 -0.3220013163320177 1.0676315069438642 1.6570978746900844 4.874805868251112 2.1659796526279207 2.0536807433394326 5.305918860951197 11.931449108513776" Properties=species:S:1:pos:R:3 unique_starting_index=160 config_type=initial n_minim_iter=6 stress="-0.0025240220028219626 0.0006067543354620734 0.0009653989728204363 0.0006067543354620734 -0.0019956883804212746 0.0008194319151134809 0.0009653989728204363 0.0008194319151134809 -0.002763545209148382" pbc="T T T"
Si       4.67244950       9.43960418      13.01785985
Si       6.86008899       8.36992327      12.08427811
Si       3.55356366       0.80984069       3.96539930
Si       4.30883816       2.03471266       5.92959075
Si       2.57027006       3.76644504       5.09507475
Si       3.83925779       2.70541902       8.15182674
Si       4.03064894       3.72391435       3.16664764
Si       4.12366041       6.48594792      11.88688735
Si       2.21380119       1.98741764       2.28278613
Si       3.09640799       4.92438996       7.19402746
10
Lattice="3.710498396403268 -0.32047575893692326 1.0619555187388043 1.6494541416543893 4.820823956106388 2.2314313527046745 2.0224478422095045 5.350356343999491 12.07373102135037" Properties=species:S:1:pos:R:3 unique_starting_index=160 config_type=initial n_minim_iter=7 stress="0.0018121954335534104 -0.0009314674218097272 -0.0015107597389387162 -0.0009314674218097272 -0.0004968195070547254 0.0009034663267975287 -0.0015107597389387162 0.0009034663267975287 0.0004854533504184969" pbc="T T T"
Si       4.68083773       9.44890269      13.19013562
Si       6.85376402       8.40314980      12.25934956
Si       3.58540991       0.86900055       3.97224711
Si       4.35663519       1.99789221       6.06422843
Si       2.54830974       3.74079092       5.16836543
Si       3.92486219       2.70723660       8.24689974
Si       4.02671433       3.68619650       3.22174165
Si       4.03211518       6.56680723      12.01666398
Si       2.18801209       1.95881316       2.28215257
Si       3.13295754       4.85939296       7.27782941
10
Lattice="3.7296277738963157 -0.31688250236648174 1.06650367302599 1.6528733274738479 4.791184104583954 2.26514482680758 2.036111347878304 5.3684697125954965 12.137730020000491" Properties=species:S:1:pos:R:3 unique_starting_index=160 config_type=initial n_minim_iter=8 stress="0.003122788988610743 -0.0005685880933230759 -0.0006934491481317094 -0.0005685880933230759 9.0531631917839e-05 0.0007905881111116481 -0.0006934491481317094 0.0007905881111116481 -2.4009396304516354e-07" pbc="T T T"
Si       4.72843084       9.45326560      13.26300228
Si       6.87802965       8.43572230      12.36168084
Si       3.61105399       0.90162418       3.96934576
Si       4.40249350       1.97841420       6.15493905
Si       2.54683166       3.72259105       5.19876337
Si       3.99851206       2.70456009       8.30070582
Si       4.02005405       3.66776662       3.26279563
Si       3.99064461       6.61871056      12.07575141
Si       2.16992370       1.94171367       2.27275651
Si       3.18011047       4.79539661       7.31760368
10
Lattice="3.711129983857219 -0.3234472041605624 1.0652298151675967 1.6381441315043752 4.791499535837909 2.2546003336949294 2.008758571089131 5.34452195488272 12.142691033743795" Properties=species:S:1:pos:R:3 unique_starting_index=160 config_type=initial n_minim_iter=9 stress="3.0329105191874485e-05 -0.0015039331389296322 0.0003510304572907635 -0.0015039331389296322 0.0014675378861600068 8.967099967360899e-05 0.0003510304572907635 8.967099967360899e-05 0.0007244249899290622" pbc="T T T"
Si       4.69030314       9.43214047      13.24542239
Si       6.82923803       8.42678202      12.36685683
Si       3.59038157       0.87978452       3.95953101
Si       4.38239181       1.97219948       6.15865868
Si       2.52840460       3.71208643       5.18564573
Si       3.96314043       2.68911571       8.31165868
Si       3.98421834       3.66264269       3.26549562
Si       3.94258898       6.59889937      12.07520086
Si       2.15290987       1.93860423       2.26245659
Si       3.15609081       4.75445481       7.31723062
10
Lattice="3.7077407255405426 -0.306640172301864 1.0591516921999826 1.6556691943721373 4.7744918467502035 2.2494587248576 2.0043382674367414 5.315282040620644 12.158858779832437" Properties=species:S:1:pos:R:3 unique_starting_index=160 config_type=initial n_minim_iter=10 stress="-0.0003430944803525116 0.0022019311973957715 -0.0002109327460539588 0.0022019311973957715 -0.0005267842762766235 0.00021792288408262428 -0.0002109327460539588 0.00021792288408262428 0.0018923147418974046" pbc="T T T"
Si       4.71381641       9.40081302      13.23747137
Si       6.84069022       8.43303589      12.38430684
Si       3.58722480       0.88331194       3.94698797
Si       4.38661674       1.96648104       6.16701294
Si       2.53801084       3.70187967       5.17866944
Si       3.96038587       2.68314537       8.34012492
Si       3.98270381       3.65912433       3.26909657
Si       3.92319886       6.58869339      12.07803698
Si       2.14932128       1.93866858       2.24622188
Si       3.17092924       4.70149414       7.31842653
10
Lattice="3.7111824711580543 -0.3208258954949195 1.0588586543079086 1.6417608423191339 4.765969862521432 2.2328245443646697 1.993546839076354 5.282599281939765 12.11621833089614" Properties=species:S:1:pos:R:3 unique_starting_index=160 config_type=initial n_minim_iter=11 stress="-0.0021541719188874838 0.0008810610442500214 0.0012618996547759337 0.0008810610442500214 0.0009817279253720103 -0.0009788428199292859 0.0012618996547759337 -0.0009788428199292859 0.0001614554787034393" pbc="T T T"
Si       4.69686373       9.36337806      13.17154138
Si       6.82254296       8.41287916      12.34904651
Si       3.58726234       0.85723550       3.93008282
Si       4.38981193       1.92497022       6.14468088
Si       2.53695799       3.68754334       5.15280799
Si       3.95556179       2.64774318       8.34291317
Si       3.96878527       3.63785042       3.26096723
Si       3.89796250       6.56214740      12.02487344
Si       2.14095956       1.93341656       2.22620922
Si       3.16608670       4.65044226       7.28655612
10
Lattice="3.7290789380821145 -0.3295364861673456 1.0521686426907513 1.6275110096616694 4.737380959247763 2.24574840342449 1.9635268900781668 5.279447040444219 12.133394116522084" Properties=species:S:1:pos:R:3 unique_starting_index=160 config_type=initial n_minim_iter=12 stress="-0.0010130557902010338 0.00016883865413337503 0.00013941923164320638 0.00016883865413337503 -0.0007092877586344405 -0.0002711537965743486 0.00013941923164320638 -0.0002711537965743486 0.001160109571806757" pbc="T T T"
Si       4.66979678       9.33845959      13.18667431
Si       6.79892858       8.40949875      12.37963161
Si       3.59371954       0.85647415       3.92287493
Si       4.39954423       1.87979878       6.15384445
Si       2.52819041       3.67406607       5.16224118
Si       3.96622548       2.62545527       8.38041311
Si       3.96554628       3.60547090       3.26821294
Si       3.84955347       6.56736967      12.02796897
Si       2.13075050       1.92514757       2.21503131
Si       3.16519123       4.60538347       7.28938339
10
Lattice="3.744202153600373 -0.3335962851584254 1.0458413976190812 1.626386663701078 4.740529855981501 2.2420054924911272 1.9602274292627846 5.2948407256821515 12.086101931765912" Properties=species:S:1:pos:R:3 unique_starting_index=160 config_type=initial n_minim_iter=13 stress="0.0003643196243062765 -0.00020178639463931574 0.00011427288320254828 -0.00020178639463931574 0.0005616464789853608 -0.00011765375748659501 0.00011427288320254828 -0.00011765375748659501 -0.00046640892952082524" pbc="T T T"
Si       4.66877754       9.35871446      13.13745348
Si       6.81076311       8.43804174      12.33776602
Si       3.60131251       0.85531344       3.90749106
Si       4.41189687       1.86378134       6.12322790
Si       2.53177559       3.68307488       5.14501541
Si       3.97518373       2.62084580       8.35916611
Si       3.98069792       3.60142426       3.25515030
Si       3.85126962       6.58477864      11.97624734
Si       2.13705478       1.93311431       2.20534472
Si       3.17029018       4.61031349       7.25891535
10
Lattice="3.764599380765793 -0.3394680538541966 1.037779924481633 1.6165308770471032 4.71737032631541 2.2559008662035227 1.9405946439277957 5.309649597417711 12.0767006081166" Properties=species:S:1:pos:R:3 unique_starting_index=160 config_type=initial n_minim_iter=14 stress="0.0016755673603201118 -0.0007671722029705605 -0.0003256929739177651 -0.0007671722029705605 -0.0013495161062665013 0.0009951442971834377 -0.0003256929739177651 0.0009951442971834377 0.00037538251392397966" pbc="T T T"
Si       4.65054433       9.36661449      13.13239756
Si       6.80533331       8.47666281      12.34631919
Si       3.60368635       0.85995327       3.89686513
Si       4.43201507       1.81226647       6.12718642
Si       2.51334100       3.67787490       5.14456138
Si       3.99901694       2.59167633       8.36730971
Si       3.99566577       3.56913844       3.25386694
Si       3.81505809       6.60676276      11.95585684
Si       2.13472658       1.93846112       2.19728603
Si       3.17795055       4.58584762       7.24956105
10
Lattice="3.746031455741302 -0.3334693147939949 1.0222391076996757 1.6193161180697517 4.7456066701992805 2.2239027171269314 1.9144259508206463 5.31102025221356 11.98859539076709" Properties=species:S:1:pos:R:3 unique_starting_index=160 config_type=initial n_minim_iter=15 stress="0.0005437337058873977 -0.0001921900621469248 -0.0005258087197252912 -0.0001921900621469248 0.0014975007718293742 -5.3638963249921636e-05 -0.0005258087197252912 -5.3638963249921636e-05 -0.0022819327288198864" pbc="T T T"
Si       4.61895558       9.41208376      13.01330648
Si       6.78232286       8.53979035      12.23386669
Si       3.57165485       0.84635783       3.86237922
Si       4.41140520       1.81867621       6.08068176
Si       2.48247124       3.69198458       5.08291257
Si       3.95985720       2.57916139       8.28641455
Si       3.99162239       3.58639981       3.21736704
Si       3.79021830       6.61450543      11.86614689
Si       2.13532008       1.96468010       2.18095603
Si       3.15727624       4.59555677       7.19464626
10
Lattice="3.7414803373423826 -0.33233206486411604 1.0278574168712435 1.6198217823280772 4.732293505537528 2.2273978537685752 1.9200475411593414 5.288889049660985 12.022324677675156" Properties=species:S:1:pos:R:3 unique_starting_index=160 config_type=initial n_minim_iter=16 stress="-0.00023093748927993418 6.34275951777007e-05 0.0001551381862748472 6.34275951777007e-05 -5.115034759282191e-05 -0.00022863496092911776 0.0001551381862748472 -0.00022863496092911776 -7.874816370901292e-05" pbc="T T T"
Si       4.62511772       9.38482793      13.04512488
Si       6.78198514       8.52011986      12.26644184
Si       3.56856309       0.84179409       3.87503644
Si       4.41327509       1.80414746       6.10645242
Si       2.47747620       3.67888768       5.09224291
Si       3.96547835       2.56229450       8.31443591
Si       3.98860216       3.57371864       3.22899507
Si       3.78794942       6.59617476      11.89933529
Si       2.13164757       1.96108197       2.18605931
Si       3.16229794       4.57037822       7.21487836
10
Lattice="3.7336353919405094 -0.3296459412210396 1.0274766042930197 1.6163836403087843 4.714787749053253 2.2333132567961194 1.9037981837938132 5.268866451184227 12.067058987081053" Properties=species:S:1:pos:R:3 unique_starting_index=160 config_type=initial n_minim_iter=17 stress="-0.0012313577454521937 0.0005784428210883985 0.0007951865908255184 0.0005784428210883985 -0.002615016692251814 0.00040509142227546763 0.0007951865908255184 0.00040509142227546763 0.0043013786002699455" pbc="T T T"
Si       4.60989184       9.37152849      13.07919648
Si       6.75796072       8.52196338      12.29077729
Si       3.55365244       0.83241156       3.88848556
Si       4.41090954       1.77353877       6.13738060
Si       2.44789058       3.66769319       5.08790679
Si       3.96409909       2.53582405       8.35579479
Si       3.98060259       3.55051618       3.24918824
Si       3.75712193       6.59776441      11.94504953
Si       2.11897504       1.96899730       2.19234571
Si       3.16114669       4.51898538       7.23957973
10
Lattice="3.7395665765246133 -0.3312340162902227 1.011562923244677 1.620731036027368 4.744151646283114 2.197370674288428 1.8924002578750754 5.277675702521367 11.932738511590442" Properties=species:S:1:pos:R:3 unique_starting_index=160 config_type=initial n_minim_iter=18 stress="-0.0005936930884417187 1.187186782204688e-05 0.0011341335382994333 1.187186782204688e-05 0.00046483721862299764 -0.0004941587430665064 0.0011341335382994333 -0.0004941587430665064 -0.0001300263723280774" pbc="T T T"
Si       4.60183601       9.43241226      12.91954016
Si       6.75890909       8.56589877      12.09485723
Si       3.54728590       0.81879658       3.86388833
Si       4.41265053       1.74883646       6.05495440
Si       2.42553779       3.69389507       5.00238193
Si       3.96407179       2.52032101       8.27156171
Si       4.00164390       3.55504432       3.21438298
Si       3.76871811       6.64013356      11.81976523
Si       2.12212806       2.00382968       2.18099405
Si       3.15976335       4.51812627       7.15091124
10
Lattice="3.744860611351539 -0.33213230679472083 1.0010017804815494 1.6151009804242942 4.743190888442699 2.1991786520554295 1.865877320827139 5.294218975686413 11.916839144066605" Properties=species:S:1:pos:R:3 unique_starting_index=160 config_type=initial n_minim_iter=19 stress="0.0004026577104883815 6.182873992996244e-05 -0.0001792301120243391 6.182873992996244e-05 4.5750243418664146e-05 0.00012606644059620571 -0.0001792301120243391 0.00012606644059620571 -0.0005223306652235931" pbc="T T T"
Si       4.57990771       9.45553472      12.89909034
Si       6.73751254       8.59486817      12.07426023
Si       3.54184026       0.82461434       3.85086292
Si       4.41212107       1.73783090       6.04659146
Si       2.40936093       3.69958741       4.99090198
Si       3.96099171       2.51817513       8.26068593
Si       3.99881211       3.55023303       3.20965447
Si       3.73417520       6.66836861      11.79942593
Si       2.11558295       2.01015740       2.17418030
Si       3.15369686       4.50737073       7.13501394
10
Lattice="3.7395166125518218 -0.33640906189632935 0.9869529915728467 1.5996401017331308 4.743898598536189 2.1964597382404745 1.8141450080429549 5.302339044735984 11.909582594626745" Properties=species:S:1:pos:R:3 unique_starting_index=160 config_type=initial n_minim_iter=20 stress="-0.00025265113429834805 -0.0008236964163828188 -0.0017321571856234311 -0.0008236964163828188 -0.0004578960104034059 0.0009043225893815401 -0.0017321571856234311 0.0009043225893815401 0.0003922473846203312" pbc="T T T"
Si       4.53137148       9.48203655      12.88053379
Si       6.67755208       8.61610819      12.04417330
Si       3.51301517       0.82671007       3.84862471
Si       4.39568813       1.71319865       6.03909008
Si       2.36972558       3.70859012       4.97550731
Si       3.92958271       2.49694571       8.25079883
Si       3.97949259       3.53877466       3.20297206
Si       3.67398354       6.69856729      11.78087772
Si       2.10085151       2.02515051       2.17693807
Si       3.12687213       4.47641975       7.10924684
10
Lattice="3.7445335353341664 -0.3286254334698092 0.9991043791755609 1.6240663873722605 4.747382704261481 2.1814799271498235 1.8704142252635418 5.270514314443971 11.888744627575097" Properties=species:S:1:pos:R:3 unique_starting_index=160 config_type=initial n_minim_iter=21 stress="-1.9278298428748904e-05 0.0007784788183062471 0.000391117903097891 0.0007784788183062471 0.00045954152548776175 -4.439038749482363e-05 0.000391117903097891 -4.439038749482363e-05 -0.0002734911619667036" pbc="T T T"
Si       4.61852600       9.46337399      12.85397143
Si       6.75089042       8.58723209      12.01935650
Si       3.52421531       0.82963161       3.86591759
Si       4.42759881       1.71275700       6.04269019
Si       2.39644443       3.70747611       4.96507216
Si       3.95943910       2.47986372       8.23741996
Si       4.00028060       3.54478648       3.20115220
Si       3.74321872       6.67873595      11.76024037
Si       2.11818170       2.03036167       2.18515479
Si       3.16325500       4.45858565       7.08817389
