4
Lattice="4.352080951382807 -0.058634371397418825 7.348900137737902e-13 1.8149527744222236 3.9560072072122585 2.3029690137543613e-12 -3.083516862902932 -1.948686417908611 2.3745718767285227" Properties=species:S:1:pos:R:3:tags:I:1 spacegroup="P 1" unit_cell=conventional n_minim_iter=1 energy=-1964.610454366341 free_energy=-1964.610454366341 pbc="T T T"
Ti       0.00000000       0.00000000       0.00000000        0
Al       3.08351686       1.94868642       0.00000000        1
Al       2.17604048      -0.02931719       1.18728594        2
Al       0.90747639       1.97800360       1.18728594        3
