4
Lattice="4.222364439134624 -0.0320231908224177 7.227532671774969e-13 1.783313958492331 3.8274244952794962 2.2304361346184595e-12 -3.0028391988138763 -1.8977006522296833 2.2827781149759088" Properties=species:S:1:pos:R:3:tags:I:1 spacegroup="P 1" unit_cell=conventional n_minim_iter=1 energy=-1913.0857289696635 free_energy=-1913.0857289696635 pbc="T T T"
Ti       0.00000000       0.00000000       0.00000000        0
Al       3.00283920       1.89770065       0.00000000        1
Al       2.11118222      -0.01601160       1.14138906        2
Al       0.89165698       1.91371225       1.14138906        3
4
Lattice="4.233565043159705 -0.018652873836131807 7.313323101573269e-13 1.8001974533739828 3.8318024522712593 2.2357132664274336e-12 -3.0168812482672434 -1.906574789218705 2.2774593325316115" Properties=species:S:1:pos:R:3:tags:I:1 spacegroup="P 1" unit_cell=conventional n_minim_iter=2 stress="-42.12737394035721 -0.5804650068556504 -3.272677866799193e-13 -0.5804650068556504 -41.57570705881064 -3.567943040623978e-13 -3.272677866799193e-13 -3.567943040623978e-13 -41.20887129133353" pbc="T T T"
Ti       0.00000000       0.00000000       0.00000000        0
Al       3.01688125       1.90657479       0.00000000        1
Al       2.11678252      -0.00932644       1.13872967        2
Al       0.90009873       1.91590123       1.13872967        3
4
Lattice="4.23505800293956 -0.01687486137386699 7.324848621952209e-13 1.8024441492333407 3.832387785454827 2.236407363849702e-12 -3.0187510760868514 -1.9077564620416212 2.2767538890648162" Properties=species:S:1:pos:R:3:tags:I:1 spacegroup="P 1" unit_cell=conventional n_minim_iter=3 stress="-41.341090932997155 -0.011302487289109231 2.222846651472604e-13 -0.011302487289109231 -41.330349186565556 3.311160607365735e-14 2.222846651472604e-13 3.311160607365735e-14 -41.32320636735962" pbc="T T T"
Ti       0.00000000       0.00000000       0.00000000        0
Al       3.01875108       1.90775646       0.00000000        1
Al       2.11752900      -0.00843743       1.13837694        2
Al       0.90122207       1.91619389       1.13837694        3
4
Lattice="4.235087742785766 -0.016839453125285925 7.325306109624338e-13 1.802488894637343 3.832399449559625 2.236424189647141e-12 -3.0187883187119566 -1.9077799982183101 2.2767398449278833" Properties=species:S:1:pos:R:3:tags:I:1 spacegroup="P 1" unit_cell=conventional n_minim_iter=4 stress="-41.32552471017024 9.074344962937327e-09 2.480145054199531e-13 9.074344962937327e-09 -41.325524718795755 5.436463650331554e-14 2.480145054199531e-13 5.436463650331554e-14 -41.325524724529735" pbc="T T T"
Ti       0.00000000       0.00000000       0.00000000        0
Al       3.01878832       1.90778000       0.00000000        1
Al       2.11754387      -0.00841973       1.13836992        2
Al       0.90124445       1.91619972       1.13836992        3
