4
Lattice="4.315507113400289 -0.05814162229103684 7.28714175456676e-13 1.7997003493273853 3.9227618773871593 2.283615417962204e-12 -3.057603731364251 -1.9323101275492425 2.3546165477565935" Properties=species:S:1:pos:R:3:tags:I:1 spacegroup="P 1" unit_cell=conventional n_minim_iter=1 stress="0.0013411249740967585 -0.0004652012958349141 6.98104819726881e-15 -0.0004652012958349141 0.0017832466266731793 3.9247857710325975e-14 6.98104819726881e-15 3.9247857710325975e-14 0.002077239326286856" pbc="T T T"
Ti       0.00000000       0.00000000       0.00000000        0
Al       3.05760373       1.93231013       0.00000000        1
Al       2.15775356      -0.02907081       1.17730827        2
Al       0.89985017       1.96138094       1.17730827        3
