4
Lattice="4.44366009741201 -0.12000449930410167 7.197277324403492e-13 1.798828428287821 4.065062413637524 2.3565766646541505e-12 -3.121244262850353 -1.9725289571679556 2.4753747001095894" Properties=species:S:1:pos:R:3:tags:I:1 spacegroup="P 1" unit_cell=conventional n_minim_iter=3 stress="5.66115096628207 -0.0012661714373661261 -1.582111188904006e-14 -0.0012661714373661261 5.662354320214024 -8.58821416799274e-15 -1.582111188904006e-14 -8.58821416799274e-15 5.663154501044003" pbc="T T T"
Ti       0.00000000       0.00000000       0.00000000        0
Al       3.12124426       1.97252896       0.00000000        1
Al       2.22183005      -0.06000225       1.23768735        2
Al       0.89941421       2.03253121       1.23768735        3
