4
Lattice="4.275550482798924 0.1705608552044669 8.398556114671283e-13 1.9891172510618187 3.788513626452793 2.2458751633301955e-12 -3.13233386693075 -1.9795372408297007 2.1399392034675215" Properties=species:S:1:pos:R:3:tags:I:1 spacegroup="P 1" unit_cell=conventional n_minim_iter=5 stress="9.631519995941769 -0.0009543528809247421 7.687016624830065e-15 -0.0009543528809247421 9.632427001310342 -3.485660431390219e-14 7.687016624830065e-15 -3.485660431390219e-14 9.633030122544927" pbc="T T T"
Ti       0.00000000       0.00000000       0.00000000        0
Al       3.13233387       1.97953724       0.00000000        1
Al       2.13777524       0.08528043       1.06996960        2
Al       0.99455863       1.89425681       1.06996960        3
