4
Lattice="4.492247898506842 -0.18484672410624464 6.996571921701445e-13 1.761116177883459 4.136777647039916 2.3922736768811496e-12 -3.1266820381956033 -1.9759654614681208 2.5561454223424036" Properties=species:S:1:pos:R:3:tags:I:1 spacegroup="P 1" unit_cell=conventional n_minim_iter=3 stress="4.25881897653809 -0.00018720430502085371 -9.166491782224666e-15 -0.00018720430502085371 4.258996893232368 1.1377786252477519e-14 -9.166491782224666e-15 1.1377786252477519e-14 4.259115200510321" pbc="T T T"
Ti       0.00000000       0.00000000       0.00000000        0
Al       3.12668204       1.97596546       0.00000000        1
Al       2.24612395      -0.09242336       1.27807271        2
Al       0.88055809       2.06838882       1.27807271        3
