4
Lattice="4.8789750051616 0.8394064472147988 1.2883458559484453e-12 2.8522146521530205 4.046464118543637 2.5322987621403668e-12 -3.865594828657643 -2.442935282880162 1.8969038217400203" Properties=species:S:1:pos:R:3:tags:I:1 spacegroup="P 1" unit_cell=conventional n_minim_iter=4 stress="803.5704187968474 -1.5695696908193452e-07 1.3235447138113028e-11 -1.5695696908193452e-07 803.5704189460536 1.2726510816758123e-11 1.3235447138113028e-11 1.2726510816758123e-11 803.5704190452258" pbc="T T T"
Ti       0.00000000       0.00000000       0.00000000        0
Al       3.86559483       2.44293528       0.00000000        1
Al       2.43948750       0.41970322       0.94845191        2
Al       1.42610733       2.02323206       0.94845191        3
