4
Lattice="2.053554208809401 -3.556860225754789 -2.826572221024676e-18 2.053554208809401 3.556860225754789 2.826572221024631e-18 -8.632147515054042e-32 -1.5518019897625658e-18 6.800450315327763" Properties=species:S:1:pos:R:3:forces:R:3 cutoff=-1.0 nneightol=1.2 n_minim_iter=4 energy=-652.0691571624457 stress="0.062471157379657284 2.7247773509079377e-17 -2.6192439792927123e-17 2.7247773509079377e-17 0.06247115737965752 -3.01873089483093e-17 -2.6192439792927123e-17 -3.01873089483093e-17 0.06264024257118594" free_energy=-652.0691571624457 pbc="T T T"
Si       2.05355421       1.18562008       0.43866416       0.00000000      -0.00000000       0.00226888
Si       2.05355421      -1.18562008       3.83888932       0.00000000       0.00000000       0.00226888
Si       2.05355421       1.18562008       2.96156099      -0.00000000      -0.00000000      -0.00226888
Si       2.05355421      -1.18562008      -0.43866416      -0.00000000       0.00000000      -0.00226888
