1
Lattice="2.6872202348718206 -2.987158239827968e-17 -2.191823014109402e-56 1.34361011743591 2.327200988962582 7.71691446703937e-56 1.5687501377496995e-55 -2.0624842387878528e-55 2.3143417178967716" Properties=species:S:1:pos:R:3:forces:R:3 cutoff=-1.0 nneightol=1.2 n_minim_iter=2 energy=-3.343225595767576 stress="-0.43455406977918165 -1.3034695842922775e-16 5.709580323527252e-18 -1.3034695842922775e-16 -0.4345540697791814 7.264097103724241e-19 5.709580323527252e-18 7.264097103724241e-19 -0.43592705745420257" free_energy=-3.343225595767576 pbc="T T T"
Si       0.00000000       0.00000000       0.00000000       0.00000000       0.00000000       0.00000000
