20
Lattice="5.349915400394655 -2.4138228948624533e-18 9.47001034418399e-24 2.7255669754630107e-18 6.040854433799521 -1.766558896689768e-15 -2.590321458017758e-23 4.279370366202752e-15 14.63356443931004" Properties=species:S:1:pos:R:3 unique_starting_index=4 config_type=initial n_minim_iter=1 energy=-3253.0885456195083 free_energy=-3253.0885456195083 pbc="T T T"
Si       3.33367248       3.44426565       8.38552052
Si       3.33367248       2.59658879       6.24804391
Si       1.73823528       1.92672796       7.78717288
Si       1.73823528       4.11412647       6.84639156
Si       2.01624292       0.42383843      13.56482613
Si       2.01624292       5.61701600       1.06873831
Si       3.61168012       4.94715518      14.16317378
Si       3.61168012       1.09369925       0.47039066
Si       2.20658436       4.84805273       3.15537049
Si       2.20658436       1.19280170      11.47819395
Si       2.26746055       5.06044181      12.17239449
Si       2.26746055       0.98041262       2.46116995
Si       3.14333104       1.82762551       4.16141173
Si       3.14333104       4.21322892      10.47215271
Si       3.08245485       2.04001459       9.77795217
Si       3.08245485       4.00083984       4.85561227
Si       4.58550482       3.09510687      13.84794316
Si       4.58550482       2.94574757       0.78562128
Si       0.76441058       5.96617478       6.53116094
Si       0.76441058       0.07467965       8.10240350
20
Lattice="5.354696129595818 -2.4283072791468227e-18 1.0495061108926322e-23 2.716588739452674e-18 6.052505962838224 -1.7699659203805917e-15 -2.3122562709507388e-23 4.286122704375587e-15 14.656652089303508" Properties=species:S:1:pos:R:3 unique_starting_index=4 config_type=initial n_minim_iter=2 stress="0.0030370825640576023 1.5437544286071886e-16 -1.12392567881375e-16 1.5437544286071886e-16 0.002449056944090536 3.6519550260389586e-16 -1.12392567881375e-16 3.6519550260389586e-16 -0.001247082432867222" pbc="T T T"
Si       3.33668129       3.45084524       8.39890119
Si       3.33668129       2.60166072       6.25775090
Si       1.73984640       1.93054043       7.79939919
Si       1.73984640       4.12196553       6.85725289
Si       2.01801484       0.42459226      13.58607694
Si       2.01801484       5.62791370       1.07057515
Si       3.61484973       4.95679341      14.18557894
Si       3.61484973       1.09571255       0.47107315
Si       2.20854540       4.85735942       3.16037554
Si       2.20854540       1.19514655      11.49627655
Si       2.26955707       5.07018763      12.19150937
Si       2.26955707       0.98231834       2.46514272
Si       3.14615073       1.83110644       4.16795051
Si       3.14615073       4.22139953      10.48870158
Si       3.08513906       2.04393465       9.79346876
Si       3.08513906       4.00857132       4.86318333
Si       4.58958379       3.10103921      13.86977412
Si       4.58958379       2.95146675       0.78687797
Si       0.76511234       5.97771973       6.54144808
Si       0.76511234       0.07478623       8.11520401
20
Lattice="5.343195947093099 -2.4234343801452845e-18 1.0833600613187949e-23 2.7153460086827897e-18 6.050478837710849 -1.769392282016891e-15 -2.2205002730402956e-23 4.299535674882002e-15 14.702678713291476" Properties=species:S:1:pos:R:3 unique_starting_index=4 config_type=initial n_minim_iter=3 stress="0.0011317810737670457 -1.4604161127642813e-16 9.804232920156851e-17 -1.4604161127642813e-16 -0.0007063996949432708 1.9439125307446193e-16 9.804232920156851e-17 1.9439125307446193e-16 0.003223951157550099" pbc="T T T"
Si       3.32956050       3.44921801       8.42621073
Si       3.32956050       2.60126083       6.27646798
Si       1.73619044       1.92986274       7.82359080
Si       1.73619044       4.12061609       6.87908791
Si       2.01363544       0.42397859      13.62780734
Si       2.01363544       5.62650025       1.07487137
Si       3.60700551       4.95510216      14.23042727
Si       3.60700551       1.09537667       0.47225144
Si       2.20375089       4.85552428       3.17035883
Si       2.20375089       1.19495456      11.53231989
Si       2.26519580       5.06845076      12.22921432
Si       2.26519580       0.98202807       2.47346439
Si       3.13944506       1.83028486       4.18098053
Si       3.13944506       4.22019398      10.52169818
Si       3.07800014       2.04321134       9.82480375
Si       3.07800014       4.00726749       4.87787496
Si       4.57913332       3.10062628      13.91345698
Si       4.57913332       2.94985256       0.78922173
Si       0.76406263       5.97509198       6.56211762
Si       0.76406263       0.07538686       8.14056109
20
Lattice="5.32291114294441 -2.4169423721440298e-18 1.088312584725543e-23 2.7192197548225926e-18 6.065657064653067 -1.7738366725549371e-15 -2.197643109350377e-23 4.2979222922465715e-15 14.697209899044973" Properties=species:S:1:pos:R:3 unique_starting_index=4 config_type=initial n_minim_iter=4 stress="-0.003147632711882566 1.573375851030949e-15 -4.661724393656634e-16 1.573375851030949e-15 0.002355087374973304 6.705981201163528e-16 -4.661724393656634e-16 6.705981201163528e-16 0.0004929474842580626" pbc="T T T"
Si       3.31697097       3.45659278       8.42543428
Si       3.31697097       2.60906428       6.27177562
Si       1.73032248       1.93532324       7.81968492
Si       1.73032248       4.13033382       6.87752498
Si       2.00594017       0.42376425      13.62038057
Si       2.00594017       5.64189282       1.07682933
Si       3.59258866       4.96815178      14.22612993
Si       3.59258866       1.09750529       0.47107997
Si       2.19529200       4.86716601       3.16918714
Si       2.19529200       1.19849106      11.52802276
Si       2.25801588       5.08104899      12.22318840
Si       2.25801588       0.98460808       2.47402150
Si       3.12761914       1.83433748       4.17941781
Si       3.12761914       4.23131959      10.51779209
Si       3.06489527       2.04822046       9.82262645
Si       3.06489527       4.01743661       4.87458345
Si       4.56059073       3.10940836      13.90876564
Si       4.56059073       2.95624871       0.78844425
Si       0.76232041       5.98907724       6.56016069
Si       0.76232041       0.07657982       8.13704920
20
Lattice="5.331389901815792 -2.420415471351864e-18 1.1081338184412854e-23 2.725865704041294e-18 6.079474841292874 -1.777877698287425e-15 -2.1356121872762125e-23 4.282216128269461e-15 14.643504700729514" Properties=species:S:1:pos:R:3 unique_starting_index=4 config_type=initial n_minim_iter=5 stress="-0.0021837245831591015 -7.842011498643817e-17 -2.1485123225963744e-16 -7.842011498643817e-17 -0.0019268299576473305 6.561325057030844e-17 -2.1485123225963744e-16 6.561325057030844e-17 -0.003024775853881933" pbc="T T T"
Si       3.32321051       3.45434399       8.41267575
Si       3.32321051       2.62513085       6.23082895
Si       1.73754152       1.94233727       7.78384482
Si       1.73754152       4.13713757       6.85965988
Si       2.00817939       0.41460657      13.55258130
Si       2.00817939       5.66486827       1.09092340
Si       3.59384838       4.98207469      14.18141223
Si       3.59384838       1.09740015       0.46209247
Si       2.19826435       4.87516696       3.15717300
Si       2.19826435       1.20430788      11.48633170
Si       2.27251402       5.09284525      12.16677234
Si       2.27251402       0.98662959       2.47673236
Si       3.13312555       1.83542954       4.16457935
Si       3.13312555       4.24404530      10.47892535
Si       3.05887588       2.05310783       9.79848471
Si       3.05887588       4.02636701       4.84501999
Si       4.55835274       3.12607080      13.86238577
Si       4.55835274       2.95340404       0.78111893
Si       0.77303716       5.99314146       6.54063342
Si       0.77303716       0.08633338       8.10287128
20
Lattice="5.337394980169981 -2.424867110432928e-18 1.1038180800389823e-23 2.7201757646161623e-18 6.071344111641093 -1.7754993236118548e-15 -2.1535019067332057e-23 4.287413961275478e-15 14.66127296705645" Properties=species:S:1:pos:R:3 unique_starting_index=4 config_type=initial n_minim_iter=6 stress="-0.0010164501143468485 1.6506677987398391e-15 -4.893875119463328e-16 1.6506677987398391e-15 -0.002360481582683971 7.993660410602449e-16 -4.893875119463328e-16 7.993660410602449e-16 -0.0010896033179252226" pbc="T T T"
Si       3.32699953       3.44086401       8.42679919
Si       3.32699953       2.63048010       6.23447378
Si       1.74614241       1.94519383       7.78701484
Si       1.74614241       4.12615028       6.87425812
Si       2.01039545       0.40519195      13.56511026
Si       2.01039545       5.66615216       1.09616270
Si       3.59125257       4.98086589      14.20489461
Si       3.59125257       1.09047822       0.45637836
Si       2.20037364       4.86755168       3.16124148
Si       2.20037364       1.20379243      11.50003149
Si       2.28301255       5.08763928      12.17297517
Si       2.28301255       0.98370484       2.48829779
Si       3.13702134       1.83187963       4.16939501
Si       3.13702134       4.23946448      10.49187796
Si       3.05438243       2.05196722       9.81893428
Si       3.05438243       4.01937689       4.84233869
Si       4.55812186       3.12553114      13.87997485
Si       4.55812186       2.94581298       0.78129812
Si       0.77927312       5.98148503       6.54933837
Si       0.77927312       0.08985908       8.11193460
20
Lattice="5.338800528301659 -2.425337809585685e-18 1.1059676791771247e-23 2.7262535670938944e-18 6.084311555657322 -1.7792953050722553e-15 -2.147284134052085e-23 4.286147428466977e-15 14.656974295269606" Properties=species:S:1:pos:R:3 unique_starting_index=4 config_type=initial n_minim_iter=7 stress="0.0008425327163427286 1.5683806825200394e-15 -3.257962102465613e-16 1.5683806825200394e-15 0.0011110797710893957 6.338699461413369e-16 -3.257962102465613e-16 6.338699461413369e-16 0.0013272206126294026" pbc="T T T"
Si       3.33096654       3.43793449       8.42435145
Si       3.33096654       2.64637706       6.23262285
Si       1.75237492       1.94972678       7.77861025
Si       1.75237492       4.13458478       6.87836404
Si       2.00783398       0.39577872      13.56110999
Si       2.00783398       5.68853284       1.09586430
Si       3.58642561       4.99188256      14.20685119
Si       3.58642561       1.09242900       0.45012310
Si       2.20043144       4.87652652       3.16133214
Si       2.20043144       1.20778503      11.49564216
Si       2.29341977       5.10090966      12.15932194
Si       2.29341977       0.98340190       2.49765236
Si       3.13836908       1.83437074       4.16715501
Si       3.13836908       4.24994081      10.48981928
Si       3.04538075       2.05875388       9.82613950
Si       3.04538075       4.02555767       4.83083479
Si       4.55207716       3.13719110      13.87629252
Si       4.55207716       2.94712046       0.78068177
Si       0.78672337       5.98927624       6.54780537
Si       0.78672337       0.09503532       8.10916892
20
Lattice="5.339785132468171 -2.427588319167372e-18 1.1161393029809927e-23 2.7295133421868933e-18 6.09596130334536 -1.7826971878165416e-15 -2.1134707873551633e-23 4.277207190871196e-15 14.62636280053974" Properties=species:S:1:pos:R:3 unique_starting_index=4 config_type=initial n_minim_iter=8 stress="0.0009696075278332406 1.353894850173399e-15 -4.3749155628342547e-16 1.353894850173399e-15 0.001815238382306924 7.936584778789465e-16 -4.3749155628342547e-16 7.936584778789465e-16 0.0009311564969893375" pbc="T T T"
Si       3.34413851       3.42695931       8.40506155
Si       3.34413851       2.66900199       6.22130125
Si       1.76318245       1.95121336       7.75323394
Si       1.76318245       4.14474794       6.87312886
Si       1.99564662       0.37897866      13.53448265
Si       1.99564662       5.71698264       1.09188015
Si       3.57660269       4.99919401      14.18631026
Si       3.57660269       1.09676729       0.44005254
Si       2.19930175       4.88568340       3.15548136
Si       2.19930175       1.21027790      11.47088144
Si       2.31348054       5.11870809      12.11455572
Si       2.31348054       0.97725321       2.51180708
Si       3.14048339       1.83770275       4.15770004
Si       3.14048339       4.25825856      10.46866276
Si       3.02630460       2.07072744       9.82498848
Si       3.02630460       4.02523386       4.80137432
Si       4.54043469       3.14587067      13.84541335
Si       4.54043469       2.95009064       0.78094945
Si       0.79935044       5.99807129       6.53223195
Si       0.79935044       0.09789002       8.09413085
20
Lattice="5.334022488845216 -2.4290929914863997e-18 1.1180397431078719e-23 2.7200153876667524e-18 6.085226053134056 -1.779554577619581e-15 -2.104238731742054e-23 4.27476184620594e-15 14.617973701599148" Properties=species:S:1:pos:R:3 unique_starting_index=4 config_type=initial n_minim_iter=9 stress="-0.001306009633188571 1.5833014305567428e-15 -1.5364163107004174e-16 1.5833014305567428e-15 -0.0021197665539744994 1.4670392025911202e-15 -1.5364163107004174e-16 1.4670392025911202e-15 -0.000831734263761319" pbc="T T T"
Si       3.35480739       3.42079287       8.40150407
Si       3.35480739       2.66443318       6.21646963
Si       1.76533346       1.94177256       7.75077109
Si       1.76533346       4.14345349       6.86720261
Si       1.97921510       0.37817984      13.52545648
Si       1.97921510       5.70704621       1.09251722
Si       3.56868903       4.98438559      14.17618946
Si       3.56868903       1.10084046       0.44178424
Si       2.19470965       4.87799942       3.15130963
Si       2.19470965       1.20722663      11.46666408
Si       2.31944014       5.11481983      12.10231402
Si       2.31944014       0.97040622       2.51565968
Si       3.13931284       1.83538640       4.15767723
Si       3.13931284       4.24983966      10.46029648
Si       3.01458235       2.07220681       9.82464653
Si       3.01458235       4.01301925       4.79332717
Si       4.53167130       3.13017615      13.83440510
Si       4.53167130       2.95504990       0.78356860
Si       0.80235119       5.99766293       6.52541825
Si       0.80235119       0.08756312       8.09255545
20
Lattice="5.347826511478729 -2.4381897682924867e-18 1.1193794170195685e-23 2.7117839415886816e-18 6.074469746500621 -1.7764109482166602e-15 -2.106565421494515e-23 4.275484526882109e-15 14.620460293473451" Properties=species:S:1:pos:R:3 unique_starting_index=4 config_type=initial n_minim_iter=10 stress="0.0026731888058664725 1.6055265791081343e-15 -7.643834114595664e-17 1.6055265791081343e-15 0.004458117267999682 7.300796605018625e-16 -7.643834114595664e-17 7.300796605018625e-16 0.0007954008897415765" pbc="T T T"
Si       3.37586406       3.41927614       8.40357829
Si       3.37586406       2.65519361       6.21688200
Si       1.78368934       1.93230126       7.75239575
Si       1.78368934       4.14216849       6.86806455
Si       1.97196245       0.38204127      13.52711215
Si       1.97196245       5.69242848       1.09334814
Si       3.56413717       4.96953613      14.17829469
Si       3.56413717       1.10493361       0.44216560
Si       2.19517009       4.85973107       3.14834006
Si       2.19517009       1.21473868      11.47212023
Si       2.33837321       5.10163724      12.10163875
Si       2.33837321       0.97283251       2.51882154
Si       3.15265642       1.82249620       4.16189009
Si       3.15265642       4.25197355      10.45857021
Si       3.00945330       2.06440236       9.82905169
Si       3.00945330       4.01006738       4.79140860
Si       4.53120195       3.11552298      13.83668557
Si       4.53120195       2.95894676       0.78377472
Si       0.81662456       5.99618163       6.52645543
Si       0.81662456       0.07828811       8.09400487
20
Lattice="5.361498827909521 -2.4482489472759793e-18 1.1128119244798326e-23 2.6904772392522982e-18 6.037611523172557 -1.7656335011519385e-15 -2.1355663213725284e-23 4.283360202949223e-15 14.647400120845553" Properties=species:S:1:pos:R:3 unique_starting_index=4 config_type=initial n_minim_iter=11 stress="0.002052144081229138 7.383112588002949e-16 1.8035575725381237e-16 7.383112588002949e-16 0.003070420910613779 6.716071415037291e-16 1.8035575725381237e-16 6.716071415037291e-16 0.00041219472071471095" pbc="T T T"
Si       3.40992407       3.39877988       8.41906356
Si       3.40992407       2.63883164       6.22833656
Si       1.82156379       1.91296982       7.75939505
Si       1.82156379       4.12464170       6.88800507
Si       1.95157476       0.37997412      13.55203662
Si       1.95157476       5.65763740       1.09536350
Si       3.53993503       4.93177558      14.21170513
Si       3.53993503       1.10583594       0.43569499
Si       2.18963478       4.81547933       3.14572205
Si       2.18963478       1.22213220      11.50167807
Si       2.37624300       5.06980617      12.11033056
Si       2.37624300       0.96780535       2.53706956
Si       3.17186405       1.79667356       4.17797801
Si       3.17186405       4.24093796      10.46942212
Si       2.98525583       2.05100041       9.86076962
Si       2.98525583       3.98661112       4.78663050
Si       4.51308685       3.08208748      13.86097114
Si       4.51308685       2.95552404       0.78642898
Si       0.84841198       5.97432980       6.53727108
Si       0.84841198       0.06328172       8.11012904
20
Lattice="5.351032349318255 -2.444246642412273e-18 1.1061131297102659e-23 2.6870025179077584e-18 6.031639665916545 -1.7638854336228147e-15 -2.1535340388476727e-23 4.288682767586325e-15 14.665586535648108" Properties=species:S:1:pos:R:3 unique_starting_index=4 config_type=initial n_minim_iter=12 stress="-0.003482610957579355 -2.858593860260804e-16 1.5234106356836037e-16 -2.858593860260804e-16 -0.004509253255598667 6.558933666450712e-16 1.5234106356836037e-16 6.558933666450712e-16 -0.00018291868489162612" pbc="T T T"
Si       3.41814224       3.39292386       8.43217285
Si       3.41814224       2.63871580       6.23341368
Si       1.83677776       1.90601143       7.76044495
Si       1.83677776       4.12562823       6.90514159
Si       1.93289011       0.37710403      13.56620695
Si       1.93289011       5.65453564       1.09937958
Si       3.51425459       4.92183127      14.23793486
Si       3.51425459       1.10980840       0.42765168
Si       2.17749969       4.80767359       3.14110497
Si       2.17749969       1.22396607      11.52448157
Si       2.39031472       5.07188394      12.11550886
Si       2.39031472       0.95975573       2.55007767
Si       3.17353266       1.79185376       4.19168830
Si       3.17353266       4.23978591      10.47389824
Si       2.96071763       2.05606410       9.88287094
Si       2.96071763       3.97557556       4.78271560
Si       4.48149079       3.07440118      13.87719643
Si       4.48149079       2.95723849       0.78839011
Si       0.86954156       5.97305832       6.54440316
Si       0.86954156       0.05858135       8.12118337
20
Lattice="5.367816069271034 -2.4515708603773452e-18 1.1172591177906571e-23 2.6884756044903265e-18 6.034480780115659 -1.764715040503923e-15 -2.1242360070938894e-23 4.281041667999903e-15 14.639447485869015" Properties=species:S:1:pos:R:3 unique_starting_index=4 config_type=initial n_minim_iter=13 stress="0.0021091579721725113 -3.428177039580428e-16 4.78815131847152e-16 -3.428177039580428e-16 0.0010365851775463522 1.0217805460125583e-15 4.78815131847152e-16 1.0217805460125583e-15 0.0004557577149017154" pbc="T T T"
Si       3.43132823       3.39644502       8.41503384
Si       3.43132823       2.63803576       6.22441365
Si       1.84526046       1.90602342       7.74577295
Si       1.84526046       4.12845736       6.89367453
Si       1.93648784       0.37920463      13.54413739
Si       1.93648784       5.65527615       1.09531010
Si       3.52255561       4.92326381      14.21339828
Si       3.52255561       1.11121697       0.42604921
Si       2.18188626       4.80918766       3.13349566
Si       2.18188626       1.22529312      11.50595183
Si       2.39834043       5.07668936      12.09623353
Si       2.39834043       0.95779142       2.54321395
Si       3.18592981       1.79194727       4.18622808
Si       3.18592981       4.24253351      10.45321940
Si       2.96947564       2.05944897       9.86293770
Si       2.96947564       3.97503181       4.77650979
Si       4.48861563       3.07340307      13.85090327
Si       4.48861563       2.96107771       0.78854421
Si       0.87920044       5.97831810       6.53117953
Si       0.87920044       0.05616268       8.10826795
20
Lattice="5.360144731897306 -2.4460367026435232e-18 1.1274769096324637e-23 2.7009942069668925e-18 6.056664159470552 -1.7712003894610861e-15 -2.0861392006742946e-23 4.271081462164432e-15 14.605373588725511" Properties=species:S:1:pos:R:3 unique_starting_index=4 config_type=initial n_minim_iter=14 stress="-0.0007826303802075897 -9.26049151559016e-16 7.77483238369586e-16 -9.26049151559016e-16 0.004430731607308518 4.2321968178076397e-16 7.77483238369586e-16 4.2321968178076397e-16 -0.0006978241209723765" pbc="T T T"
Si       3.43623806       3.41034049       8.39748179
Si       3.43623806       2.64632367       6.20789179
Si       1.85194636       1.91178004       7.72135283
Si       1.85194636       4.14488412       6.88402076
Si       1.92390667       0.38200841      13.51057859
Si       1.92390667       5.67465575       1.09479500
Si       3.50819837       4.94011212      14.18670755
Si       3.50819837       1.11655204       0.41866604
Si       2.16963120       4.82109198       3.12152376
Si       2.16963120       1.23557217      11.48384983
Si       2.39987059       5.10546646      12.07159618
Si       2.39987059       0.95119770       2.53377741
Si       3.19051353       1.79275990       4.18116303
Si       3.19051353       4.26390425      10.42421056
Si       2.96027414       2.07713438       9.83646421
Si       2.96027414       3.97952978       4.76890938
Si       4.44900213       3.07894825      13.81504057
Si       4.44900213       2.97771591       0.79033302
Si       0.91114260       6.00604799       6.51235378
Si       0.91114260       0.05061617       8.09301981
20
Lattice="5.588684748293681 -2.6587979607962256e-18 1.7078511392861842e-23 2.5131532275929306e-18 5.9223923483863175 -1.7319254013914804e-15 -4.671046875042731e-24 4.143099907115445e-15 14.167657950922043" Properties=species:S:1:pos:R:3 unique_starting_index=4 config_type=initial n_minim_iter=15 stress="-0.0008610433174575607 2.746582298615622e-16 1.4330097539903512e-15 2.746582298615622e-16 -0.05763921555463644 4.3208406287063726e-18 1.4330097539903512e-15 4.3208406287063726e-18 -0.04658913189376145" pbc="T T T"
Si       3.80128637       3.31707544       8.14741677
Si       3.80128637       2.60531691       6.02024118
Si       2.10918070       1.87968235       7.39521863
Si       2.10918070       4.04271000       6.77243932
Si       1.78739838       0.35587927      13.10407016
Si       1.78739838       5.56651308       1.06358779
Si       3.47950405       4.84087852      13.85626830
Si       3.47950405       1.08151383       0.31138965
Si       2.10951391       4.57051902       3.01735610
Si       2.10951391       1.35187333      11.15030185
Si       2.60987050       5.16167497      11.73291782
Si       2.60987050       0.76071738       2.43474013
Si       3.47917084       1.60932284       4.06647288
Si       3.47917084       4.31306950      10.10118507
Si       2.97881424       2.20047879       9.51856910
Si       2.97881424       3.72191356       4.64908885
Si       3.99364825       2.83499826      13.32542870
Si       3.99364825       3.08739409       0.84222925
Si       1.59503650       6.04859026       6.24159973
Si       1.59503650      -0.12619792       7.92605822
20
Lattice="5.593801326079516 -2.6978409776822583e-18 1.7669549335600891e-23 2.470149920726294e-18 5.919420976041632 -1.7305393766429742e-15 -3.0327128052770387e-24 4.141651711154168e-15 14.158421708126774" Properties=species:S:1:pos:R:3 unique_starting_index=4 config_type=initial n_minim_iter=16 stress="-0.00048984397625065 5.804593518341988e-16 1.6466039712006584e-15 5.804593518341988e-16 -0.06308383668960112 1.0609309901632647e-16 1.6466039712006584e-15 1.0609309901632647e-16 -0.049130758986595274" pbc="T T T"
Si       3.80998178       3.31491876       8.14219888
Si       3.80998178       2.60450222       6.01622283
Si       2.11555147       1.87884435       7.38816966
Si       2.11555147       4.04057663       6.77025204
Si       1.78381955       0.35520827      13.09543368
Si       1.78381955       5.56421271       1.06298803
Si       3.47824985       4.83855483      13.84946290
Si       3.47824985       1.08086614       0.30895881
Si       2.10790189       4.56489356       3.01502167
Si       2.10790189       1.35452742      11.14340004
Si       2.61516990       5.16291822      11.72550161
Si       2.61516990       0.75650275       2.43292010
Si       3.48589943       1.60518307       4.06418919
Si       3.48589943       4.31423791      10.09423252
Si       2.97863143       2.20320774       9.51213096
Si       2.97863143       3.71621324       4.64629075
Si       3.98246802       2.82955091      13.31505831
Si       3.98246802       3.08987006       0.84336339
Si       1.61133330       6.04958055       6.23584746
Si       1.61133330      -0.13015957       7.92257425
20
Lattice="5.5502743129729275 -2.7420012120022302e-18 1.8520931555896657e-23 2.4427949435381774e-18 6.006271429569401 -1.7559925853939497e-15 -1.1090425986353807e-24 4.177440802321697e-15 14.281235080038494" Properties=species:S:1:pos:R:3 unique_starting_index=4 config_type=initial n_minim_iter=17 stress="-0.006931854200367437 1.8942975414671223e-16 8.956557091500931e-16 1.8942975414671223e-16 -0.04283296323243103 1.8110166600949353e-15 8.956557091500931e-16 1.8110166600949353e-15 -0.00610701355181524" pbc="T T T"
Si       3.86861900       3.26681951       8.24374293
Si       3.86861900       2.73945192       6.03749215
Si       2.21121915       1.92578935       7.41910629
Si       2.21121915       4.08048208       6.86212879
Si       1.68165531       0.26368380      13.17810969
Si       1.68165531       5.74258763       1.10312539
Si       3.33905516       4.92892506      14.00274633
Si       3.33905516       1.07734637       0.27848875
Si       2.04878348       4.55904936       3.05863856
Si       2.04878348       1.44722207      11.22259652
Si       2.70411694       5.33007612      11.74354834
Si       2.70411694       0.67619531       2.53768674
Si       3.50149083       1.55591365       4.08197898
Si       3.50149083       4.45035778      10.19925610
Si       2.84615738       2.32694041       9.67830428
Si       2.84615738       3.67933102       4.60293080
Si       3.62939103       2.83190815      13.39959869
Si       3.62939103       3.17436328       0.88163639
Si       1.92088328       6.17749900       6.25898115
Si       1.92088328      -0.17122757       8.02225393
20
Lattice="5.486199851237868 -2.8354984765327462e-18 1.8702390816205636e-23 2.502871516684233e-18 6.39745539508158 -1.873494262148637e-15 -4.347219704776997e-26 4.123691258231179e-15 14.124282647130073" Properties=species:S:1:pos:R:3 unique_starting_index=4 config_type=initial n_minim_iter=18 stress="-0.00875617306373892 3.9819581932225386e-16 2.212696678798576e-15 3.9819581932225386e-16 0.05569874770163775 -2.3487506496862415e-17 2.212696678798576e-15 -2.3487506496862415e-17 0.06422821269857479" pbc="T T T"
Si       4.00881489       3.31586861       8.22413921
Si       4.00881489       3.08158679       5.90014344
Si       2.40753009       2.10378888       7.28340000
Si       2.40753009       4.29366651       6.84088264
Si       1.47738497       0.11714091      12.96228476
Si       1.47738497       6.28031449       1.16199789
Si       3.07866976       5.30251658      13.90302397
Si       3.07866976       1.09493881       0.22125868
Si       1.90667249       4.68021752       3.02791097
Si       1.90667249       1.71723788      11.09637168
Si       2.81387147       5.98645834      11.53667538
Si       2.81387147       0.41099706       2.58760727
Si       3.57952736       1.48148982       4.03423035
Si       3.57952736       4.91596558      10.09005229
Si       2.67232838       2.78773064       9.64974860
Si       2.67232838       3.60972476       4.47453405
Si       2.66343479       2.85945492      13.14456703
Si       2.66343479       3.53800048       0.97971562
Si       2.82276507       6.73672817       6.08242570
Si       2.82276507      -0.33927278       8.04185694
20
Lattice="5.485493189821187 -2.914269856561587e-18 1.8692249412034365e-23 2.429234601560458e-18 6.427277634964652 -1.8828231557310014e-15 -2.7531834787553964e-26 4.118653789519273e-15 14.112222695373601" Properties=species:S:1:pos:R:3 unique_starting_index=4 config_type=initial n_minim_iter=19 stress="-0.005878663398534372 4.2981811966241106e-16 1.9877623696211154e-15 4.2981811966241106e-16 0.07213922116911618 -2.120936953631053e-16 1.9877623696211154e-15 -2.120936953631053e-16 0.06846594068590346" pbc="T T T"
Si       4.02123693       3.32288419       8.22149134
Si       4.02123693       3.10439345       5.89073136
Si       2.42581890       2.11861106       7.27593070
Si       2.42581890       4.30866658       6.83629200
Si       1.46425626       0.10924537      12.94684271
Si       1.46425626       6.31803227       1.16537999
Si       3.05967429       5.33224988      13.89240334
Si       3.05967429       1.09502776       0.21981935
Si       1.89610860       4.68527561       3.02397704
Si       1.89610860       1.74200203      11.08824566
Si       2.82108314       6.03937740      11.52631136
Si       2.82108314       0.38790023       2.58591133
Si       3.58938459       1.47163679       4.03213431
Si       3.58938459       4.95564084      10.08008838
Si       2.66441005       2.82573858       9.64202268