10
Lattice="4.030843780460539 -9.85811158166069e-26 -1.7087822649959357e-25 1.6992634605612974e-25 6.948050338676928 6.386698399342661e-14 3.842048746660463e-25 -8.33077799752686e-14 9.06300270780224" Properties=species:S:1:pos:R:3 unique_starting_index=45 config_type=initial n_minim_iter=1 energy=-1625.89676226671 free_energy=-1625.89676226671 pbc="T T T"
Si       3.02965723       2.89709970       7.77268257
Si       1.00118655       4.05095064       7.77268257
Si       1.00118655       6.37112487       7.77268257
Si       3.02965723       0.57692547       7.77268257
Si       3.01016047       6.36785461       3.76292140
Si       1.02068331       0.58019573       3.76292140
Si       1.02068331       2.89382944       3.76292140
Si       3.01016047       4.05422090       3.76292140
Si       1.56454261       5.21103775       5.58093679
Si       2.46630117       1.73701258       5.58093679
10
Lattice="4.020355098280599 -9.84306455411255e-26 -1.7061968430263684e-25 1.6962556837147232e-25 6.9432096382849355 6.382157949122834e-14 3.8365393939838803e-25 -8.3279974440262e-14 9.059849272000907" Properties=species:S:1:pos:R:3 unique_starting_index=45 config_type=initial n_minim_iter=2 stress="0.00011534591244954452 -1.1853001229183711e-17 -1.1853001229233526e-17 -1.1853001229183711e-17 -0.0014151434061442651 1.1358478335897294e-17 -1.1853001229233526e-17 1.1358478335897294e-17 -0.0013474262301744297" pbc="T T T"
Si       3.02178939       2.89499423       7.76989343
Si       0.99856570       4.04821541       7.76989343
Si       0.99856570       6.36659905       7.76989343
Si       3.02178939       0.57661059       7.76989343
Si       3.00266503       6.36355904       3.76155042
Si       1.01769007       0.57965059       3.76155042
Si       1.01769007       2.89195423       3.76155042
Si       3.00266503       4.05125541       3.76155042
Si       1.56065259       5.20740723       5.57928762
Si       2.45970251       1.73580241       5.57928762
10
Lattice="4.009692116985011 -9.781901608944494e-26 -1.688938146966191e-25 1.7059566926256067e-25 6.958173304955125 6.393971663763247e-14 3.8741611043496027e-25 -8.350071767368495e-14 9.081108887379036" Properties=species:S:1:pos:R:3 unique_starting_index=45 config_type=initial n_minim_iter=3 stress="-0.0006483728592420614 1.9198315031710003e-17 -3.352173694543825e-17 1.9198315031710003e-17 0.0004673462556792931 1.4516514736663394e-17 -3.352173694543825e-17 1.4516514736663394e-17 0.0007806008818912382" pbc="T T T"
Si       3.01384909       2.90075598       7.78791097
Si       0.99584303       4.05741732       7.78791097
Si       0.99584303       6.37984263       7.78791097
Si       3.01384909       0.57833067       7.78791097
Si       2.99605132       6.37762413       3.77000079
Si       1.01364080       0.58054917       3.77000079
Si       1.01364080       2.89853748       3.77000079
Si       2.99605132       4.05963582       3.77000079
Si       1.55720758       5.21862998       5.59356282
Si       2.45248454       1.73954333       5.59356282
10
Lattice="4.005022382952889 -9.752123753704411e-26 -1.695120955154609e-25 1.7113359933584003e-25 6.9672200971384015 6.402567667148203e-14 3.852007568566149e-25 -8.341463770837932e-14 9.072139197196515" Properties=species:S:1:pos:R:3 unique_starting_index=45 config_type=initial n_minim_iter=4 stress="-9.06544913861996e-05 -2.3929317268511646e-17 -3.859390459809097e-17 -2.3929317268511646e-17 0.00024647836618530637 1.0202538627484091e-17 -3.859390459809097e-17 1.0202538627484091e-17 -0.000475232035749111" pbc="T T T"
Si       3.01068959       2.89999996       7.77901088
Si       0.99433279       4.06722013       7.77901088
Si       0.99433279       6.38361001       7.77901088
Si       3.01068959       0.58361009       7.77901088
Si       2.99976215       6.38546828       3.76385371
Si       1.00526023       0.58175182       3.76385371
Si       1.00526023       2.90185823       3.76385371
Si       2.99976215       4.06536187       3.76385371
Si       1.55990008       5.22541507       5.59530001
Si       2.44512230       1.74180502       5.59530001
10
Lattice="4.0041332841706 -9.771614335055679e-26 -1.6863505945962918e-25 1.706072962697173e-25 6.960975891534122 6.397322093371257e-14 3.876325255519337e-25 -8.352586731431056e-14 9.084947136959565" Properties=species:S:1:pos:R:3 unique_starting_index=45 config_type=initial n_minim_iter=5 stress="0.00014848584925395775 3.425304622742582e-18 -3.28829243778614e-17 3.425304622742582e-18 -0.0007352975844719644 -8.736478029008808e-18 -3.28829243778614e-17 -8.736478029008808e-18 0.0006044234621505042" pbc="T T T"
Si       3.01013929       2.89678264       7.78966047
Si       0.99399399       4.06419325       7.78966047
Si       0.99399399       6.37727058       7.78966047
Si       3.01013929       0.58370531       7.78966047
Si       2.99926977       6.37878547       3.76846945
Si       1.00486352       0.58219042       3.76846945
Si       1.00486352       2.89829752       3.76846945
Si       2.99926977       4.06267837       3.76846945
Si       1.56179529       5.22073192       5.60526090
Si       2.44233799       1.74024397       5.60526090
10
Lattice="3.9756943541247622 -9.635477857952577e-26 -1.655363454770155e-25 1.7260412625200802e-25 6.995524660688092 6.426246203532325e-14 3.936264085694269e-25 -8.39350811801482e-14 9.125444200192403" Properties=species:S:1:pos:R:3 unique_starting_index=45 config_type=initial n_minim_iter=6 stress="0.001890960457408663 1.2986632831372075e-17 -5.861755955868784e-17 1.2986632831372075e-17 -0.0017533718787169322 -3.1340327369453656e-17 -5.861755955868784e-17 -3.1340327369453656e-17 0.003092255719685264" pbc="T T T"
Si       2.99067710       2.90424450       7.81935427
Si       0.98501725       4.09128016       7.81935427
Si       0.98501725       6.40200683       7.81935427
Si       2.99067710       0.59351783       7.81935427
Si       2.97651611       6.39484760       3.77274509
Si       0.99917824       0.60067706       3.77274509
Si       0.99917824       2.89708527       3.77274509
Si       2.97651611       4.09843939       3.77274509
Si       1.59147420       5.24664350       5.66535107
Si       2.38422015       1.74888117       5.66535107
10
Lattice="3.9511536022991387 -9.545940620463484e-26 -1.6595002231247784e-25 1.7412675947310875e-25 7.036516673643132 6.463247854705876e-14 3.9040146464499747e-25 -8.394730656910885e-14 9.125800118598791" Properties=species:S:1:pos:R:3 unique_starting_index=45 config_type=initial n_minim_iter=7 stress="0.0008225836925426028 -7.767048204531307e-18 1.4877726138322854e-17 -7.767048204531307e-18 -0.0006913691268509091 1.1587230413960099e-17 1.4877726138322854e-17 1.1587230413960099e-17 0.0016107546908112975" pbc="T T T"
Si       2.97322989       2.91743260       7.81643636
Si       0.97792371       4.11908407       7.81643636
Si       0.97792371       6.43569094       7.81643636
Si       2.97322989       0.60082573       7.81643636
Si       2.95696843       6.42401202       3.76449246
Si       0.99418517       0.61250465       3.76449246
Si       0.99418517       2.90575368       3.76449246
Si       2.95696843       4.13076299       3.76449246
Si       1.61138207       5.27738751       5.68881736
Si       2.33977153       1.75912917       5.68881736
10
Lattice="3.9189111725345525 -9.656549061720297e-26 -1.683883560727554e-25 1.724418073716368e-25 7.098552040990093 6.512064852226095e-14 3.808633506157217e-25 -8.383185257924586e-14 9.10146669798127" Properties=species:S:1:pos:R:3 unique_starting_index=45 config_type=initial n_minim_iter=8 stress="-0.003404251353939914 -4.7905469494250994e-17 4.297241199486717e-17 -4.7905469494250994e-17 0.0023326681642229855 9.490767171687744e-17 4.297241199486717e-17 9.490767171687744e-17 -0.0034851717136731505" pbc="T T T"
Si       2.94956949       2.94014620       7.79131807
Si       0.96934168       4.15840584       7.79131807
Si       0.96934168       6.48942222       7.79131807
Si       2.94956949       0.60912982       7.79131807
Si       2.92988840       6.47558831       3.74221056
Si       0.98902277       0.62296373       3.74221056
Si       0.98902277       2.92631229       3.74221056
Si       2.92988840       4.17223975       3.74221056
Si       1.65294367       5.32391403       5.70668907
Si       2.26596750       1.77463801       5.70668907
10
Lattice="3.9603079735926165 -1.0545403364286522e-25 -1.7262029588993188e-25 1.569110636181927e-25 7.030278375184603 6.453145759532085e-14 3.7630364568913253e-25 -8.402398838188253e-14 9.12802321802857" Properties=species:S:1:pos:R:3 unique_starting_index=45 config_type=initial n_minim_iter=9 stress="0.0002691698644753885 -2.184248347999037e-19 -1.1794941079774419e-17 -2.184248347999037e-19 0.0032056461352533974 1.4760367243643268e-16 -1.1794941079774419e-17 1.4760367243643268e-16 -0.0020984179567235597" pbc="T T T"
Si       2.97828522       2.91672424       7.80847974
Si       0.98202275       4.11355413       7.80847974
Si       0.98202275       6.43186343       7.80847974
Si       2.97828522       0.59841495       7.80847974
Si       2.95985930       6.43517619       3.73083639
Si       1.00044867       0.59510219       3.73083639
Si       1.00044867       2.92003700       3.73083639
Si       2.95985930       4.11024138       3.73083639
Si       1.83876068       5.27270878       5.77907094
Si       2.12154729       1.75756959       5.77907094
10
Lattice="3.9640520883515897 -1.0705181146610467e-25 -1.7435539739982676e-25 1.5363923939278716e-25 7.006009793556286 6.42898894656839e-14 3.7401547627193877e-25 -8.43088540957125e-14 9.156470082937815" Properties=species:S:1:pos:R:3 unique_starting_index=45 config_type=initial n_minim_iter=10 stress="8.54239609719983e-05 -3.2880553573461166e-17 -6.243212163991637e-17 -3.2880553573461166e-17 0.0015609083570859196 4.175582733961566e-17 -6.243212163991637e-17 4.175582733961566e-17 2.7761944658411242e-05" pbc="T T T"
Si       2.98074359       2.90695478       7.83000479
Si       0.98330849       4.09905501       7.83000479
Si       0.98330849       6.40995968       7.83000479
Si       2.98074359       0.59605012       7.83000479
Si       2.96629437       6.41632548       3.73169938
Si       0.99775772       0.58968432       3.73169938
Si       0.99775772       2.91332058       3.73169938
Si       2.96629437       4.09268921       3.73169938
Si       1.91460306       5.25450735       5.82422794
Si       2.04944903       1.75150245       5.82422794
10
Lattice="4.002858135120479 -1.0978546871972088e-25 -1.7769200213312784e-25 1.4813433099931078e-25 6.924064765495092 6.347474122917716e-14 3.70359657266201e-25 -8.447641249297477e-14 9.166137843932098" Properties=species:S:1:pos:R:3 unique_starting_index=45 config_type=initial n_minim_iter=11 stress="0.002700599561116076 -3.886667985990227e-17 -4.501214926854125e-17 -3.886667985990227e-17 -0.0021189767985756677 1.3986315155848197e-18 -4.501214926854125e-17 1.3986315155848197e-18 0.0015733292212406075" pbc="T T T"
Si       3.00789523       2.88089345       7.84298156
Si       0.99496291       4.04317132       7.84298156
Si       0.99496291       6.34292583       7.84298156
Si       3.00789523       0.58113894       7.84298156
Si       3.00421216       6.35254474       3.74443421
Si       0.99864597       0.57152003       3.74443421
Si       0.99864597       2.89051236       3.74443421
Si       3.00421216       4.03355241       3.74443421
Si       1.93221764       5.19304857       5.80336878
Si       2.07064049       1.73101619       5.80336878
10
Lattice="3.962040068287074 -1.0773063247823807e-25 -1.8073091450812535e-25 1.519285928267266e-25 6.988907561563351 6.414636358462088e-14 3.6002664635238246e-25 -8.438162836317776e-14 9.166362410678234" Properties=species:S:1:pos:R:3 unique_starting_index=45 config_type=initial n_minim_iter=12 stress="-0.001209592032550884 2.892349240810615e-17 -8.135757410821487e-17 2.892349240810615e-17 -0.0008405593079870405 -1.1812361390637689e-18 -8.135757410821487e-17 -1.1812361390637689e-18 0.0007472242250197221" pbc="T T T"
Si       2.97843208       2.90579770       7.84207046
Si       0.98360798       4.08310987       7.84207046
Si       0.98360798       6.40025148       7.84207046
Si       2.97843208       0.58865609       7.84207046
Si       2.97338420       6.39471395       3.74068423
Si       0.98865586       0.59419361       3.74068423
Si       0.98865586       2.90026017       3.74068423
Si       2.97338420       4.08864739       3.74068423
Si       1.92750280       5.24168067       5.81340091
Si       2.03453727       1.74722689       5.81340091
10
Lattice="3.974775441606577 -1.084540435309742e-25 -1.8641284631961118e-25 1.5109781609167958e-25 6.986910459005384 6.419235334618238e-14 3.4713747725466114e-25 -8.407021297506708e-14 9.141593092678152" Properties=species:S:1:pos:R:3 unique_starting_index=45 config_type=initial n_minim_iter=13 stress="0.0011628561413730603 1.0440804129378464e-17 -1.185113264527251e-16 1.0440804129378464e-17 0.0007371789462798801 5.924535118066804e-17 -1.185113264527251e-16 5.924535118066804e-17 -0.000630498991305339" pbc="T T T"
Si       2.98637632       2.90833958       7.82344914
Si       0.98839912       4.07857087       7.82344914
Si       0.98839912       6.40179481       7.82344914
Si       2.98637632       0.58511565       7.82344914
Si       2.98623130       6.39371335       3.73305470
Si       0.98854414       0.59319710       3.73305470
Si       0.98854414       2.90025813       3.73305470
Si       2.98623130       4.08665233       3.73305470
Si       1.97002708       5.24018284       5.78759586
Si       2.00474836       1.74672761       5.78759586
10
Lattice="3.9519714674337685 -1.0815020464368828e-25 -1.8813695635780137e-25 1.513453907694862e-25 7.007402015733045 6.450739981725012e-14 3.422840793997958e-25 -8.407368549339858e-14 9.159949619558784" Properties=species:S:1:pos:R:3 unique_starting_index=45 config_type=initial n_minim_iter=14 stress="-0.001546214491254936 -1.1550372387282633e-17 -1.321761974550819e-16 -1.1550372387282633e-17 -0.0011508086773524596 2.6975008012469028e-17 -1.321761974550819e-16 2.6975008012469028e-17 0.00026201226579103366" pbc="T T T"
Si       2.96790775       2.90769539       7.83973561
Si       0.98406371       4.09970662       7.83973561
Si       0.98406371       6.41139640       7.83973561
Si       2.96790775       0.59600561       7.83973561
Si       2.97138179       6.40892193       3.74444582
Si       0.98058968       0.59848009       3.74444582
Si       0.98058968       2.90522092       3.74444582
Si       2.97138179       4.10218109       3.74444582
Si       1.97242083       5.25555151       5.79027375
Si       1.97955064       1.75185050       5.79027375
10
Lattice="3.954615244369513 -1.0862177926913197e-25 -1.9105636639032496e-25 1.5082536098069675e-25 7.014513720469397 6.448057817015808e-14 3.3560839312146764e-25 -8.413312663753973e-14 9.153349288808919" Properties=species:S:1:pos:R:3 unique_starting_index=45 config_type=initial n_minim_iter=15 stress="-0.00020304895903313272 3.252036176317954e-17 -6.034030148997922e-17 3.252036176317954e-17 -0.00013112556694140734 3.1945683294828436e-17 -6.034030148997922e-17 3.1945683294828436e-17 0.0001261312966365588" pbc="T T T"
Si       2.96990270       2.90899455       7.83356231
Si       0.98471254       4.10551917       7.83356231
Si       0.98471254       6.41625141       7.83356231
Si       2.96990270       0.59826231       7.83356231
Si       2.97072894       6.41575771       3.74195608
Si       0.98388631       0.59875601       3.74195608
Si       0.98388631       2.90850085       3.74195608
Si       2.97072894       4.10601287       3.74195608
Si       1.97592274       5.26088529       5.78673327
Si       1.97869250       1.75362843       5.78673327
10
Lattice="3.9553704283133935 -1.0920564062247208e-25 -1.9343797774385606e-25 1.4988517758267526e-25 7.015913605608103 6.440633809512964e-14 3.301974647976905e-25 -8.422528546168286e-14 9.151014498086166" Properties=species:S:1:pos:R:3 unique_starting_index=45 config_type=initial n_minim_iter=16 stress="2.1795883906130693e-05 8.880409034420916e-18 -1.1104609943335538e-16 8.880409034420916e-18 -2.3460946873294655e-06 6.809368889176506e-17 -1.1104609943335538e-16 6.809368889176506e-17 2.9484632394543485e-07" pbc="T T T"
Si       2.97057599       2.90911335       7.83118456
Si       0.98479444       4.10680026       7.83118456
Si       0.98479444       6.41707015       7.83118456
Si       2.97057599       0.59884346       7.83118456
Si       2.97064085       6.41730600       3.74154027
Si       0.98472958       0.59860761       3.74154027
Si       0.98472958       2.90934919       3.74154027
Si       2.97064085       4.10656441       3.74154027
Si       1.97596034       5.26193520       5.78493911
Si       1.97941008       1.75397840       5.78493911
10
Lattice="3.9559223958841554 -1.1018305989830742e-25 -1.9708078362779197e-25 1.483179736994301e-25 7.019413649683179 6.436916891540943e-14 3.2189764700376124e-25 -8.42880684754483e-14 9.147990263547737" Properties=species:S:1:pos:R:3 unique_starting_index=45 config_type=initial n_minim_iter=17 stress="0.0002550778365639594 -2.220784920258262e-17 -1.249976850566673e-16 -2.220784920258262e-17 0.0001976928549205775 5.112632886133767e-18 -1.249976850566673e-16 5.112632886133767e-18 -0.00010253053111896968" pbc="T T T"
Si       2.97144566       2.91003176       7.82707559
Si       0.98447674       4.10938189       7.82707559
Si       0.98447674       6.41973858       7.82707559
Si       2.97144566       0.59967507       7.82707559
Si       2.97048457       6.42058095       3.74168597
Si       0.98543783       0.59883270       3.74168597
Si       0.98543783       2.91087412       3.74168597
Si       2.97048457       4.10853952       3.74168597
Si       1.97722280       5.26456024       5.78330471
Si       1.97869960       1.75485341       5.78330471
10
Lattice="3.95592956753833 -1.112454351569871e-25 -2.0034631137132033e-25 1.4646506632264845e-25 7.0186355746743585 6.446321798669838e-14 3.1460666299491644e-25 -8.416515334554933e-14 9.148984917314749" Properties=species:S:1:pos:R:3 unique_starting_index=45 config_type=initial n_minim_iter=18 stress="-1.2398841268769649e-05 -1.2565330704091425e-17 -9.265565597460532e-17 -1.2565330704091425e-17 -4.117370042600829e-05 1.403096401496925e-17 -9.265565597460532e-17 1.403096401496925e-17 6.028825966453217e-07" pbc="T T T"
Si       2.97170425       2.91036024       7.82641535
Si       0.98422532       4.10827534       7.82641535
Si       0.98422532       6.41967802       7.82641535
Si       2.97170425       0.59895755       7.82641535
Si       2.97125819       6.41973742       3.74340498
Si       0.98467138       0.59889815       3.74340498
Si       0.98467138       2.91041963       3.74340498
Si       2.97125819       4.10821594       3.74340498
Si       1.97699240       5.26397668       5.78433172
Si       1.97893717       1.75465889       5.78433172
10
Lattice="3.9554386796696144 -1.1225793152862435e-25 -2.0360495663356255e-25 1.4473968505263033e-25 7.019942230851949 6.455870271500135e-14 3.072430214563162e-25 -8.405616428254706e-14 9.14897269081024" Properties=species:S:1:pos:R:3 unique_starting_index=45 config_type=initial n_minim_iter=19 stress="-2.3249465680473248e-05 1.2837710550689979e-18 -4.938421420304395e-17 1.2837710550689979e-18 2.7890924774102167e-05 -1.1205265738479706e-17 -4.938421420304395e-17 -1.1205265738479706e-17 1.4902077853310964e-05" pbc="T T T"
Si       2.97106628       2.91079036       7.82618442
Si       0.98437240       4.10915187       7.82618442
Si       0.98437240       6.42076147       7.82618442
Si       2.97106628       0.59918076       7.82618442
Si       2.97094895       6.42072331       3.74334870
Si       0.98448973       0.59921892       3.74334870
Si       0.98448973       2.91075220       3.74334870
Si       2.97094895       4.10919003       3.74334870
Si       1.97827720       5.26495667       5.78486748
Si       1.97716148       1.75498556       5.78486748
