16
Lattice="14.073836971454412 4.071888457866146 7.73826859374613 4.940777360723632 11.513276239586954 2.96863319535319 5.694886781594883 4.428200423567281 6.335003074298215" Properties=species:S:1:pos:R:3 unique_starting_index=30 config_type=initial n_minim_iter=1 energy=-2733.971649303372 free_energy=-2733.971649303372 pbc="T T T"
Si      14.19744300      13.30996440      11.05157583
Si      10.51205811       6.70340072       5.99032904
Si       7.99468487       7.69957449       5.92378205
Si      16.71481625      12.31379063      11.11812281
Si      14.98258348      11.65577258      11.01786847
Si       9.72691764       8.35759255       6.02403640
Si      11.48686619       8.12526872       6.57101124
Si      13.22263492      11.88809640      10.47089362
Si       6.68038054       8.72726605       5.10412893
Si      18.02912058      11.28609907      11.93777593
Si      19.78354168      11.80756667      11.61247098
Si       4.92595943       8.20579845       5.42943388
Si       6.33901813       7.00857562       5.45406413
Si      18.37048298      13.00478950      11.58784073
Si      16.78350447      13.93780172      11.83962207
Si       7.92599665       6.07556340       5.20228280
16
Lattice="14.062566955789556 4.07091144449715 7.738693716335701 4.935743120967161 11.512621095220288 2.9696475714077364 5.690022660963219 4.427986828715733 6.335456903705521" Properties=species:S:1:pos:R:3 unique_starting_index=30 config_type=initial n_minim_iter=2 stress="0.0008397263256412674 0.0023777263829066948 -0.0015363197707585392 0.0023777263829066948 -0.005724150706372456 -0.0024662727684096287 -0.0015363197707585392 -0.0024662727684096287 -0.006321851684909182" pbc="T T T"
Si      14.18507144      13.30895088      11.05284502
Si      10.50326130       6.70256849       5.99095317
Si       7.98771560       7.69901420       5.92451226
Si      16.70061714      12.31250517      11.11928593
Si      14.96979268      11.65472677      11.01898109
Si       9.71854005       8.35679260       6.02481711
Si      11.47714578       8.12432251       6.57177826
Si      13.21118696      11.88719686      10.47201994
Si       6.67427253       8.72668047       5.10495056
Si      18.01406021      11.28483890      11.93884763
Si      19.76703754      11.80601900      11.61357435
Si       4.92129520       8.20550037       5.43022384
Si       6.33339623       7.00815510       5.45471371
Si      18.35493651      13.00336427      11.58908448
Si      16.76909436      13.93658300      11.84095559
Si       7.91923838       6.07493636       5.20284260
16
Lattice="14.06073058509354 4.071307350714095 7.743313881074298 4.933637160229321 11.516034633688708 2.9728705215019606 5.689148878581644 4.429519365153024 6.338897097042247" Properties=species:S:1:pos:R:3 unique_starting_index=30 config_type=initial n_minim_iter=3 stress="0.0020787408598275763 -0.0002953042258116309 -4.135808559881719e-05 -0.0002953042258116309 0.0009321995865483726 -0.00036201696133031933 -4.135808559881719e-05 -0.00036201696133031933 0.001502043614281609" pbc="T T T"
Si      14.18216001      13.31282468      11.06005116
Si      10.50135661       6.70403667       5.99503034
Si       7.98601938       7.70127429       5.92855897
Si      16.69749724      12.31558706      11.12652253
Si      14.96699242      11.65788242      11.02596107
Si       9.71652420       8.35897893       6.02912043
Si      11.47492146       8.12620833       6.57641451
Si      13.20859517      11.89065302      10.47866699
Si       6.67246978       8.72927253       5.10871652
Si      18.01104684      11.28758882      11.94636498
Si      19.76361794      11.80855450      11.62113105
Si       4.91989868       8.20830685       5.43395045
Si       6.33195792       7.01029225       5.45826673
Si      18.35155870      13.00656910      11.59681477
Si      16.76580903      13.94044454      11.84879398
Si       7.91770760       6.07641681       5.20628752
16
Lattice="14.06222470316368 4.075136102583628 7.744227018424826 4.935409554217264 11.517718744933017 2.9757616663450968 5.6905655792469085 4.43198422532164 6.339061603085745" Properties=species:S:1:pos:R:3 unique_starting_index=30 config_type=initial n_minim_iter=4 stress="0.0023063275481209995 0.002716295777978997 -0.0003746966122909119 0.002716295777978997 0.0003617557562039539 0.003907155545217259 -0.0003746966122909119 0.003907155545217259 -0.0002520385106720306" pbc="T T T"
Si      14.18557515      13.31784350      11.06247171
Si      10.50262469       6.70699557       5.99657858
Si       7.98759121       7.70455659       5.93021294
Si      16.70060862      12.32028248      11.12883734
Si      14.96969205      11.66288967      11.02814088
Si       9.71850779       8.36194940       6.03090940
Si      11.47633140       8.12914006       6.57842623
Si      13.21186844      11.89569901      10.48062406
Si       6.67391270       8.73134374       5.11059920
Si      18.01428713      11.29349533      11.94845109
Si      19.76662506      11.81384331      11.62327311
Si       4.92157478       8.21099576       5.43577718
Si       6.33313991       7.01290213       5.45913968
Si      18.35505993      13.01193695      11.59991061
Si      16.76928535      13.94656212      11.85173504
Si       7.91891448       6.07827695       5.20731524
16
Lattice="14.062277466902552 4.069171050602922 7.7439240062691335 4.93306667585296 11.515599979316386 2.9721800558650804 5.690523357172376 4.428499300957881 6.337349450673482" Properties=species:S:1:pos:R:3 unique_starting_index=30 config_type=initial n_minim_iter=5 stress="0.00252469006109194 -0.0011423070645497433 0.0005929361002058079 -0.0011423070645497433 -0.0003066758422955907 0.0002546986155249359 0.0005929361002058079 0.0002546986155249359 -0.0005992541263770603" pbc="T T T"
Si      14.18432113      13.31086941      11.05836615
Si      10.50154637       6.70240092       5.99508737
Si       7.98643486       7.70114364       5.92810773
Si      16.69943264      12.31212669      11.12534578
Si      14.96839496      11.65565737      11.02488722
Si       9.71747254       8.35761296       6.02856629
Si      11.47487550       8.12375182       6.57662163
Si      13.21099200      11.88951851      10.47683188
Si       6.67227459       8.72777919       5.10784010
Si      18.01359291      11.28549114      11.94561342
Si      19.76556742      11.80483871      11.62012843
Si       4.92030008       8.20843162       5.43332508
Si       6.33197302       7.00976195       5.45660136
Si      18.35389448      13.00350838      11.59685215
Si      16.76791647      13.93921811      11.84798944
Si       7.91795103       6.07405222       5.20546408
16
Lattice="14.060994609358078 4.0701288446134445 7.743102754808251 4.934148968498235 11.5168623627934 2.969838284502074 5.690358468996129 4.428500748431431 6.336580242455023" Properties=species:S:1:pos:R:3 unique_starting_index=30 config_type=initial n_minim_iter=6 stress="0.001428115902980928 0.0012191518515805232 -0.00129779680471531 0.0012191518515805232 0.0009150425030398337 -0.0008278309078643483 -0.00129779680471531 -0.0008278309078643483 0.0013243287122113778" pbc="T T T"
Si      14.18451868      13.31220303      11.05579171
Si      10.50098336       6.70328892       5.99372957
Si       7.98621485       7.70208177       5.92675091
Si      16.69928720      12.31341019      11.12277038
Si      14.96808456      11.65672269      11.02262693
Si       9.71741749       8.35876927       6.02689435
Si      11.47442468       8.12477231       6.57515565
Si      13.21107737      11.89071965      10.47436563
Si       6.67266628       8.72856366       5.10608592
Si      18.01283577      11.28692830      11.94343537
Si      19.76496386      11.80647190      11.61752845
Si       4.92053819       8.20902005       5.43199284
Si       6.33200422       7.01037084       5.45515720
Si      18.35349783      13.00512112      11.59436408
Si      16.76794267      13.94092937      11.84541491
Si       7.91755937       6.07456259       5.20410637
16
Lattice="14.06397339984753 4.066254204602364 7.7480109904967005 4.93385956466958 11.513992323125493 2.9698948856560046 5.693489922749895 4.426047026334698 6.336169245257092" Properties=species:S:1:pos:R:3 unique_starting_index=30 config_type=initial n_minim_iter=7 stress="0.0011065260607725127 0.0004930281840206181 0.0012478511506073538 0.0004930281840206181 0.0019460458070416505 -1.813778417662159e-05 0.0012478511506073538 -1.813778417662159e-05 -0.0012916981261929183" pbc="T T T"
Si      14.18902337      13.30706873      11.05747903
Si      10.50229951       6.69922483       5.99659610
Si       7.98708309       7.69936835       5.92826817
Si      16.70423980      12.30692521      11.12580696
Si      14.97245239      11.65046235      11.02493979
Si       9.71887050       8.35583120       6.02913533
Si      11.47588657       8.12065013       6.57899804
Si      13.21543631      11.88564343      10.47507708
Si       6.67418140       8.72578083       5.10640740
Si      18.01714149      11.28051273      11.94766773
Si      19.76980910      11.79960894      11.62256348
Si       4.92151379       8.20668461       5.43151165
Si       6.33367886       7.00788185       5.45494188
Si      18.35764402      12.99841170      11.59913324
Si      16.77299336      13.93493301      11.84903608
Si       7.91832952       6.07136055       5.20503904
16
Lattice="14.06441866961096 4.055104388590682 7.752160225414626 4.930438849386004 11.499751634475755 2.968896691884476 5.6943492984452595 4.417948856610556 6.336211591585193" Properties=species:S:1:pos:R:3 unique_starting_index=30 config_type=initial n_minim_iter=8 stress="0.0016165928881264303 -0.0019169583728505214 -0.0027534390251152665 -0.0019169583728505214 -0.002952733716277042 0.001475221247401321 -0.0027534390251152665 0.001475221247401321 0.001286339554294114" pbc="T T T"
Si      14.18878446      13.28648261      11.05872789
Si      10.50042235       6.68632227       5.99854062
Si       7.98454021       7.68796198       5.92966180
Si      16.70466661      12.28484290      11.12760671
Si      14.97240927      11.62960095      11.02653504
Si       9.71679755       8.34320392       6.03073347
Si      11.47310514       8.10652798       6.58248732
Si      13.21610168      11.86627690      10.47478118
Si       6.67254177       8.71403038       5.10630701
Si      18.01666505      11.25877450      11.95096150
Si      19.76966719      11.77723514      11.62597433
Si       4.91953962       8.19556974       5.43129418
Si       6.33206082       6.99757584       5.45461138
Si      18.35714600      12.97522904      11.60265713
Si      16.77319270      13.91203888      11.85230657
Si       7.91601412       6.06076600       5.20496194
16
Lattice="14.068352506291001 4.048110149152 7.763868537083509 4.932675973201447 11.491823854632022 2.965596651679776 5.700726389882796 4.41136514985371 6.336555470213716" Properties=species:S:1:pos:R:3 unique_starting_index=30 config_type=initial n_minim_iter=9 stress="-0.0009271514150402765 0.0012788815221238202 0.002213169280292945 0.0012788815221238202 -0.0029894650255449717 -0.0005007254832247333 0.002213169280292945 -0.0005007254832247333 0.002409335694130694" pbc="T T T"
Si      14.19932457      13.27336744      11.06184862
Si      10.50243030       6.67793171       6.00417204
Si       7.98749566       7.68105809       5.93211140
Si      16.71425921      12.27024107      11.13390926
Si      14.98191823      11.61537600      11.03140004
Si       9.71983664       8.33592315       6.03462062
Si      11.47465600       8.09815598       6.59013162
Si      13.22709887      11.85314317      10.47588904
Si       6.67658289       8.70755457       5.10593085
Si      18.02517198      11.24374458      11.96008981
Si      19.77771303      11.76340230      11.63664801
Si       4.92404184       8.18789686       5.42937265
Si       6.33530069       6.99067821       5.45432421
Si      18.36645418      12.96062094      11.61169644
Si      16.78438474      13.89738082      11.85951021
Si       7.91737013       6.05391833       5.20651045
16
Lattice="14.066896323139401 4.044320708471931 7.761237091710546 4.930180055977707 11.492873116451355 2.9620066115006813 5.700557805266872 4.409719738348637 6.332333485589917" Properties=species:S:1:pos:R:3 unique_starting_index=30 config_type=initial n_minim_iter=10 stress="-0.0012275075163410481 -0.0002279949457664171 -0.0008413921852513535 -0.0002279949457664171 0.0012553327092922181 -5.5899621834983985e-05 -0.0008413921852513535 -5.5899621834983985e-05 -0.0014418179245280793" pbc="T T T"
Si      14.19776365      13.27141703      11.05462289
Si      10.49987053       6.67549653       6.00095430
Si       7.98524822       7.68034843       5.92826724
Si      16.71238597      12.26656514      11.12730995
Si      14.98027966      11.61209762      11.02447355
Si       9.71735453       8.33481594       6.03110364
Si      11.47145330       8.09621488       6.58731076
Si      13.22618089      11.85069869      10.46826643
Si       6.67480405       8.70784796       5.10196943
Si      18.02283014      11.23906561      11.95360775
Si      19.77548160      11.75918719      11.63055487
Si       4.92215258       8.18772637       5.42502232
Si       6.33334295       6.98977728       5.45022741
Si      18.36429124      12.95713628      11.60534978
Si      16.78264610      13.89458751      11.85294063
Si       7.91498809       6.05232605       5.20263656
16
Lattice="14.070597774890855 4.033085728002331 7.776751675738815 4.928435141102956 11.480752549901649 2.963157381454608 5.705854070418136 4.40162044931037 6.3359588663593245" Properties=species:S:1:pos:R:3 unique_starting_index=30 config_type=initial n_minim_iter=11 stress="-0.00181544393647984 -0.0001365395398711118 -3.401110837783044e-05 -0.0001365395398711118 -0.0011168722949615804 0.00024095959033256504 -3.401110837783044e-05 0.00024095959033256504 -0.0003671635773651021" pbc="T T T"
Si      14.20525929      13.25164169      11.06514409
Si      10.49962770       6.66381704       6.01072384
Si       7.98591479       7.67023348       5.93340514
Si      16.71897220      12.24522524      11.14246279
Si      14.98700777      11.59310462      11.03549576
Si       9.71787922       8.32235411       6.04037216
Si      11.47121802       8.08293435       6.59881741
Si      13.23366896      11.83252438      10.47705051
Si       6.67621936       8.69812652       5.10638364
Si      18.02866762      11.21733221      11.96948429
Si      19.78254073      11.73775686      11.64847610
Si       4.92234626       8.17770187       5.42739182
Si       6.33380882       6.97953874       5.45434168
Si      18.37107817      12.93591999      11.62152624
Si      16.78996835      13.87304604      11.86824671
Si       7.91491863       6.04241269       5.20762121
16
Lattice="14.074142191502233 4.019254639932747 7.798553264197221 4.924838215890116 11.472843164653403 2.96390956889733 5.712357282220417 4.393079323291409 6.341167359762967" Properties=species:S:1:pos:R:3 unique_starting_index=30 config_type=initial n_minim_iter=12 stress="-0.0022989769240555047 -0.00024829247098575783 -0.00017480707585433287 -0.00024829247098575783 -0.0004588537135173089 8.854965187439663e-05 -0.00017480707585433287 8.854965187439663e-05 -0.0009123355664229456" pbc="T T T"
Si      14.21410780      13.23351312      11.07930612
Si      10.49722989       6.65166401       6.02432408
Si       7.98402166       7.66095632       5.94016524
Si      16.72731603      12.22422080      11.16346496
Si      14.99426498      11.57426249      11.04988857
Si       9.71707271       8.31091464       6.05374162
Si      11.46958171       8.06981092       6.61399962
Si      13.24175598      11.81536621      10.48963058
Si       6.67620162       8.68992344       5.11231499
Si      18.03513607      11.19525368      11.99131520
Si      19.78872310      11.71591385      11.67457317
Si       4.92261459       8.16926327       5.42905702
Si       6.33299864       6.97086527       5.45986731
Si      18.37833905      12.91431186      11.64376288
Si      16.79717831      13.85266573      11.88900707
Si       7.91415938       6.03251140       5.21462312
16
Lattice="14.0774364182508 4.009499961529087 7.822935416242943 4.921595352075695 11.468802641942718 2.968877281474838 5.718110648838994 4.387840337810064 6.350263219557338" Properties=species:S:1:pos:R:3 unique_starting_index=30 config_type=initial n_minim_iter=13 stress="-0.0018274273123906437 -0.00018888527343168752 -4.170769231979864e-05 -0.00018888527343168752 -0.0006978153715412047 0.00016357971411910571 -4.170769231979864e-05 0.00016357971411910571 -0.0007285356697228979" pbc="T T T"
Si      14.22208088      13.22238628      11.10155624
Si      10.49506154       6.64375666       6.04051968
Si       7.98292313       7.65502079       5.95192993
Si      16.73421929      12.21112215      11.19014599
Si      15.00201338      11.56319151      11.07295256
Si       9.71512904       8.30295143       6.06912335
Si      11.46840779       8.06126079       6.63243531
Si      13.24873463      11.80488215      10.50964060
Si       6.67732717       8.68474975       5.12220704
Si      18.03981525      11.18139319      12.01986887
Si      19.79419397      11.70151674      11.70680587
Si       4.92294845       8.16462620       5.43527004
Si       6.33226221       6.96604059       5.46886959
Si      18.38488021      12.90010235      11.67320633
Si      16.80289590      13.83985353      11.91660279
Si       7.91424652       6.02628941       5.22547313
16
Lattice="14.087104035914722 3.9767086093193695 7.91640028507569 4.907407021663003 11.462952224998515 2.9910009716414385 5.737844579177517 4.372759545939637 6.387173895400932" Properties=species:S:1:pos:R:3 unique_starting_index=30 config_type=initial n_minim_iter=14 stress="0.0025071277248683702 -0.0005664810192502229 0.000687826805613436 -0.0005664810192502229 0.0007508753636965289 0.00015138582693431134 0.000687826805613436 0.00015138582693431134 -0.0017121069052577036" pbc="T T T"
Si      14.24680516      13.19193526      11.19110679
Si      10.48555048       6.62048512       6.10346837
Si       7.97602170       7.63727945       5.99949263
Si      16.75633393      12.17514093      11.29508252
Si      15.02261045      11.53188899      11.16517171
Si       9.70974519       8.28053139       6.12940344
Si      11.45784345       8.03649866       6.70278430
Si      13.27451218      11.77592172      10.59179086
Si       6.68060128       8.67212284       5.16193375
Si      18.05175435      11.14029754      12.13264140
Si      19.81074917      11.65746075      11.83256648
Si       4.92160646       8.15495963       5.46200867
Si       6.32872135       6.95346882       5.50490091
Si      18.40363429      12.85895156      11.78967424
Si      16.81898247      13.80266740      12.02545903
Si       7.91337317       6.00975298       5.26911612
16
Lattice="14.098292649509252 3.952918269139294 8.012026757537285 4.899241791403953 11.45626550488899 3.017802743425819 5.758589159705207 4.361379755647742 6.428338773399705" Properties=species:S:1:pos:R:3 unique_starting_index=30 config_type=initial n_minim_iter=15 stress="0.009304160591271414 7.662766620861731e-05 0.0018202376769100642 7.662766620861731e-05 0.0008613483976513456 0.0008061518395193713 0.0018202376769100642 0.0008061518395193713 -0.001387448755524103" pbc="T T T"
Si      14.27657267      13.16732832      11.28917035
Si      10.47955093       6.60323521       6.16899793
Si       7.97494997       7.62260415       6.05233099
Si      16.78117363      12.14795938      11.40583728
Si      15.04760490      11.50702726      11.26439699
Si       9.70851870       8.26353627       6.19377129
Si      11.45201341       8.01692382       6.77732727
Si      13.30411019      11.75363971      10.68084101
Si       6.68526286       8.66040687       5.20501756
Si      18.07086074      11.11015666      12.25315072
Si      19.83351306      11.62398327      11.96573014
Si       4.92261054       8.14658026       5.49243813
Si       6.32802913       6.94254498       5.54423175
Si      18.42809447      12.82801855      11.91393653
Si      16.84139277      13.77266293      12.14146539
Si       7.91473083       5.99790060       5.31670289
16
Lattice="14.114087739911174 3.936746995359015 8.118292954664243 4.896437378406605 11.460324148116925 3.0475592127501914 5.784441685849302 4.355055287440423 6.474013924396816" Properties=species:S:1:pos:R:3 unique_starting_index=30 config_type=initial n_minim_iter=16 stress="0.018336744268794846 0.0013593634936887886 0.0034882751755835628 0.0013593634936887886 0.0022034975751750265 0.0008327142457597349 0.0034882751755835628 0.0008327142457597349 -0.002398599733032548" pbc="T T T"
Si      14.31553857      13.15614851      11.39920572
Si      10.47942823       6.59597792       6.24066037
Si       7.97727367       7.61652139       6.10854036
Si      16.81769314      12.13560504      11.53132573
Si      15.08456474      11.49447111      11.37568376
Si       9.71040207       8.25765532       6.26418234
Si      11.45006429       8.00646646       6.85978679
Si      13.34490251      11.74565997      10.78007930
Si       6.69476604       8.65605632       5.25336968
Si      18.10020076      11.09607011      12.38649641
Si      19.86527641      11.60649557      12.11222014
Si       4.92969040       8.14563086       5.52764595
Si       6.33329510       6.93759501       5.58814560
Si      18.46167171      12.81453142      12.05172049
Si      16.87658444      13.75825662      12.26914450
Si       7.91838237       5.99386981       5.37072159
16
Lattice="14.127087022164572 3.9234628851372793 8.218064465374729 4.891977653355603 11.470060216625551 3.0773577656245528 5.806752740167462 4.351880665472381 6.518750305211491" Properties=species:S:1:pos:R:3 unique_starting_index=30 config_type=initial n_minim_iter=17 stress="0.02440204405952574 0.0023252531016447215 0.00452810446971629 0.0023252531016447215 0.0028533295002377015 0.000773822284695985 0.00452810446971629 0.000773822284695985 -0.0031377399857477205" pbc="T T T"
Si      14.34395700      13.15279945      11.50365996
Si      10.48186041       6.59260432       6.31051258
Si       7.97751640       7.61467085       6.16184684
Si      16.84830102      12.13073292      11.65232569
Si      15.11548327      11.49008578      11.48350647
Si       9.71033414       8.25531798       6.33066607
Si      11.44598290       8.00165593       6.93910784
Si      13.37983452      11.74374784      10.87506470
Si       6.70106687       8.65655379       5.30131677
Si      18.12475054      11.08884998      12.51285577
Si      19.89297132      11.59805364      12.25169617
Si       4.93284609       8.14735013       5.56247637
Si       6.33471791       6.93916208       5.62895898
Si      18.49109950      12.80624169      12.18521355
Si      16.90540728      13.75283089      12.39084445
Si       7.92041014       5.99257288       5.42332808
16
Lattice="14.130429756805208 3.9243446969319513 8.25329211227424 4.893223423156341 11.476277255885824 3.088781297883946 5.814522086320408 4.353502533183461 6.535570606674158" Properties=species:S:1:pos:R:3 unique_starting_index=30 config_type=initial n_minim_iter=18 stress="0.023088770350672805 0.002703105102824702 0.004268974146750218 0.002703105102824702 0.0023458151921962435 0.0005417382633181695 0.004268974146750218 0.0005417382633181695 -0.0026647607886153835" pbc="T T T"
Si      14.35546590      13.15833643      11.54170390
Si      10.48270937       6.59578805       6.33594012
Si       7.97825167       7.61704503       6.18139826
Si      16.85992359      12.13707946      11.69624575
Si      15.12699542      11.49587701      11.52408451
Si       9.71117985       8.25824747       6.35355951
Si      11.44542410       8.00589184       6.96716187
Si      13.39275117      11.74823264      10.91048215
Si       6.70300510       8.65996081       5.31942081
Si      18.13517017      11.09416367      12.55822321
Si      19.90303927      11.60388050      12.30072809
Si       4.93513600       8.15024399       5.57691593
Si       6.33713128       6.94281072       5.64411595
Si      18.50104399      12.81131377      12.23352806
Si      16.91622958      13.75797979      12.43513739
Si       7.92194569       5.99614470       5.44250663
16
Lattice="14.127965895542594 3.9386352753589793 8.273050322807853 4.898995011912653 11.49173501182203 3.0974191745309794 5.818083217292402 4.3626230320784884 6.546834370268027" Properties=species:S:1:pos:R:3 unique_starting_index=30 config_type=initial n_minim_iter=19 stress="0.009592593215262483 0.0012858532429501446 0.0014661887471408303 0.0012858532429501446 0.0011926978375962113 -0.00020358095847603644 0.0014661887471408303 -0.00020358095847603644 -0.0005467355691812134" pbc="T T T"
Si      14.36034676      13.18141588      11.56471967
Si      10.48469736       6.61157744       6.35258419
Si       7.97987357       7.63115914       6.19526088
Si      16.86517056      12.16183418      11.72204298
Si      15.13406910      11.51892677      11.54971422
Si       9.71097503       8.27406655       6.36758965
Si      11.44405548       8.02290482       6.98187626
Si      13.40098865      11.77008850      10.93542761
Si       6.70527139       8.67233190       5.33126102
Si      18.13977274      11.12066142      12.58604285
Si      19.90658568      11.63327146      12.32968361
Si       4.93845844       8.15972186       5.58762026
Si       6.34066639       6.95381597       5.65407638
Si      18.50437773      12.83917735      12.26322749
Si      16.91989312      13.78365492      12.46261652
Si       7.92515101       6.00933840       5.45468734
16
Lattice="14.128423420668508 3.9500661897495144 8.290628820542699 4.905830393943734 11.50005204378878 3.1046541053482395 5.823178343917991 4.368731423082277 6.555622266656431" Properties=species:S:1:pos:R:3 unique_starting_index=30 config_type=initial n_minim_iter=20 stress="-0.00195770318595195 4.9006738054783804e-05 -0.0008660402969930213 4.9006738054783804e-05 -4.2417863086203666e-05 -0.000794511417644172 -0.0008660402969930213 -0.000794511417644172 0.0006792197548228258" pbc="T T T"
Si      14.36924446      13.19545756      11.58440660
Si      10.48818770       6.62339209       6.36649859
Si       7.98314785       7.63990654       6.20637226
Si      16.87428431      12.17894312      11.74453293
Si      15.14375797      11.53406999      11.57170430
Si       9.71367419       8.28477967       6.37920089
Si      11.44543788       8.03362271       6.99776723
Si      13.41199428      11.78522695      10.95313796
Si       6.70953865       8.68020118       5.34196389
Si      18.14789351      11.13864848      12.60894131
Si      19.91400710      11.65281153      12.35610701
Si       4.94342506       8.16603813       5.59479819
Si       6.34613702       6.96032064       5.66315792
Si      18.51129514      12.85852902      12.28774728
Si      16.92564060      13.80103998      12.48520469
Si       7.93179156       6.01780968       5.46570051
16
Lattice="14.146684266008885 3.9774710428608477 8.377849423837555 4.937067921612468 11.513298623011229 3.126764726963829 5.857938760667161 4.378191056614835 6.587949835143331" Properties=species:S:1:pos:R:3 unique_starting_index=30 config_type=initial n_minim_iter=21 stress="-0.019786775399146778 -0.0010915253527118197 -0.003970610935951372 -0.0010915253527118197 -0.0033302444743367548 -0.0032503940519910983 -0.003970610935951372 -0.0032503940519910983 0.0002934885914348962" pbc="T T T"
Si      14.43338312      13.22408346      11.66470121
Si      10.50830783       6.64487727       6.42786277
Si       8.00723606       7.65344066       6.24986373
Si      16.93445489      12.21552007      11.84270025
Si      15.21043934      11.56288532      11.65491466
Si       9.73125161       8.30607541       6.43764933
Si      11.45812279       8.05640217       7.06598959
Si      13.48356816      11.81255855      11.02657440
Si       6.73768841       8.69335008       5.37958764
Si      18.20400254      11.17561065      12.71297634
Si      19.97090329      11.69207450      12.47289675
Si       4.97078766       8.17688623       5.61966724
Si       6.37549806       6.97399970       5.69545578
Si      18.56619289      12.89496103      12.39710820
Si      16.97799915      13.83450688      12.58176491
Si       7.96369179       6.03445384       5.51079908
