10
Lattice="3.9554386796696144 -1.1225793152862435e-25 -2.0360495663356255e-25 1.4473968505263033e-25 7.019942230851949 6.455870271500135e-14 3.072430214563162e-25 -8.405616428254706e-14 9.14897269081024" Properties=species:S:1:pos:R:3 unique_starting_index=45 config_type=initial n_minim_iter=19 energy=-1626.0440512166995 free_energy=-1626.0440512166995 pbc="T T T"
Si       2.97106628       2.91079036       7.82618442
Si       0.98437240       4.10915187       7.82618442
Si       0.98437240       6.42076147       7.82618442
Si       2.97106628       0.59918076       7.82618442
Si       2.97094895       6.42072331       3.74334870
Si       0.98448973       0.59921892       3.74334870
Si       0.98448973       2.91075220       3.74334870
Si       2.97094895       4.10919003       3.74334870
Si       1.97827720       5.26495667       5.78486748
Si       1.97716148       1.75498556       5.78486748
