10
Lattice="3.8754133694141037 -4.840567386895969e-18 1.70700561588283e-11 5.653271083542796e-18 4.526073519233598 9.971050178670558e-14 -4.645542432040999e-11 -2.2722372033316234e-13 10.546770954822572" Properties=species:S:1:pos:R:3 unique_starting_index=72 config_type=initial n_minim_iter=16 energy=-1629.4994841686128 free_energy=-1629.4994841686128 pbc="T T T"
Si       3.05020838       3.83247094       3.72974964
Si       3.05020838       0.69360258       6.81702131
Si       1.11250170       1.56943418       1.54363584
Si       1.11250170       2.95663934       9.00313512
Si       1.14559763       0.69352705       3.72966913
Si       1.14559763       3.83254647       6.81710182
Si       3.08330431       2.95656381       1.54371634
Si       3.08330431       1.56950971       9.00305461
Si       0.16017391       0.00000000       0.00000000
Si       2.09788060       2.26303676       5.27338548
