12
Lattice="5.502767821345623 -1.167325986458109 2.049493303932074e-11 -0.939164188368659 3.69220044852189 -1.3938397619202352e-11 -3.975561709505933e-11 3.8451134941764614e-11 12.864201068084949" Properties=species:S:1:pos:R:3 unique_starting_index=57 config_type=initial n_minim_iter=12 energy=-1956.6832294240903 free_energy=-1956.6832294240903 pbc="T T T"
Si       0.67204929       2.47694465       0.77639580
Si       3.89155435       0.04792981       7.20849634
Si       3.41985359       1.89350131       8.58395761
Si       1.14375005       0.63137315       2.15185708
Si       1.58734774       1.74076640      10.09803876
Si       2.97625590       0.78410806       3.66593823
Si       1.11999939       3.58792767       5.69476519
Si       3.44360425      -1.06305321      12.12686572
Si       4.34062788       1.15714658      12.12800387
Si       0.22297576       1.36772788       5.69590334
Si       4.81294580      -0.68780303       3.66544542
Si      -0.24934216       3.21267749      10.09754596
