16
Lattice="6.534298331006018 0.47686761569530445 1.768996305819613 2.8467524636077273 4.325878996718479 1.1255000994622477 6.635230093756506 1.9356558406528408 14.258507837616873" Properties=species:S:1:pos:R:3 unique_starting_index=3 config_type=initial n_minim_iter=1 energy=-2606.6047969535193 free_energy=-2606.6047969535193 pbc="T T T"
Si       8.16587967       4.32723434       9.22464017
Si      10.23048761       3.02276379      15.23981298
Si       2.60371774       2.84340866       4.19727496
Si       6.37718203       3.16106843       3.14975890
Si       9.09395468       1.11444791       6.96800714
Si      10.48184402       3.57729937       9.25329519
Si       4.85533635       2.95531931       5.04208389
Si       8.72731809       3.31353037       3.65011232
Si       6.61367700       2.22840461      10.40944556
Si       8.62459650       1.87655301       9.17609956
Si      11.31465841       4.11711999      11.47764577
Si       4.86652088       0.63237456       5.85489364
Si       7.56869899       5.05218929      11.41221667
Si       7.51215041       2.96366666      12.45499849
Si       9.83995714       2.88593171      12.87889745
Si       5.87784845       1.29335245       1.72414088
16
Lattice="6.532573138314193 0.47607139335527593 1.769811496223109 2.845711084461261 4.324290307860649 1.1255703173158051 6.635755384569776 1.9338094871477551 14.256293697988792" Properties=species:S:1:pos:R:3 unique_starting_index=3 config_type=initial n_minim_iter=2 stress="-0.0001788753383490954 0.00010973517280378443 -0.0001257684189179944 0.00010973517280378443 -0.00016065738433293823 2.3176780071267445e-05 -0.0001257684189179944 2.3176780071267445e-05 -0.00021458704759031515" pbc="T T T"
Si       8.16473677       4.32478317       9.22383823
Si      10.23002290       3.02031007      15.23804660
Si       2.60344190       2.84204515       4.19666378
Si       6.37552607       3.15945674       3.15009002
Si       9.09234312       1.11292838       6.96803993
Si      10.48003145       3.57496964       9.25291207
Si       4.85452185       2.95378067       5.04160627
Si       8.72503214       3.31159912       3.65075884
Si       6.61345306       2.22663338      10.40817079
Si       8.62354116       1.87477101       9.17545961
Si      11.31296847       4.11431105      11.47692645
Si       4.86603333       0.63143707       5.85441623
Si       7.56815543       5.04950409      11.41071453
Si       7.51206520       2.96152651      12.45330896
Si       9.83919756       2.88361335      12.87756007
Si       5.87625081       1.29240137       1.72477858
16
Lattice="6.533914031498926 0.47284179445847874 1.7745772936707582 2.8446484996058343 4.322927847733469 1.1271549458384622 6.644752633733998 1.928782970203378 14.264323774711036" Properties=species:S:1:pos:R:3 unique_starting_index=3 config_type=initial n_minim_iter=3 stress="2.7852315963701448e-05 -6.082714534416016e-05 0.0002551574719520222 -6.082714534416016e-05 4.157515477855747e-05 -5.5539986831408864e-05 0.0002551574719520222 -5.5539986831408864e-05 3.119686250529666e-05" pbc="T T T"
Si       8.16926208       4.31983156       9.23132764
Si      10.23953574       3.01392765      15.24878737
Si       2.60493650       2.83985217       4.19925001
Si       6.37648296       3.15635857       3.15476413
Si       9.09677479       1.10747513       6.97577510
Si      10.48499925       3.56943441       9.26176523
Si       4.85668444       2.95095487       5.04543137
Si       8.72648192       3.30711519       3.65706926
Si       6.61981390       2.22204388      10.41533041
Si       8.62938375       1.86941136       9.18330373
Si      11.31921343       4.10739382      11.48719517
Si       4.86964143       0.62817937       5.85923306
Si       7.57407414       5.04467101      11.41817826
Si       7.51997530       2.95635259      12.46116150
Si       9.84729407       2.87745323      12.88712750
Si       5.87716124       1.28965840       1.72888179
16
Lattice="6.531439454042965 0.46735012500003265 1.772117841887268 2.8399229305003177 4.318805053001697 1.1267453267523018 6.634568477576849 1.9240589875013292 14.268100799867762" Properties=species:S:1:pos:R:3 unique_starting_index=3 config_type=initial n_minim_iter=4 stress="-0.00034891943430300014 -0.0005255312486248448 -0.00020750833222515396 -0.0005255312486248448 -9.878651095775118e-05 6.275785464693476e-05 -0.00020750833222515396 6.275785464693476e-05 0.0003483251605782965" pbc="T T T"
Si       8.15862444       4.31219878       9.23272185
Si      10.22822801       3.00802644      15.25230775
Si       2.59917433       2.83429912       4.20082545
Si       6.37087911       3.15118325       3.15337607
Si       9.08956052       1.09829469       6.97430426
Si      10.47439868       3.56305626       9.26059957
Si       4.84971965       2.94629500       5.04365754
Si       8.72033444       3.29861071       3.65476831
Si       6.61170135       2.21639890      10.41875243
Si       8.62216258       1.86148565       9.18286232
Si      11.30718202       4.09642365      11.48821797
Si       4.86345880       0.62335100       5.86021948
Si       7.56346534       5.03811374      11.42074233
Si       7.51283439       2.95014656      12.46267984
Si       9.83771275       2.86992354      12.88862090
Si       5.87398743       1.28519126       1.72645682
16
Lattice="6.540515906555108 0.47359979136280456 1.7713342201672029 2.848064615575256 4.320135511935355 1.1257035471347707 6.646656596181641 1.928703150358848 14.256764571287368" Properties=species:S:1:pos:R:3 unique_starting_index=3 config_type=initial n_minim_iter=5 stress="0.00048147383461296793 -6.159253796459787e-05 -1.897374594393177e-05 -6.159253796459787e-05 -0.00010027938060280881 -0.00016048290087608745 -1.897374594393177e-05 -0.00016048290087608745 -0.00039905732668842455" pbc="T T T"
Si       8.17286873       4.31812453       9.22658845
Si      10.24773944       3.01995800      15.24203473
Si       2.60408439       2.83092656       4.19822967
Si       6.38221829       3.15845776       3.15108474
Si       9.10104742       1.10266137       6.96893857
Si      10.49083388       3.57709825       9.25241347
Si       4.85769548       2.94970174       5.03576265
Si       8.73548828       3.30569417       3.65263783
Si       6.62456568       2.22086154      10.41324211
Si       8.63718509       1.86678943       9.17476418
Si      11.32629462       4.10350258      11.48082865
Si       4.86795282       0.62509869       5.85687116
Si       7.58098293       5.04406559      11.41206342
Si       7.53241552       2.95532583      12.45120049
Si       9.85721123       2.87827312      12.87897098
Si       5.88320062       1.29215692       1.72468350
16
Lattice="6.536715862309198 0.4772834090502509 1.773475203407323 2.8484003568637264 4.322659863558317 1.128037729870391 6.645348539300378 1.9363513567899282 14.26656862024813" Properties=species:S:1:pos:R:3 unique_starting_index=3 config_type=initial n_minim_iter=6 stress="-0.0001136654516765571 0.0002119676581726735 8.024007872253045e-05 0.0002119676581726735 1.7726299058899744e-05 1.0198594168429298e-05 8.024007872253045e-05 1.0198594168429298e-05 0.00014356319223658064" pbc="T T T"
Si       8.17058060       4.32543798       9.23454235
Si      10.24508129       3.03043012      15.25336458
Si       2.60384505       2.83326315       4.20203266
Si       6.38003899       3.16345240       3.15467952
Si       9.09634023       1.10833301       6.97456948
Si      10.48668231       3.58653941       9.26008758
Si       4.85624286       2.95374882       5.03954993
Si       8.73169228       3.31166995       3.65713228
Si       6.62318990       2.22735992      10.42117603
Si       8.63379056       1.87363120       9.18189718
Si      11.32255080       4.11276597      11.49049828
Si       4.86535713       0.62874720       5.86125952
Si       7.58039699       5.05212778      11.42139226
Si       7.53149660       2.96300439      12.46048806
Si       9.85449121       2.88729482      12.88904353
Si       5.88057195       1.29603086       1.72659182
16
Lattice="6.53272125569663 0.4732102006082692 1.771627726711835 2.8429821252527527 4.323582992391573 1.1302383750869665 6.636666578473382 1.9424358314856072 14.26266658187841" Properties=species:S:1:pos:R:3 unique_starting_index=3 config_type=initial n_minim_iter=7 stress="-0.00048596290030785376 -0.0002593317982436718 -7.126181259372684e-05 -0.0002593317982436718 0.0005903291123105026 0.0003614170434956317 -7.126181259372684e-05 0.0003614170434956317 -0.00016569862528757049" pbc="T T T"
Si       8.15875995       4.32735853       9.23329341
Si      10.23474530       3.03562981      15.24783246
Si       2.59628202       2.83494325       4.20251456
Si       6.37401417       3.16351459       3.15336290
Si       9.08836693       1.10275817       6.97109681
Si      10.47525245       3.59031743       9.25669059
Si       4.84845233       2.95227390       5.03736408
Si       8.72203277       3.31072679       3.65751975
Si       6.61772133       2.23041472      10.41847437
Si       8.62479967       1.87385792       9.17967930
Si      11.31150725       4.11432469      11.48700990
Si       4.85929457       0.62777952       5.85873655
Si       7.57073775       5.05724845      11.42067664
Si       7.52211178       2.96714241      12.45987812
Si       9.84524339       2.89027671      12.88838062
Si       5.87963135       1.29453893       1.72371441
16
Lattice="6.537285772951044 0.4706293450932564 1.7716730668287357 2.8444265691209334 4.312838429946369 1.128862407881917 6.636500347394977 1.9306140108112044 14.281129652377135" Properties=species:S:1:pos:R:3 unique_starting_index=3 config_type=initial n_minim_iter=8 stress="-0.00014510300603279947 -0.00017789377619672477 -0.00013285502287213062 -0.00017789377619672477 -0.0004389819494127246 0.00019721036922442018 -0.00013285502287213062 0.00019721036922442018 0.0006217272845428546" pbc="T T T"
Si       8.15855378       4.31160105       9.24290837
Si      10.23923758       3.02350726      15.26538749
Si       2.59208370       2.82325359       4.20735397
Si       6.37817875       3.15665391       3.15255457
Si       9.09093044       1.08996524       6.97755018
Si      10.47802785       3.58389523       9.26347156
Si       4.84746720       2.93883423       5.03797464
Si       8.72559828       3.30286155       3.65957691
Si       6.62228718       2.21921093      10.43203110
Si       8.62775906       1.86347584       9.19022153
Si      11.31707019       4.09791048      11.49824734
Si       4.85780667       0.62005814       5.86549709
Si       7.57439914       5.04026371      11.43386753
Si       7.52588495       2.95322036      12.47673735
Si       9.85099586       2.87687605      12.90680926
Si       5.88783878       1.29289394       1.72129414
16
Lattice="6.537747781330371 0.4715769086648287 1.769693429616709 2.8458553650213427 4.314533326557652 1.1249289723033498 6.6354989859332 1.9232069585679799 14.273638621488136" Properties=species:S:1:pos:R:3 unique_starting_index=3 config_type=initial n_minim_iter=9 stress="-0.00028365978473590025 -1.6721289087033674e-05 -0.00013409357870146533 -1.6721289087033674e-05 0.0002646621778869291 -0.00048020554672967313 -0.00013409357870146533 -0.00048020554672967313 6.039119847450431e-05" pbc="T T T"
Si       8.15616449       4.30889148       9.23619928
Si      10.24124070       3.02143989      15.25704146
Si       2.58854480       2.81778428       4.20431356
Si       6.37928420       3.16039304       3.14701849
Si       9.08843610       1.08213850       6.97280805
Si      10.47648982       3.58989993       9.25416523
Si       4.84530101       2.93490525       5.02831957
Si       8.72597906       3.30558529       3.65543143
Si       6.62460604       2.21421286      10.42802783
Si       8.62822065       1.85886808       9.18364596
Si      11.31798003       4.09321589      11.49022953
Si       4.85378160       0.61412890       5.86275037
Si       7.57719798       5.03744799      11.42580338
Si       7.53059386       2.94721858      12.46918785
Si       9.85404683       2.87236943      12.90090853
Si       5.89101379       1.29665977       1.71715909
16
Lattice="6.5419746059479955 0.4738668912912729 1.7710542342160525 2.848323156191376 4.314514586055008 1.1290862166362259 6.6427652953078615 1.936166253489313 14.272633256983276" Properties=species:S:1:pos:R:3 unique_starting_index=3 config_type=initial n_minim_iter=10 stress="0.00010440614986780662 6.115016594294863e-05 3.9590116171626015e-05 6.115016594294863e-05 8.879945928814183e-06 -5.122549946415903e-06 3.9590116171626015e-05 -5.122549946415903e-06 -0.00019154609269438823" pbc="T T T"
Si       8.16206390       4.31675594       9.23947632
Si      10.25202335       3.03742526      15.25820725
Si       2.58962402       2.81903973       4.20654656
Si       6.38398505       3.16425407       3.14987549
Si       9.09416941       1.08675897       6.97381862
Si      10.48416608       3.60179528       9.25626029
Si       4.84854304       2.93757909       5.02833547
Si       8.73213138       3.30951477       3.65947648
Si       6.63200486       2.22354538      10.42944681
Si       8.63589385       1.86705663       9.18408563
Si      11.32784352       4.10281960      11.49349612
Si       4.85643664       0.61830781       5.86295317
Si       7.58571960       5.04734185      11.42902787
Si       7.54045182       2.95827104      12.46961058
Si       9.86441150       2.88449925      12.90250080
Si       5.89572390       1.29953510       1.71869175
16
Lattice="6.539729536572382 0.47129184277195146 1.7728131945207146 2.8452457936773894 4.31359530020895 1.131910409817763 6.641182004417033 1.9393203698019021 14.280570406853933" Properties=species:S:1:pos:R:3 unique_starting_index=3 config_type=initial n_minim_iter=11 stress="0.00011785975033142552 -5.858201425676359e-06 5.9133429120753665e-05 -5.858201425676359e-06 -0.0002172817779433628 0.0002338832245831753 5.9133429120753665e-05 0.0002338832245831753 0.0003364187949424673" pbc="T T T"
Si       8.15647728       4.31724640       9.24563467
Si      10.24879066       3.03873591      15.26870795
Si       2.58639951       2.82260202       4.20950880
Si       6.38030991       3.16132407       3.15258026
Si       9.09125204       1.08590771       6.98033181
Si      10.48024331       3.60047267       9.26402853
Si       4.84670389       2.93237094       5.03296244
Si       8.72886962       3.30799777       3.66261343
Si       6.62972739       2.22612900      10.43470120
Si       8.63379023       1.86946929       9.18936115
Si      11.32584468       4.10229963      11.50147120
Si       4.85685603       0.61801467       5.86529360
Si       7.58137776       5.04781167      11.43755862
Si       7.53595271       2.96032148      12.47747444
Si       9.86051197       2.88467585      12.90966299
Si       5.89249727       1.29675305       1.72326184
16
Lattice="6.53931840584634 0.47050289715082566 1.7718516562301987 2.8445512121045646 4.313583193904157 1.1312766573219066 6.639244052318703 1.9381324704606933 14.277893438273784" Properties=species:S:1:pos:R:3 unique_starting_index=3 config_type=initial n_minim_iter=12 stress="3.944074461395339e-05 -9.096786206739039e-06 1.315123986801038e-05 -9.096786206739039e-06 -5.1305192078205254e-05 6.844411918153518e-05 1.315123986801038e-05 6.844411918153518e-05 0.00010231662014710621" pbc="T T T"
Si       8.15259247       4.31637489       9.24369851
Si      10.24766759       3.03940808      15.26622500
Si       2.58322574       2.82081414       4.20877074
Si       6.37941899       3.16180208       3.15059265
Si       9.08869350       1.08169686       6.97877710
Si      10.47752459       3.60342715       9.26089079
Si       4.84452885       2.92866847       5.02927493
Si       8.72778455       3.30815765       3.66111218
Si       6.62951227       2.22530666      10.43330255
Si       8.63292419       1.86846922       9.18674445
Si      11.32500104       4.10023324      11.49877349
Si       4.85460275       0.61519822       5.86387351
Si       7.58032651       5.04722437      11.43549310
Si       7.53601668       2.95896077      12.47509321
Si       9.86005910       2.88328071      12.90763875
Si       5.89305500       1.29731143       1.72231916
16
Lattice="6.538943913749852 0.4698830503523378 1.7713160050897356 2.843952029691361 4.313429023135485 1.1310722542566103 6.637919662567878 1.9377046867614942 14.276500397853042" Properties=species:S:1:pos:R:3 unique_starting_index=3 config_type=initial n_minim_iter=13 stress="-1.673798608038708e-05 4.9625919211129725e-06 -7.239250345593215e-06 4.9625919211129725e-06 1.666635336364918e-05 -2.716977198629123e-05 -7.239250345593215e-06 -2.716977198629123e-05 -2.722974495213096e-05" pbc="T T T"
Si       8.14947854       4.31602714       9.24300942
Si      10.24670306       3.04039143      15.26509913
Si       2.58104071       2.81925690       4.20838209
Si       6.37870680       3.16203888       3.14961203
Si       9.08661475       1.07862273       6.97787618
Si      10.47537107       3.60607082       9.25923190
Si       4.84292641       2.92567586       5.02693254
Si       8.72699098       3.30809341       3.66025210
Si       6.62942334       2.22507691      10.43267800
Si       8.63245720       1.86820710       9.18539216
Si      11.32463907       4.09909302      11.49734941
Si       4.85296650       0.61298065       5.86300249
Si       7.57942651       5.04706297      11.43459240
Si       7.53602978       2.95825146      12.47398710
Si       9.85979674       2.88247740      12.90672828
Si       5.89333812       1.29763505       1.72197925
16
Lattice="6.537673190768866 0.46812569962060524 1.7703980054286472 2.8420982144198774 4.313329304415223 1.1310203635637943 6.634970075588048 1.9373957831298885 14.273390338493515" Properties=species:S:1:pos:R:3 unique_starting_index=3 config_type=initial n_minim_iter=14 stress="-9.439811658546272e-05 9.482956565562127e-06 -4.570733081097325e-05 9.482956565562127e-06 0.0001530546646802847 -0.00017364123056970863 -4.570733081097325e-05 -0.00017364123056970863 -0.00025006416353644316" pbc="T T T"
Si       8.14246496       4.31616954       9.24212077
Si      10.24307762       3.04201356      15.26231452
Si       2.57765357       2.81618914       4.20711629
Si       6.37666991       3.16173505       3.14874458
Si       9.08187436       1.07291199       6.97557894
Si      10.47016842       3.61091991       9.25657776
Si       4.83977123       2.91987315       5.02349416
Si       8.72485631       3.30698547       3.65840741
Si       6.62840204       2.22522119      10.43069316
Si       8.63135288       1.86856559       9.18312382
Si      11.32355499       4.09784188      11.49418595
Si       4.85008123       0.60815983       5.86085732
Si       7.57601549       5.04733483      11.43265244
Si       7.53441991       2.95731404      12.47186101
Si       9.85810494       2.88083345      12.90429573
Si       5.89275499       1.29739638       1.72205819
16
Lattice="6.536723175696966 0.466942449629816 1.771796903197158 2.840642895849541 4.3127550772118255 1.1330185144921048 6.635501042054152 1.9401791257582834 14.277096102133722" Properties=species:S:1:pos:R:3 unique_starting_index=3 config_type=initial n_minim_iter=15 stress="1.432529376438559e-05 -3.1059639118370956e-06 8.976259555399975e-06 -3.1059639118370956e-06 -1.901188184678528e-05 3.18754841524101e-05 8.976259555399975e-06 3.18754841524101e-05 4.115663653403336e-05" pbc="T T T"
Si       8.14089578       4.31879146       9.24715341
Si      10.24031513       3.04231266      15.26595826
Si       2.58056107       2.81511970       4.20732284
Si       6.37570807       3.15937997       3.15354909
Si       9.08091927       1.07392338       6.97680230
Si      10.46846059       3.61159862       9.26187162
Si       4.84038102       2.91960166       5.02878807
Si       8.72398431       3.30394652       3.66008066
Si       6.62753125       2.22765943      10.43245517
Si       8.63250871       1.87190311       9.18752822
Si      11.32432992       4.10133404      11.49784986
Si       4.85154036       0.60646109       5.86160715
Si       7.57292610       5.04908258      11.43681321
Si       7.53166873       2.95954415      12.47650671
Si       9.85667822       2.88196162      12.90728085
Si       5.89021628       1.29518298       1.72500788
16
Lattice="6.536304792909884 0.46477413104597787 1.7724962839229448 2.838792767546317 4.310559277080892 1.1349137322902 6.634685874206065 1.9420486788723794 14.281298463391906" Properties=species:S:1:pos:R:3 unique_starting_index=3 config_type=initial n_minim_iter=16 stress="4.597869547080372e-05 -2.666426916105767e-05 3.310774573774349e-06 -2.666426916105767e-05 -8.638666619315077e-05 6.177890063218496e-05 3.310774573774349e-06 6.177890063218496e-05 8.37087563659171e-05" pbc="T T T"
Si       8.13429992       4.32106768       9.25129392
Si      10.24012925       3.04177828      15.26984109
Si       2.57807378       2.80973218       4.20777074
Si       6.37456925       3.15710111       3.15677119
Si       9.07858719       1.06653171       6.97957390
Si      10.46316418       3.62122778       9.26487119
Si       4.83859991       2.91224903       5.03160316
Si       8.72180746       3.30043359       3.66189706
Si       6.62862221       2.22913961      10.43661292
Si       8.63593280       1.87412240       9.18932104
Si      11.32551690       4.10253280      11.50305809
Si       4.85087886       0.59622881       5.86137077
Si       7.56997490       5.04919708      11.44344041
Si       7.53148862       2.96122253      12.48159338
Si       9.85647773       2.88433613      12.91128266
Si       5.88943024       1.29412590       1.72622451
16
Lattice="6.53553525412719 0.46607471721989563 1.7720203036406104 2.8393974377159887 4.312667662729139 1.1337510730023967 6.634505281218997 1.9413634547815193 14.276850439055671" Properties=species:S:1:pos:R:3 unique_starting_index=3 config_type=initial n_minim_iter=17 stress="-5.950392007200308e-05 2.446522392133065e-05 -7.982265516301369e-07 2.446522392133065e-05 7.880856336156277e-05 -7.003818869353743e-05 -7.982265516301369e-07 -7.003818869353743e-05 -7.790439958999706e-05" pbc="T T T"
Si       8.13581968       4.32355683       9.24744934
Si      10.23880166       3.03932764      15.26425346
Si       2.58084931       2.81150845       4.20556376
Si       6.37405191       3.15744333       3.15618427
Si       9.07977731       1.06971964       6.97777605
Si      10.46310190       3.62111867       9.26236660
Si       4.83980378       2.91509950       5.03262168
Si       8.72182495       3.30131665       3.65993622
Si       6.62737588       2.22933833      10.43262095
Si       8.63556081       1.87548575       9.18623515
Si      11.32406984       4.10558074      11.49942370
Si       4.85221156       0.59655653       5.85914943
Si       7.56906931       5.05079751      11.43885954
Si       7.52943668       2.96205506      12.47713569
Si       9.85431393       2.88604375      12.90558440
Si       5.88742944       1.29435698       1.72582312
16
Lattice="6.536881594089551 0.4655634184904909 1.7716474471100905 2.8392309737673167 4.311472508547946 1.135367178997264 6.634333744500444 1.9457709337215106 14.277781072666526" Properties=species:S:1:pos:R:3 unique_starting_index=3 config_type=initial n_minim_iter=18 stress="-1.111698046090922e-06 -2.0402211620541405e-05 -5.556700495849013e-06 -2.0402211620541405e-05 4.393687305666661e-05 -5.695170096619612e-06 -5.556700495849013e-06 -5.695170096619612e-06 -3.320077094857985e-05" pbc="T T T"
Si       8.13367176       4.32725450       9.24977630
Si      10.23956075       3.04276388      15.26514774
Si       2.58066728       2.80863360       4.20633383
Si       6.37344745       3.15525449       3.15704344
Si       9.08299244       1.06685467       6.97861198
Si      10.46189830       3.63083698       9.26346377
Si       4.83875604       2.91003188       5.03445395
Si       8.72375362       3.29854268       3.65969221
Si       6.62952884       2.23195973      10.43371286
Si       8.63741795       1.87957698       9.18633915
Si      11.32537671       4.10962080      11.50181702
Si       4.85272734       0.59305006       5.85756951
Si       7.56876854       5.05605829      11.44059453
Si       7.52959232       2.96583952      12.47891378
Si       9.85513904       2.89190104      12.90606696
Si       5.88895359       1.29381837       1.72546092
16
Lattice="6.538238471595142 0.466400648741626 1.7716746032407693 2.8402497448606914 4.31087163624282 1.1360142112454448 6.635410352070249 1.9480649990279273 14.279410329594397" Properties=species:S:1:pos:R:3 unique_starting_index=3 config_type=initial n_minim_iter=19 stress="1.5921975760245124e-05 4.0533357192272674e-05 2.4673930108558587e-06 4.0533357192272674e-05 -9.918261522893893e-05 3.70122548522075e-05 2.4673930108558587e-06 3.70122548522075e-05 6.01614154944911e-05" pbc="T T T"
Si       8.13541778       4.32913593       9.25131773
Si      10.24157791       3.04465790      15.26706826
Si       2.58179725       2.80796058       4.20718172
Si       6.37417474       3.15393285       3.15753488
Si       9.08694374       1.06732975       6.97980284
Si      10.46373055       3.63539605       9.26511408
Si       4.83960338       2.90859877       5.03582653
Si       8.72598705       3.29749282       3.65962220
Si       6.63114672       2.23340798      10.43493217
Si       8.63831542       1.88226256       9.18713819
Si      11.32704772       4.11242689      11.50424147
Si       4.85488614       0.59348215       5.85792243
Si       7.57038427       5.05957775      11.44159329
Si       7.53064189       2.96858860      12.47994346
Si       9.85633326       2.89557174      12.90736064
Si       5.89002759       1.29321365       1.72521635
16
Lattice="6.538295845658919 0.46463293963282054 1.7723824138800257 2.839240340482368 4.3103982023482015 1.1360902937295037 6.636246387211973 1.9455989030795742 14.280973043691205" Properties=species:S:1:pos:R:3 unique_starting_index=3 config_type=initial n_minim_iter=20 stress="1.3864681414035572e-05 9.019509835900399e-06 2.7212322628580952e-05 9.019509835900399e-06 -8.59488804305583e-06 -2.2366261577900032e-05 2.7212322628580952e-05 -2.2366261577900032e-05 2.2226920523421455e-05" pbc="T T T"
Si       8.13558574       4.32756608       9.25254816
Si      10.24226275       3.03989875      15.26891758
Si       2.58179924       2.80606931       4.20688791
Si       6.37408381       3.14971908       3.15904053
Si       9.08926426       1.06267782       6.98097843
Si      10.46378237       3.63624298       9.26763975
Si       4.84029061       2.90595800       5.03613671
Si       8.72392871       3.29295717       3.65996146
Si       6.63068426       2.23187652      10.43593020
Si       8.63711189       1.88119739       9.18818755
Si      11.32721453       4.11080516      11.50704239
Si       4.85944257       0.59092812       5.86011729
Si       7.56925775       5.06018094      11.44196073
Si       7.53005447       2.96906160      12.47961337
Si       9.85518242       2.89311559      12.91007681
Si       5.88886866       1.28817650       1.72520596
16
Lattice="6.537511098907903 0.4622468510997921 1.7719721829355102 2.836886288249174 4.309174797347112 1.137756694507014 6.633250042798316 1.9485370258622043 14.282387976037073" Properties=species:S:1:pos:R:3 unique_starting_index=3 config_type=initial n_minim_iter=21 stress="-4.480212721570776e-05 2.1230853822688985e-05 -3.385110997287409e-05 2.1230853822688985e-05 -2.0426353834545106e-05 3.965711602762406e-06 -3.385110997287409e-05 3.965711602762406e-06 -0.00011412808014093988" pbc="T T T"
Si       8.12869434       4.33068804       9.25569299
Si      10.23846697       3.04018436      15.27028104
Si       2.57954156       2.80105499       4.20652988
Si       6.37171985       3.14515470       3.16070426
Si       9.08864382       1.05519126       6.98155943
Si      10.45779573       3.64768193       9.26952962
Si       4.83810785       2.89875849       5.03665660
Si       8.72071851       3.28747800       3.65996478
Si       6.62906751       2.23482195      10.43726126
Si       8.63617718       1.88461553       9.18778713
Si      11.32577715       4.11377166      11.51024945
Si       4.86054766       0.58353795       5.85952513
Si       7.56351523       5.06483075      11.44420762
Si       7.52636253       2.97375976      12.48105744
Si       9.85164450       2.89611896      12.91208440
Si       5.88793715       1.28444017       1.72492573
