12
Lattice="5.361010001497471 -4.963860668164906e-27 -1.058732447817153e-18 7.357198381272663e-27 10.813178220471823 -5.834819647263595e-16 7.501457884548479e-19 3.79512731722105e-16 3.86688097227329" Properties=species:S:1:pos:R:3 unique_starting_index=60 config_type=initial n_minim_iter=9 energy=-1953.0955476599327 free_energy=-1953.0955476599327 pbc="T T T"
Si       2.97017589       4.16985503      -0.00015674
Si       2.97017589       6.64332319       3.86703771
Si       0.28967089       1.23673408       1.93328375
Si       0.28967089       9.57644414       1.93359722
Si       4.39380292       7.30928497       1.93227083
Si       4.39380292       3.50389325       1.93461014
Si       1.71329792       8.91048236       3.86571132
Si       1.71329792       1.90269586       0.00116965
Si       0.45432947       4.16957762       3.86730597
Si       0.45432947       6.64360060      -0.00042500
Si       3.13483447       1.23701149       1.93386549
Si       3.13483447       9.57616673       1.93301549
