2
Lattice="2.49585646434623 5.25833970533041e-17 2.4958564643462298 2.4958564643462293 2.4958564643462307 -1.0054820857858898e-16 -3.935820269640665e-16 2.4958564643462298 2.49585646434623" Properties=species:S:1:pos:R:3:forces:R:3 n_minim_iter=1 energy=-325.3593675357789 stress="-0.25528459243146306 -2.8312101706005214e-16 -7.23458589243836e-17 -2.8312101706005214e-16 -0.25528459243146295 -4.3216488167734687e-16 -7.23458589243836e-17 -4.3216488167734687e-16 -0.2552845924314632" free_energy=-325.3593675357789 pbc="T T T"
Si       0.00000000       0.00000000       0.00000000      -0.00000000      -0.00000000      -0.00000000
Si       1.24792823       1.24792823       1.24792823       0.00000000       0.00000000       0.00000000
