8
Lattice="6.181584984557314 0.8990380513735202 1.3886554182454707 -1.7747443851655602 5.989202321186935 -1.3886555127016884 -1.7747443189342051 -3.718371105434393 4.896184752889319" Properties=species:S:1:pos:R:3 unique_starting_index=63 config_type=initial n_minim_iter=1 energy=-1301.8740604601483 free_energy=-1301.8740604601483 pbc="T T T"
Si       2.51886606      -0.14974063       4.92959229
Si      -0.00376784      -1.45932578       3.22462754
Si       1.19172919       5.40810818      -0.01166200
Si       1.32336896       2.69039884       1.88104156
Si       0.11323023       3.31960989      -0.03340763
Si       2.63586413       4.62919504       1.67155712
Si       1.44036710      -2.23823892       4.90784666
Si       1.30872733       0.47947042       3.01514310
8
Lattice="6.061771931822923 0.7597963234229771 1.173582443742905 -1.850945093211676 5.822059039257153 -1.1735825339977648 -1.850945029926254 -3.453727048455764 4.831711614918801" Properties=species:S:1:pos:R:3 unique_starting_index=63 config_type=initial n_minim_iter=2 stress="-0.02105229448301553 -0.004670846924325683 -0.0072145970382412605 -0.004670846924325683 -0.025364962853999702 0.004615631582258807 -0.0072145970382412605 0.004615631582258807 -0.021223886126227776" pbc="T T T"
Si       2.33022196      -0.05885434       4.85611769
Si      -0.15715493      -1.33139320       3.16284735
Si       1.03014215       5.28656031       0.07977745
Si       1.14292481       2.59897824       1.93389344
Si       0.02965986       3.18698265      -0.02440616
Si       2.51703676       4.45952151       1.66886418
Si       1.32973967      -2.15843200       4.75193408
Si       1.21695701       0.52915007       2.89781809
8
Lattice="6.091090127189004 0.7145616866814225 1.103712957649341 -1.9043030903385652 5.829717564654904 -1.1037130473889338 -1.9043030274144408 -3.393112638793294 4.867296604352038" Properties=species:S:1:pos:R:3 unique_starting_index=63 config_type=initial n_minim_iter=3 stress="-0.008713607767211211 -0.00792624071069811 -0.012242883075009838 -0.00792624071069811 -0.016032033775952952 0.007832542480112089 -0.012242883075009838 0.007832542480112089 -0.009004791933611332" pbc="T T T"
Si       2.28039625      -0.01784756       4.89963540
Si      -0.23117950      -1.29316517       3.18367572
Si       0.97202702       5.31478526       0.12318174
Si       1.07718967       2.59703222       1.98911973
Si       0.00208777       3.16901417      -0.03233889
Si       2.51366352       4.44433177       1.68362079
Si       1.31045700      -2.16361865       4.74411478
Si       1.20529435       0.55413439       2.87817678
8
Lattice="6.109120002148444 0.7051360081137629 1.0891540406174471 -1.9204180148435106 5.842136462227105 -1.0891541303980863 -1.9204179518906037 -3.384912074452361 4.884586538599257" Properties=species:S:1:pos:R:3 unique_starting_index=63 config_type=initial n_minim_iter=4 stress="-0.0093754855266142 0.004250234503954575 0.006564918474283709 0.004250234503954575 -0.0054511753936899885 -0.00419999133482392 0.006564918474283709 -0.00419999133482392 -0.009219345808403877" pbc="T T T"
Si       2.24635913       0.02315383       4.98249370
Si      -0.31438869      -1.25915671       3.22130107
Si       0.92053454       5.38477085       0.16961103
Si       1.01143584       2.60627480       2.06044307
Si       0.02192492       3.13920656      -0.09790725
Si       2.58267273       4.42151711       1.66328538
Si       1.34774951      -2.22241046       4.71497543
Si       1.25684821       0.55608559       2.82414338
8
Lattice="6.154026712493241 0.6373497506041698 0.9844512880801718 -2.000784925634824 5.854495622063021 -0.9844513771007586 -2.0007848632148555 -3.2944396968148255 4.938717529527198" Properties=species:S:1:pos:R:3 unique_starting_index=63 config_type=initial n_minim_iter=5 stress="-0.002213051987228744 0.006888756329697693 0.010640383172173811 0.006888756329697693 0.004147447943474828 -0.006807322481977035 0.010640383172173811 -0.006807322481977035 -0.0019599816046095824" pbc="T T T"
Si       2.12945234       0.09383580       5.06745710
Si      -0.43923446      -1.17517436       3.28961963
Si       0.80735989       5.43097400       0.27419919
Si       0.88285793       2.63662275       2.15970863
Si       0.02300460       3.10356987      -0.12873965
Si       2.59169139       4.37258003       1.64909781
Si       1.34509705      -2.23356833       4.66451825
Si       1.26959901       0.56078292       2.77900881
8
Lattice="6.227761097492822 0.5978069236313408 0.9233733791760953 -2.067592170591588 5.904866116756761 -0.9233734683451759 -2.067592108067512 -3.2593285969381753 5.00967461763691" Properties=species:S:1:pos:R:3 unique_starting_index=63 config_type=initial n_minim_iter=6 stress="0.017579954774112932 0.005127449918334331 0.007919866695241818 0.005127449918334331 0.022314212060823586 -0.005066836949047997 0.007919866695241818 -0.005066836949047997 0.01776832051831568" pbc="T T T"
Si       2.05476904       0.12738241       5.13524764
Si      -0.49437880      -1.12566207       3.36684644
Si       0.74559898       5.47082841       0.35098294
Si       0.81479120       2.69508665       2.21806304
Si       0.03780779       3.11596202      -0.12557310
Si       2.58695563       4.36900651       1.64282809
Si       1.34697785      -2.22748397       4.65869159
Si       1.27778563       0.54825779       2.79161149
8
Lattice="6.171635217987656 0.5586792692289144 0.8629367477973704 -2.0795918392618904 5.837508151640761 -0.8629368355062649 -2.0795917777616935 -3.176616745316641 4.972953620506677" Properties=species:S:1:pos:R:3 unique_starting_index=63 config_type=initial n_minim_iter=7 stress="0.0017145113831844477 -0.0006422370672059223 -0.0009920003198529783 -0.0006422370672059223 0.0011215235308095622 0.0006346450095028576 -0.0009920003198529783 0.0006346450095028576 0.0016909176933227574" pbc="T T T"
Si       1.95861678       0.13478691       5.06931678
Si      -0.49631101      -1.07031576       3.36522444
Si       0.69857430       5.37621236       0.40081712
Si       0.76373140       2.70238369       2.19783364
Si       0.05383483       3.08478376      -0.09636324
Si       2.50876262       4.28988643       1.60772910
Si       1.31387731      -2.15664169       4.57213642
Si       1.24872021       0.51718698       2.77511989
8
Lattice="6.1852855642061595 0.5935601464093615 0.9168138013422195 -2.053644373334628 5.864521786443589 -0.9168138898998756 -2.0536443112393084 -3.236830833021314 4.975549206452576" Properties=species:S:1:pos:R:3 unique_starting_index=63 config_type=initial n_minim_iter=8 stress="0.004899885362479819 8.455060216770522e-05 0.00013059698462806178 8.455060216770522e-05 0.004977952298434897 -8.355110668645496e-05 0.00013059698462806178 -8.355110668645496e-05 0.004902991475129777" pbc="T T T"
Si       2.00243112       0.09671174       5.05447394
Si      -0.43108248      -1.10200218       3.36791579
Si       0.75150811       5.37241947       0.37300794
Si       0.81984046       2.72364272       2.15701869
Si       0.07556577       3.12453935      -0.07892482
Si       2.50907937       4.32325327       1.60763334
Si       1.32648878      -2.15116837       4.60254118
Si       1.25815643       0.49760838       2.81853043
8
Lattice="6.1657901340785894 0.5758473060123948 0.8894545224759325 -2.061554715485702 5.839397237379008 -0.8894546104462069 -2.06155465380227 -3.201584796695309 4.963823591129188" Properties=species:S:1:pos:R:3 unique_starting_index=63 config_type=initial n_minim_iter=9 stress="-0.0028562249129536264 0.00037890036796385816 0.000585250066376584 0.00037890036796385816 -0.0025063800862843446 -0.00037442128446482344 0.000585250066376584 -0.00037442128446482344 -0.0028423053523822365" pbc="T T T"
Si       1.96524902       0.10991638       5.04930107
Si      -0.45527239      -1.07594328       3.36756847
Si       0.72393460       5.35614791       0.39664197
Si       0.78604197       2.71880722       2.16694937
Si       0.07743175       3.10374337      -0.08547757
Si       2.49795317       4.28960302       1.59625504
Si       1.31874618      -2.14248817       4.56718154
Si       1.25663880       0.49485252       2.79687413
8
Lattice="6.174136879331182 0.5736175309696465 0.8860104086098012 -2.06707768768849 5.846040793017124 -0.8860104966406248 -2.067077625962618 -3.2011615668445113 4.9712948445972955" Properties=species:S:1:pos:R:3 unique_starting_index=63 config_type=initial n_minim_iter=10 stress="0.00013569542431145768 -0.0001859233391572761 -0.00028717746347921356 -0.0001859233391572761 -3.597059627226028e-05 0.00018372548917669048 -0.00028717746347921356 0.00018372548917669048 0.00012886520874563103" pbc="T T T"
Si       1.96457303       0.11066179       5.05704071
Si      -0.45915048      -1.07377515       3.37114662
Si       0.72297448       5.36308624       0.40008469
Si       0.78244800       2.72100275       2.17079729
Si       0.07540855       3.10783497      -0.08574595
Si       2.49913206       4.29227191       1.60014814
Si       1.31700709      -2.14458949       4.57121007
Si       1.25753358       0.49749400       2.80049746
8
Lattice="6.192565882140565 0.5743317557535794 0.887113601056953 -2.074153704613719 5.8630721830227985 -0.8871136893311748 -2.074153642717218 -3.2091390106271036 4.986382775958098" Properties=species:S:1:pos:R:3 unique_starting_index=63 config_type=initial n_minim_iter=11 stress="0.006000467069569327 -0.0005895614774218778 -0.0009106375262955277 -0.0005895614774218778 0.00545611543962058 0.0005825921120692602 -0.0009106375262955277 0.0005825921120692602 0.0059788085086143975" pbc="T T T"
Si       1.96963982       0.09902263       5.07868352
Si      -0.46030321      -1.06464007       3.37304592
Si       0.73566562       5.38271927       0.40919693
Si       0.77367092       2.72387449       2.16903604
Si       0.07461873       3.12924229      -0.09230083
Si       2.50456176       4.29290499       1.61333677
Si       1.30859293      -2.15445434       4.57718576
Si       1.27058762       0.50439043       2.81734665
8
Lattice="6.174930163207097 0.5734124535420265 0.88569364570809 -2.067596384310095 5.84667507203887 -0.885693733744904 -2.067596322580094 -3.2011321601508302 4.972003211635056" Properties=species:S:1:pos:R:3 unique_starting_index=63 config_type=initial n_minim_iter=12 stress="-1.4988913825280247e-05 -0.0004948705440615446 -0.000764377771172154 -0.0004948705440615446 -0.0004719108763253484 0.000489020545783238 -0.000764377771172154 0.000489020545783238 -3.316883951939184e-05" pbc="T T T"
Si       1.96430142       0.07767950       5.07753541
Si      -0.45812075      -1.04127789       3.35056570
Si       0.75280586       5.37602640       0.42131154
Si       0.75337476       2.70818244       2.14909262
Si       0.07543604       3.14127586      -0.10553228
Si       2.49785822       4.26023325       1.62143743
Si       1.28693161      -2.15707104       4.55069159
Si       1.28636271       0.51077292       2.82291051
8
Lattice="6.1751303618932845 0.576629320690879 0.8906624233887068 -2.064759645437947 5.848205178470354 -0.890662511490643 -2.0647595836623047 -3.2062919472325144 4.971365579302934" Properties=species:S:1:pos:R:3 unique_starting_index=63 config_type=initial n_minim_iter=13 stress="2.808576674246969e-07 0.00012168307677356038 0.00018795185959102093 0.00012168307677356038 0.00011263280686998076 -0.00012024462830639242 0.00018795185959102093 -0.00012024462830639242 4.7510959833364615e-06" pbc="T T T"
Si       1.96919620       0.07551019       5.07860303
Si      -0.45559630      -1.04385513       3.34949874
Si       0.75682704       5.37844728       0.41852336
Si       0.75677280       2.70770491       2.14755032
Si       0.07641494       3.14303235      -0.10723753
Si       2.50120744       4.26239768       1.62186676
Si       1.28878410      -2.15990473       4.55284214
Si       1.28883835       0.51083764       2.82381518
