22
Lattice="5.352343260462725 -2.3366958263989335 -1.5791798763925533 -4.6654981965263405 11.627191264761032 -0.27379861669023275 -3.7758412425248427 -2.048838402447024 11.18911867419047" Properties=species:S:1:pos:R:3 unique_starting_index=18 config_type=initial n_minim_iter=1 energy=-3582.5071959479833 free_energy=-3582.5071959479833 pbc="T T T"
Si      -1.90745783       9.57027803       2.28562819
Si      -0.37735370       0.89557691       6.51685992
Si      -3.56913653      -1.46317711       9.73302502
Si       1.15625510      -1.72382972       9.00912368
Si      -4.85602912       3.73272191      10.27101177
Si       3.05999118       1.23645494       0.64072529
Si       1.81243669      -0.55078317      -0.24774510
Si      -2.88607508       2.42548556       9.65950906
Si      -1.08012877      -2.53706003       8.72202149
Si      -3.82092013       1.91095774       7.46399318
Si       1.54038571      -0.19053631       3.48474740
Si      -3.89808448       5.54180365       5.07629324
Si      -2.58115771       0.03064555       6.47704320
Si      -3.04020497       8.84141072       0.35539989
Si      -0.21237077       2.94172395       5.24798731
Si      -0.98885600       8.14838988      -0.65047576
Si      -0.60282412       0.42876143       2.68779517
Si       2.30466498      -4.32184438       5.95579649
Si      -0.16221412       2.61704701       1.79138586
Si      -4.92796948       6.90259646       8.36583801
Si      -2.32004417       3.84585242       4.54106831
Si      -1.22746730       0.67360670      10.09004618
22
Lattice="5.352442930108002 -2.336408497409876 -1.5792443563563814 -4.6661526521964 11.624069099342208 -0.27322920440494347 -3.775712718003484 -2.047487835788604 11.188623825732483" Properties=species:S:1:pos:R:3 unique_starting_index=18 config_type=initial n_minim_iter=2 stress="-0.0001278376956052215 -4.319633337308097e-05 1.0356511472566342e-05 -4.319633337308097e-05 -0.00026393093715435087 2.223507737096219e-05 1.0356511472566342e-05 2.223507737096219e-05 -0.00012876224768636159" pbc="T T T"
Si      -1.90814215       9.56764040       2.28581909
Si      -0.37745834       0.89579338       6.51652293
Si      -3.56901522      -1.46227571       9.73227099
Si       1.15639010      -1.72290439       9.00872349
Si      -4.85619645       3.73239511      10.27091091
Si       3.05970563       1.23573260       0.64051904
Si       1.81283842      -0.55062065      -0.24752436
Si      -2.88622479       2.42540107       9.65937204
Si      -1.08011414      -2.53587161       8.72177947
Si      -3.82134362       1.91111503       7.46374613
Si       1.54024526      -0.19057276       3.48487366
Si      -3.89812687       5.54072532       5.07618220
Si      -2.58112649       0.03113888       6.47661120
Si      -3.04080724       8.83912661       0.35564147
Si      -0.21249924       2.94096017       5.24797606
Si      -0.98957630       8.14587339      -0.65017750
Si      -0.60292440       0.42871922       2.68746999
Si       2.30498876      -4.32049563       5.95560370
Si      -0.16218132       2.61626860       1.79183215
Si      -4.92803758       6.90149477       8.36605651
Si      -2.32027794       3.84520768       4.54100951
Si      -1.22761180       0.67422473      10.08997113
22
Lattice="5.353468121089593 -2.336613184662175 -1.57963229447981 -4.667038453648752 11.62487303446127 -0.2729524263623428 -3.7766103412768133 -2.047394371299333 11.19037757593538" Properties=species:S:1:pos:R:3 unique_starting_index=18 config_type=initial n_minim_iter=3 stress="0.0001304300837672691 -5.269743479709755e-05 1.07744374914715e-05 -5.269743479709755e-05 -8.268666791946483e-05 3.5758205986546605e-05 1.07744374914715e-05 3.5758205986546605e-05 0.00011557611233130996" pbc="T T T"
Si      -1.90871157       9.56825342       2.28617077
Si      -0.37770056       0.89615996       6.51738478
Si      -3.56980092      -1.46241146       9.73340005
Si       1.15651457      -1.72276622       9.01008121
Si      -4.85724751       3.73284205      10.27276050
Si       3.06004117       1.23557671       0.64031401
Si       1.81363686      -0.55052191      -0.24732083
Si      -2.88694849       2.42576579       9.66107263
Si      -1.08061930      -2.53589152       8.72333214
Si      -3.82259351       1.91156873       7.46491900
Si       1.54029225      -0.19072510       3.48570531
Si      -3.89863043       5.54129623       5.07690983
Si      -2.58169079       0.03133511       6.47740138
Si      -3.04152070       8.83985792       0.35572184
Si      -0.21256872       2.94107863       5.24888906
Si      -0.99006937       8.14621679      -0.65022701
Si      -0.60317558       0.42868867       2.68760491
Si       2.30544189      -4.32074755       5.95667247
Si      -0.16201375       2.61636304       1.79262839
Si      -4.92873030       6.90240575       8.36779639
Si      -2.32080359       3.84571840       4.54172362
Si      -1.22813654       0.67480904      10.09188167
22
Lattice="5.352501101436754 -2.3364491149035604 -1.579450173700779 -4.665189085472424 11.626710645279246 -0.27343680356265576 -3.7766069121540626 -2.048813594063345 11.18909951663784" Properties=species:S:1:pos:R:3 unique_starting_index=18 config_type=initial n_minim_iter=4 stress="1.8713174554175386e-05 3.030307439624746e-06 -8.96184491660225e-06 3.030307439624746e-06 1.2033237446924378e-05 -7.2770088939608826e-06 -8.96184491660225e-06 -7.2770088939608826e-06 -3.49584448050995e-05" pbc="T T T"
Si      -1.90764496       9.56975386       2.28522224
Si      -0.37779392       0.89602341       6.51638279
Si      -3.56966512      -1.46375132       9.73206114
Si       1.15593515      -1.72348171       9.00896130
Si      -4.85647136       3.73246184      10.27136352
Si       3.05959212       1.23595071       0.63992806
Si       1.81357556      -0.55034564      -0.24716858
Si      -2.88659717       2.42540764       9.65977398
Si      -1.08106446      -2.53699732       8.72249686
Si      -3.82233100       1.91123810       7.46387868
Si       1.53982093      -0.19093345       3.48539333
Si      -3.89746974       5.54175553       5.07589366
Si      -2.58148712       0.03075599       6.47643301
Si      -3.04027556       8.84133576       0.35512765
Si      -0.21235314       2.94126016       5.24803028
Si      -0.98929357       8.14764310      -0.65064464
Si      -0.60318373       0.42845751       2.68705983
Si       2.30458143      -4.32174770       5.95620214
Si      -0.16164848       2.61670072       1.79250667
Si      -4.92734348       6.90292675       8.36653968
Si      -2.32021546       3.84605115       4.54087704
Si      -1.22826171       0.67446805      10.09071341
22
Lattice="5.351292848432822 -2.3363740590585005 -1.5795319376323647 -4.663923680499544 11.62682711558321 -0.27345671999109367 -3.775399868390383 -2.0487382609557 11.190866860652902" Properties=species:S:1:pos:R:3 unique_starting_index=18 config_type=initial n_minim_iter=5 stress="-0.00010733741042208615 1.9736282185528124e-05 2.0759285036729133e-05 1.9736282185528124e-05 2.515384245265551e-06 6.265377162807216e-06 2.0759285036729133e-05 6.265377162807216e-06 0.0001038679827489368" pbc="T T T"
Si      -1.90694284       9.56992142       2.28559039
Si      -0.37745977       0.89625134       6.51752791
Si      -3.56842900      -1.46369808       9.73360822
Si       1.15610864      -1.72338651       9.01063286
Si      -4.85497122       3.73252964      10.27309304
Si       3.05905140       1.23604848       0.64021413
Si       1.81326816      -0.55028152      -0.24709393
Si      -2.88554190       2.42559900       9.66142690
Si      -1.08048397      -2.53689248       8.72412040
Si      -3.82138370       1.91138113       7.46508508
Si       1.53961244      -0.19084431       3.48618307
Si      -3.89613386       5.54192029       5.07670629
Si      -2.58067459       0.03079933       6.47734996
Si      -3.03948201       8.84150354       0.35507903
Si      -0.21188158       2.94151355       5.24900477
Si      -0.98904601       8.14768812      -0.65064243
Si      -0.60298273       0.42836659       2.68738637
Si       2.30437190      -4.32161825       5.95720474
Si      -0.16138386       2.61674749       1.79299389
Si      -4.92563102       6.90311879       8.36792300
Si      -2.31944630       3.84606955       4.54156576
Si      -1.22754034       0.67491109      10.09262093
22
Lattice="5.352123218883898 -2.337110559528305 -1.5792106822882739 -4.665498531637918 11.628129558061133 -0.2727899643056238 -3.7752913560899306 -2.0478237230964056 11.18863507604668" Properties=species:S:1:pos:R:3 unique_starting_index=18 config_type=initial n_minim_iter=6 stress="8.429054146887608e-06 -6.73177934879338e-05 6.290093698945285e-05 -6.73177934879338e-05 4.9579924378264126e-05 3.081834785784972e-05 6.290093698945285e-05 3.081834785784972e-05 -6.809704061759205e-05" pbc="T T T"
Si      -1.90844406       9.57070740       2.28469493
Si      -0.37785684       0.89747092       6.51648641
Si      -3.56734276      -1.46274941       9.73194841
Si       1.15709149      -1.72378864       9.00952891
Si      -4.85601642       3.73325365      10.27169129
Si       3.05944423       1.23585718       0.64055224
Si       1.81396841      -0.55037906      -0.24679721
Si      -2.88606123       2.42685831       9.65987613
Si      -1.07969529      -2.53632488       8.72375903
Si      -3.82326120       1.91272509       7.46397876
Si       1.53962556      -0.19086305       3.48631834
Si      -3.89576301       5.54342152       5.07600331
Si      -2.58086806       0.03126143       6.47526289
Si      -3.04137732       8.84291104       0.35438480
Si      -0.21112894       2.94294048       5.24823573
Si      -0.99098305       8.14770226      -0.65007533
Si      -0.60342126       0.42757274       2.68597177
Si       2.30604547      -4.32138596       5.95525783
Si      -0.16103224       2.61674953       1.79353825
Si      -4.92569687       6.90446885       8.36651765
Si      -2.32004435       3.84598295       4.54019084
Si      -1.22738175       0.67763765      10.09210209
22
Lattice="5.352310068092823 -2.336058747501284 -1.5799608666882625 -4.664162090752489 11.626261292412071 -0.272818216632177 -3.7774081652951033 -2.0487731311550346 11.189992107312444" Properties=species:S:1:pos:R:3 unique_starting_index=18 config_type=initial n_minim_iter=7 stress="3.144371900882024e-05 9.89068635865808e-06 -1.739500856682045e-05 9.89068635865808e-06 -1.746506015552178e-05 -8.817036676961492e-06 -1.739500856682045e-05 -8.817036676961492e-06 -2.9066742894586636e-05" pbc="T T T"
Si      -1.90776735       9.56921603       2.28429861
Si      -0.37886129       0.89709795       6.51690417
Si      -3.56890336      -1.46360513       9.73319803
Si       1.15567766      -1.72417554       9.01014200
Si      -4.85741252       3.73143623      10.27285482
Si       3.05969885       1.23608162       0.64009076
Si       1.81409811      -0.55004908      -0.24698676
Si      -2.88742364       2.42566071       9.66073674
Si      -1.08128117      -2.53672295       8.72485931
Si      -3.82463728       1.91161124       7.46494267
Si       1.53907350      -0.19089813       3.48643677
Si      -3.89571541       5.54206047       5.07654168
Si      -2.58199181       0.03051882       6.47581852
Si      -3.04062283       8.84160962       0.35407628
Si      -0.21136517       2.94246234       5.24836914
Si      -0.99011070       8.14655364      -0.65049240
Si      -0.60387541       0.42705248       2.68599763
Si       2.30491569      -4.32089794       5.95540581
Si      -0.16086159       2.61625058       1.79363961
Si      -4.92610752       6.90253279       8.36728016
Si      -2.32035649       3.84477350       4.54044999
Si      -1.22885503       0.67720938      10.09317609
22
Lattice="5.350912530460978 -2.336700084621253 -1.580718817041744 -4.663361583815347 11.62790089361187 -0.27206937671403386 -3.776668357883932 -2.0482360137370113 11.192901556297233" Properties=species:S:1:pos:R:3 unique_starting_index=18 config_type=initial n_minim_iter=8 stress="-0.00011723811469771642 -1.0095608965873573e-05 -3.097322260219943e-05 -1.0095608965873573e-05 4.624239056519547e-05 3.5562066981829455e-05 -3.097322260219943e-05 3.5562066981829455e-05 0.0001343870340285603" pbc="T T T"
Si      -1.90840638       9.57049856       2.28460646
Si      -0.37997887       0.89858177       6.51888494
Si      -3.56728381      -1.46292214       9.73543653
Si       1.15567760      -1.72445840       9.01331074
Si      -4.85739853       3.73198155      10.27606073
Si       3.05924209       1.23638619       0.63996816
Si       1.81384998      -0.55031012      -0.24673402
Si      -2.88800957       2.42668047       9.66328028
Si      -1.08062914      -2.53668879       8.72761006
Si      -3.82515022       1.91216083       7.46755756
Si       1.53819212      -0.19109028       3.48744569
Si      -3.89392975       5.54319866       5.07846030
Si      -2.58181459       0.03151263       6.47629188
Si      -3.04134148       8.84308821       0.35368366
Si      -0.21101896       2.94386042       5.24925860
Si      -0.99112864       8.14677183      -0.65060743
Si      -0.60407515       0.42648337       2.68622213
Si       2.30544940      -4.32095817       5.95664135
Si      -0.16080495       2.61620139       1.79442833
Si      -4.92443712       6.90425524       8.36990131
Si      -2.32013158       3.84449740       4.54203980
Si      -1.22865627       0.67970727      10.09780478
22
Lattice="5.350892905280209 -2.335957823535762 -1.5795568905795554 -4.6628495333695685 11.626768478743145 -0.2739799001394416 -3.7752298622275817 -2.04947828627707 11.192298631925206" Properties=species:S:1:pos:R:3 unique_starting_index=18 config_type=initial n_minim_iter=9 stress="-6.228977189310702e-05 5.0932805976200764e-05 6.484642867249044e-05 5.0932805976200764e-05 7.411047585396851e-06 -5.339899185658286e-06 6.484642867249044e-05 -5.339899185658286e-06 0.00010795274039575043" pbc="T T T"
Si      -1.90757397       9.56948586       2.28309782
Si      -0.37909287       0.89820317       6.51871451
Si      -3.56579151      -1.46395479       9.73467229
Si       1.15741000      -1.72521810       9.01388251
Si      -4.85600866       3.73017462      10.27475756
Si       3.05992953       1.23660993       0.64030817
Si       1.81394947      -0.55013727      -0.24626800
Si      -2.88673017       2.42534438       9.66234566
Si      -1.07922630      -2.53753816       8.72761605
Si      -3.82434902       1.91082435       7.46676016
Si       1.53882017      -0.19141630       3.48766659
Si      -3.89261936       5.54194770       5.07725720
Si      -2.58107349       0.03088354       6.47537121
Si      -3.04116318       8.84222714       0.35202772
Si      -0.20973392       2.94332391       5.24865261
Si      -0.99088238       8.14599571      -0.65170432
Si      -0.60369121       0.42598295       2.68597777
Si       2.30671533      -4.32095433       5.95745903
Si      -0.16026294       2.61569130       1.79412827
Si      -4.92261026       6.90266975       8.36825804
Si      -2.31922906       3.84331502       4.54133885
Si      -1.22684558       0.67910074      10.09803243
