8
Lattice="6.1751303618932845 0.576629320690879 0.8906624233887068 -2.064759645437947 5.848205178470354 -0.890662511490643 -2.0647595836623047 -3.2062919472325144 4.971365579302934" Properties=species:S:1:pos:R:3 unique_starting_index=63 config_type=initial n_minim_iter=13 energy=-1304.4125815661216 free_energy=-1304.4125815661216 pbc="T T T"
Si       1.96919620       0.07551019       5.07860303
Si      -0.45559630      -1.04385513       3.34949874
Si       0.75682704       5.37844728       0.41852336
Si       0.75677280       2.70770491       2.14755032
Si       0.07641494       3.14303235      -0.10723753
Si       2.50120744       4.26239768       1.62186676
Si       1.28878410      -2.15990473       4.55284214
Si       1.28883835       0.51083764       2.82381518
