10
Lattice="4.821367283672833 -1.060210997023948 4.853157952545661e-07 -0.7991330768239695 4.9008257305296805 -1.1492404162943597e-07 -0.39956745901132146 2.4504129330915387 9.293862162519599" Properties=species:S:1:pos:R:3 unique_starting_index=99 config_type=initial n_minim_iter=1 energy=-1627.0735808934003 free_energy=-1627.0735808934003 pbc="T T T"
Si       2.96013051       2.92165894       6.70882036
Si       3.35969746       0.47124604       2.58504247
Si       0.76686469       1.69684291       3.88067947
Si       0.36729800       4.14725579       5.41318283
Si       2.69422887       3.86075188       4.44868067
Si       3.09379537       1.41033902       4.84518210
Si       0.86070131       1.02707250       1.52177777
Si       0.46113415       3.47748541       7.77208455
Si      -0.02411096       4.10939008       3.05918547
Si       0.37545526       1.65897723       6.23467675
10
Lattice="4.725844101856885 -1.0334240244645445 4.7565829787026873e-07 -0.7420630894951921 4.964531305572268 -1.0973592361007391e-07 -0.37103247046882487 2.4822657209901973 9.345569958310532" Properties=species:S:1:pos:R:3 unique_starting_index=99 config_type=initial n_minim_iter=2 stress="-0.006277388048154941 -0.0008464964077390115 -1.147943896869877e-09 -0.0008464964077390115 0.002649928102944228 -6.396901491283308e-11 -1.147943896869877e-09 -6.396901491283308e-11 0.005373986822797921" pbc="T T T"
Si       2.93301867       2.99230662       6.74279970
Si       3.30405063       0.51004094       2.60277091
Si       0.77012656       1.73209691       3.90322089
Si       0.39909486       4.21436257       5.44234920
Si       2.67710651       3.93410781       4.47265813
Si       3.04813802       1.45184216       4.87291242
Si       0.85750781       1.05089670       1.52846528
Si       0.48647565       3.53316239       7.81710484
Si       0.00901616       4.16601535       3.07670443
Si       0.38004739       1.68374972       6.26886559
10
Lattice="4.743242808193213 -1.003615678565016 4.771641772450093e-07 -0.7142772725148381 4.966213991474011 -1.069958922627926e-07 -0.3571395532756395 2.48310706329986 9.257709195676878" Properties=species:S:1:pos:R:3 unique_starting_index=99 config_type=initial n_minim_iter=3 stress="-0.004621933080285395 -0.00022490854717592868 4.3870349434606027e-10 -0.00022490854717592868 0.0021351680413932935 -1.0379282144596859e-10 4.3870349434606027e-10 -1.0379282144596859e-10 -0.009034270992604515" pbc="T T T"
Si       2.96610951       3.01828184       6.67374571
Si       3.32324855       0.53517481       2.58396414
Si       0.78816760       1.74390677       3.86655223
Si       0.43102882       4.22701378       5.39115710
Si       2.71210377       3.94982562       4.42817579
Si       3.06924237       1.46671863       4.82953400
Si       0.87349086       1.05872007       1.51270416
Si       0.51635161       3.54182711       7.74500521
Si       0.03183098       4.17088377       3.04729003
Si       0.38896930       1.68777680       6.21041922
10
Lattice="4.786697646429876 -0.9680105031381484 4.812087297281086e-07 -0.6875303037755909 4.956016397502067 -1.0427206116078356e-07 -0.34376607096675993 2.478008266465716 9.278513327714908" Properties=species:S:1:pos:R:3 unique_starting_index=99 config_type=initial n_minim_iter=4 stress="0.010730984412097876 -0.0008471875876831314 9.784565167299395e-10 -0.0008471875876831314 0.010144876106367912 -1.5127429661818408e-10 9.784565167299395e-10 -1.5127429661818408e-10 0.0009154453519396952" pbc="T T T"
Si       3.01714391       3.04021039       6.68201813
Si       3.36090947       0.56220216       2.59649587
Si       0.81279838       1.75401010       3.87473588
Si       0.46903308       4.23201831       5.40377759
Si       2.76334515       3.95598888       4.43388217
Si       3.10711026       1.47798069       4.84463176
Si       0.89699907       1.06473908       1.51444129
Si       0.55323329       3.54274733       7.76407220
Si       0.05612580       4.16643704       3.05208970
Si       0.39989064       1.68842887       6.22642369
10
Lattice="4.808419788256934 -0.8266599007705688 4.82328828632622e-07 -0.579374804768767 4.810839255360844 -9.24992626491415e-08 -0.2896883255225637 2.405419695694175 9.319492933996683" Properties=species:S:1:pos:R:3 unique_starting_index=99 config_type=initial n_minim_iter=5 stress="0.003352818608060048 -0.00011802303046129044 8.882193092050417e-10 -0.00011802303046129044 -0.016685376905311865 6.91707838232549e-11 8.882193092050417e-10 6.91707838232549e-11 -0.005605457570560714" pbc="T T T"
Si       3.11107519       3.04511931       6.68839017
Si       3.40076300       0.63969965       2.63110344
Si       0.87513370       1.74940828       3.88982558
Si       0.58544614       4.15482792       5.42966751
Si       2.86263154       3.88741306       4.43688434
Si       3.15231889       1.48199344       4.88260921
Si       0.95406216       1.06134460       1.51820873
Si       0.66437413       3.46676428       7.80128439
Si       0.13598933       4.05893154       3.05834239
Si       0.42567642       1.65351194       6.26115062
10
Lattice="4.70992582480818 -0.6981793587402971 4.7163490068184006e-07 -0.40507992574728424 4.9353136264837545 -7.614297708725676e-08 -0.20254088671272769 2.467656881307271 9.326568885929062" Properties=species:S:1:pos:R:3 unique_starting_index=99 config_type=initial n_minim_iter=6 stress="-0.0036200210570882076 0.001954319495890543 -7.271801707158064e-10 0.001954319495890543 0.009217737223647245 1.52419658623849e-10 -7.271801707158064e-10 1.52419658623849e-10 0.0035772004727455693" pbc="T T T"
Si       3.16758727       3.24969843       6.66490728
Si       3.37012763       0.78204158       2.66166227
Si       0.93965134       1.86365433       3.89072865
Si       0.73711122       4.33131116       5.43584040
Si       2.92994180       4.03779998       4.40710684
Si       3.13248172       1.57014317       4.91946266
Si       1.01266559       1.13035519       1.52096696
Si       0.81012501       3.59801204       7.80560212
Si       0.24933682       4.18339889       3.05331102
Si       0.45187646       1.71574210       6.27325794
10
Lattice="4.753720627384907 -0.5117081978004171 4.7461210624015163e-07 -0.23633619187820765 4.873732233170555 -5.897872068332679e-08 -0.11816901889794644 2.4368661845858157 9.317682440622512" Properties=species:S:1:pos:R:3 unique_starting_index=99 config_type=initial n_minim_iter=7 stress="0.00012537118740375301 0.004950621852465091 -6.048708354419839e-10 0.004950621852465091 0.0030086413959534686 5.112427263275e-10 -6.048708354419839e-10 5.112427263275e-10 0.0058670684420960495" pbc="T T T"
Si       3.32506593       3.35880150       6.62082234
Si       3.44323442       0.92193535       2.69686078
Si       1.03395968       1.93716718       3.87665332
Si       0.91579143       4.37403331       5.44102930
Si       3.07624864       4.01476849       4.33190504
Si       3.19441668       1.57790238       4.98577802
Si       1.12233497       1.16877251       1.53490333
Si       1.00416625       3.60563867       7.78277932
Si       0.37411231       4.16734992       3.03580804
Si       0.49228008       1.73048383       6.28187448
10
Lattice="4.823419591149046 -0.5772775173055776 4.819946316680403e-07 -0.3255550163238091 4.823634501784656 -6.745063760536372e-08 -0.16277842546142424 2.4118173184759044 9.260549043356747" Properties=species:S:1:pos:R:3 unique_starting_index=99 config_type=initial n_minim_iter=8 stress="0.008928386558342367 0.0005644879967461355 9.263817859555253e-10 0.0005644879967461355 -0.009637218228199037 1.2285105117069897e-10 9.263817859555253e-10 1.2285105117069897e-10 -0.0004654409480959282" pbc="T T T"
Si       3.31015303       3.27472444       6.58029630
Si       3.47293093       0.86290716       2.68025343
Si       0.99193649       1.92115948       3.84240720
Si       0.82915883       4.33297674       5.41814202
Si       3.03748363       3.87002561       4.24682128
Si       3.20026106       1.45820837       5.01372839
Si       1.13312068       1.14115495       1.55152768
Si       0.97034256       3.55297225       7.70902158
Si       0.31391422       4.14482128       3.01132450
Si       0.47669141       1.73300406       6.24922462
10
Lattice="4.787257304604563 -0.5875595167186115 4.784876304838062e-07 -0.3159593400391782 4.887542618062486 -6.696654401371007e-08 -0.1579805820197935 2.4437713762243822 9.20705008061094" Properties=species:S:1:pos:R:3 unique_starting_index=99 config_type=initial n_minim_iter=9 stress="0.0022793230339246203 0.0014240740154283994 1.0462265390564629e-10 0.0014240740154283994 -0.0023571732036157715 1.6642460702589428e-10 1.0462265390564629e-10 1.6642460702589428e-10 0.0011181903158501028" pbc="T T T"
Si       3.29230333       3.32911594       6.52815006
Si       3.45028338       0.88534460       2.67890070
Si       0.96990519       1.98581745       3.81358424
Si       0.81192536       4.42958877       5.39346602
Si       2.99940728       3.82506545       4.14682647
Si       3.15738686       1.38129415       5.06022422
Si       1.16161436       1.16472712       1.55915918
Si       1.00363409       3.60849848       7.64789113
Si       0.32053678       4.23193737       2.98927638
Si       0.47851613       1.78816608       6.21777378
10
Lattice="4.757855190776708 -0.6597464273671797 4.761020381923565e-07 -0.3746205684334958 4.932299690153176 -7.310384319372075e-08 -0.1873111931564378 2.466149912044237 9.176152815126445" Properties=species:S:1:pos:R:3 unique_starting_index=99 config_type=initial n_minim_iter=10 stress="-0.0021141221451343524 -0.0013845878521980119 -6.937168069667422e-11 -0.0013845878521980119 0.002147281659170914 -1.6239356082230416e-10 -6.937168069667422e-11 -1.6239356082230416e-10 -0.001311772182030982" pbc="T T T"
Si       3.22715939       3.31287451       6.50395609
Si       3.41447005       0.84672464       2.67219740
Si       0.91846634       1.99886564       3.80528862
Si       0.73115590       4.46501550       5.37086436
Si       2.92584399       3.77984271       4.11194714
Si       3.11315418       1.31369288       5.06420628
Si       1.14196039       1.16448661       1.54593867
Si       0.95464951       3.63063650       7.63021437
Si       0.28153710       4.27749705       2.98421315
Si       0.46884707       1.81134723       6.19193974
10
Lattice="4.746378037161852 -0.643998378034628 4.7485024462143555e-07 -0.35564676501936465 4.937137837074957 -7.125971068036049e-08 -0.17782428957328503 2.4685689853669013 9.157212879062232" Properties=species:S:1:pos:R:3 unique_starting_index=99 config_type=initial n_minim_iter=11 stress="-0.0015818677963100828 -0.0020896317818058967 -2.7655498965985903e-10 -0.0020896317818058967 0.0047492574004179625 -2.3169270613186195e-10 -2.7655498965985903e-10 -2.3169270613186195e-10 0.0013640359109210825" pbc="T T T"
Si       3.23288958       3.33741672       6.47024791
Si       3.41071333       0.86884777       2.68696564
Si       0.90261476       2.03341984       3.80393562
Si       0.72479122       4.50198877       5.35327741
Si       2.91756340       3.72086802       4.06925384
Si       3.09538668       1.25229911       5.08795965
Si       1.16167784       1.18697183       1.52203096
Si       0.98385385       3.65554079       7.63518214
Si       0.31790352       4.30257514       2.98195002
Si       0.49572658       1.83400625       6.17526294
10
Lattice="4.746223448110804 -0.5793878160255141 4.743634036528995e-07 -0.299678445750623 4.892877950439647 -6.539278514963395e-08 -0.14984013002933455 2.4464390420559066 9.158125721665627" Properties=species:S:1:pos:R:3 unique_starting_index=99 config_type=initial n_minim_iter=12 stress="0.00334335710800974 -0.002160488893243645 5.798191904669391e-10 -0.002160488893243645 0.0001408447911490614 -2.3219166420943648e-10 5.798191904669391e-10 -2.3219166420943648e-10 -0.0023509988830853197" pbc="T T T"
Si       3.26966887       3.34903090       6.45466755
Si       3.41950846       0.90259190       2.70345885
Si       0.90405694       2.03080769       3.81145218
Si       0.75421756       4.47724668       5.34667370
Si       2.96478519       3.69835986       4.08315373
Si       3.11462431       1.25192089       5.07497260
Si       1.16757702       1.21341869       1.48999733
Si       1.01773719       3.65985771       7.66812861
Si       0.40642696       4.27888408       2.98528172
Si       0.55626587       1.83244513       6.17284410
10
Lattice="4.6854321591667 -0.3775816353955057 4.668689667519336e-07 -0.09475303518855413 4.846116897732758 -4.4752728900529004e-08 -0.047377433382276735 2.4230585163385823 9.245289584557973" Properties=species:S:1:pos:R:3 unique_starting_index=99 config_type=initial n_minim_iter=13 stress="0.002645910211517526 6.0219383119173e-05 -1.0004034612634672e-09 6.0219383119173e-05 -0.009183003036315472 1.6596646746685669e-10 -1.0004034612634672e-09 1.6596646746685669e-10 0.012740993807652605" pbc="T T T"
Si       3.35252371       3.44159224       6.49152879
Si       3.39990060       1.01853377       2.75376146
Si       0.92944276       2.05215616       3.83189126
Si       0.88206609       4.47521462       5.41339849
Si       3.10858638       3.72827139       4.11207626
Si       3.15596279       1.30521295       5.13321394
Si       1.18434891       1.29900415       1.51587738
Si       1.13697178       3.72206265       7.72941243
Si       0.67338785       4.31040903       2.98712680
Si       0.72076404       1.88735060       6.25816291
10
Lattice="4.6227285527991535 -0.28080530222306127 4.599516148997321e-07 0.023876238397945157 4.890978561200742 -3.3329360398579866e-08 0.01193720602625005 2.4454893478798896 9.218887199846504" Properties=species:S:1:pos:R:3 unique_starting_index=99 config_type=initial n_minim_iter=14 stress="-0.0027849271909706325 0.0007025559795493527 -6.805444811087223e-10 0.0007025559795493527 -0.0015156069432824613 1.1009004390259883e-10 -6.805444811087223e-10 1.1009004390259883e-10 0.0040337124163633085" pbc="T T T"
Si       3.37061986       3.52287919       6.46105176
Si       3.35868210       1.07738988       2.75783610
Si       0.92809966       2.07571065       3.82062455
Si       0.94003762       4.52119995       5.39826281
Si       3.18815414       3.81171622       4.11067863
Si       3.17621592       1.36622695       5.10820919
Si       1.16690258       1.36945223       1.51375756
Si       1.17884008       3.81494155       7.70512986
Si       0.84857228       4.39342118       2.96701080
Si       0.83663384       1.94793192       6.25187655
10
Lattice="4.642209304756744 -0.31104397006313556 4.6210195398836583e-07 0.0056833836317680105 4.962707415273651 -3.56549230410868e-08 0.0028407925075567032 2.481353773894861 9.078919922859637" Properties=species:S:1:pos:R:3 unique_starting_index=99 config_type=initial n_minim_iter=15 stress="0.0013041312757468347 -0.0011791471929984898 1.7337535605307917e-09 -0.0011791471929984898 0.009132864039647744 -3.0103749684182267e-10 1.7337535605307917e-09 -3.0103749684182267e-10 -0.0161120100975705" pbc="T T T"
Si       3.34960479       3.54494582       6.35768978
Si       3.34676346       1.06359208       2.72123080
Si       0.93500977       2.12295496       3.79443067
Si       0.93785131       4.60430868       5.28448942
Si       3.20482189       3.85352429       4.00931925
Si       3.20198009       1.37217059       5.06960130
Si       1.14998639       1.39047476       1.50300853
Si       1.15282748       3.87182851       7.57591161
Si       0.84407687       4.43054430       2.93937312
Si       0.84123486       1.94919061       6.13954695
10
Lattice="4.618276327811784 -0.16576012254131609 4.586710010474697e-07 0.15187042529897282 4.937886854317822 -2.0993290373066077e-08 0.07593430850579744 2.4689434937731978 9.127735071028368" Properties=species:S:1:pos:R:3 unique_starting_index=99 config_type=initial n_minim_iter=16 stress="-0.0012802194446008136 0.0026324472029542923 5.753274281338763e-10 0.0026324472029542923 0.0035611861584406916 1.8161932398965454e-10 5.753274281338763e-10 1.8161932398965454e-10 -0.007282357614395966" pbc="T T T"
Si       3.40542091       3.61237471       6.36024834
Si       3.32948605       1.14343126       2.76748738
Si       0.97023377       2.16410036       3.82873504
Si       1.04616884       4.63304380       5.29900020
Si       3.32393659       3.87431972       3.98937310
Si       3.24800126       1.40537630       5.13836260
Si       1.16103512       1.45878590       1.52101547
Si       1.23696973       3.92772938       7.60671982
Si       1.04470118       4.44918322       2.94936607
Si       0.96876565       1.98023982       6.17836918
10
Lattice="4.611467788702309 -0.15445899709388 4.579141089854684e-07 0.1574690123454779 4.905975347213924 -2.020583471971737e-08 0.07873359508777039 2.4529877407326586 9.197810402529107" Properties=species:S:1:pos:R:3 unique_starting_index=99 config_type=initial n_minim_iter=17 stress="-0.0035403293178918618 0.0009935830195416414 -6.092263577302232e-10 0.0009935830195416414 -0.003082189736836545 1.394265198238273e-10 -6.092263577302232e-10 1.394265198238273e-10 0.0025368800297460798" pbc="T T T"
Si       3.38666334       3.58897552       6.39816536
Si       3.30792919       1.13598782       2.79964569
Si       0.96878482       2.15605675       3.86812274
Si       1.04751918       4.60904443       5.32968783
Si       3.34760994       3.86075274       4.01445970
Si       3.26887532       1.40776508       5.18335134
Si       1.12985224       1.46342322       1.54140201
Si       1.20858614       3.91641094       7.65640860
Si       1.07655874       4.40986404       2.97022346
Si       0.99782391       1.95687639       6.22758712
10
Lattice="4.620364167014292 -0.13017801671976068 4.5861813190858546e-07 0.17899644518759977 4.898339317382885 -1.801771663950425e-08 0.089497309590573 2.44916972595847 9.217176059388885" Properties=species:S:1:pos:R:3 unique_starting_index=99 config_type=initial n_minim_iter=18 stress="-0.00037064091965210706 0.0010564686262720235 -4.0348193357434685e-10 0.0010564686262720235 -0.004407292131553349 1.632662985859561e-10 -4.0348193357434685e-10 1.632662985859561e-10 0.003624852518609687" pbc="T T T"
Si       3.39772493       3.60350409       6.39866082
Si       3.30822707       1.15433441       2.81851589
Si       0.98604325       2.16090296       3.88170303
Si       1.07554133       4.61007263       5.33547320
Si       3.38913241       3.87502974       4.02554400
Si       3.29963407       1.42586009       5.19163271
Si       1.11148040       1.47501418       1.55361823
Si       1.20097802       3.92418388       7.66355803
Si       1.11253144       4.38954587       2.97002302
Si       1.02303290       1.94037624       6.24715322
10
Lattice="4.616646702294121 -0.13451540004899754 4.582815539028367e-07 0.17794137975680063 4.9107888702455975 -1.821308237808346e-08 0.08896977663557354 2.4553945024074806 9.219594920447358" Properties=species:S:1:pos:R:3 unique_starting_index=99 config_type=initial n_minim_iter=19 stress="0.0023912516636880043 7.417737525587846e-05 1.776928045056752e-11 7.417737525587846e-05 -0.0015456736867564018 3.472979022756531e-11 1.776928045056752e-11 3.472979022756531e-11 0.0022063970647699994" pbc="T T T"
Si       3.38852444       3.62312800       6.38815995
Si       3.29955411       1.16773354       2.83143562
Si       0.99075244       2.16593009       3.88713949
Si       1.07972299       4.62132454       5.33245561
Si       3.40051043       3.87848612       4.03100379
Si       3.31153963       1.42309170       5.18859178
Si       1.08123219       1.48517065       1.56068020
Si       1.17020227       3.94056513       7.65891492
Si       1.12491661       4.38251765       2.96153703
Si       1.03594559       1.92712324       6.25805808
10
Lattice="4.597790697919739 -0.1501725603101346 4.5652804643043925e-07 0.17149286022836716 4.939626409269235 -1.9062294035571248e-08 0.08574551971518433 2.469813271709775 9.19088520343811" Properties=species:S:1:pos:R:3 unique_starting_index=99 config_type=initial n_minim_iter=20 stress="0.0027472237507834354 -0.0006539597871538327 4.161078620828341e-10 -0.0006539597871538327 0.0021518490419405504 -9.073863389938118e-11 4.161078620828341e-10 -9.073863389938118e-11 -0.0014053921513893872" pbc="T T T"
Si       3.37159070       3.67330650       6.34758574
Si       3.28584462       1.20349327       2.84330011
Si       0.99397123       2.18546945       3.88308319
Si       1.07971752       4.65528266       5.30780219
Si       3.38541729       3.84358706       3.99692332
Si       3.29967074       1.37377387       5.19396252
Si       1.04535281       1.50255646       1.56239871
Si       1.13109864       3.97236971       7.62848668
Si       1.13039778       4.39122682       2.93639895
Si       1.04465102       1.92141364       6.25448644
10
Lattice="4.581240601771769 -0.20308894412619727 4.552748687567511e-07 0.11955640052501917 4.935573912606126 -2.4177261829063103e-08 0.059777289331477225 2.4677870234174173 9.196256317752672" Properties=species:S:1:pos:R:3 unique_starting_index=99 config_type=initial n_minim_iter=21 stress="-0.0007815212917256278 -0.002394070774287809 -4.3680800087376815e-10 -0.002394070774287809 0.004853740060208403 -2.4480031229056337e-10 -4.3680800087376815e-10 -2.4480031229056337e-10 0.003804636919326496" pbc="T T T"
Si       3.34452543       3.66472832       6.36636561
Si       3.28474758       1.19694134       2.82989135
Si       0.98134789       2.15397898       3.89032113
Si       1.04112595       4.62176594       5.30593536
Si       3.32238078       3.80445051       3.99690022
Si       3.26260246       1.33666356       5.19935673
Si       1.02562238       1.47141494       1.55393272
Si       1.08539998       3.93920194       7.64232379
Si       1.05190745       4.38063365       2.93391198
Si       0.99212892       1.91284671       6.26234452
