4
Lattice="1.7829464499917158 -3.0881538385602134 -9.84379893594926e-18 1.7829464499917158 3.0881538385602134 9.84379893594928e-18 -3.4266976169300527e-32 -1.878094677559122e-17 5.891877033878499" Properties=species:S:1:pos:R:3:forces:R:3 cutoff=-1.0 nneightol=1.2 n_minim_iter=1 energy=-651.2930243693195 stress="-0.21917294177260174 -3.0880809976956626e-16 -5.0364827750289566e-17 -3.0880809976956626e-16 -0.21917294177260166 9.453329149942206e-17 -5.0364827750289566e-17 9.453329149942206e-17 -0.2148869013269585" free_energy=-651.2930243693195 pbc="T T T"
Si       1.78294645       1.02938461       0.37933367       0.00000000      -0.00000000       0.11103047
Si       1.78294645      -1.02938461       3.32527218       0.00000000      -0.00000000       0.11103047
Si       1.78294645       1.02938461       2.56660485      -0.00000000       0.00000000      -0.11103047
Si       1.78294645      -1.02938461      -0.37933367      -0.00000000       0.00000000      -0.11103047
4
Lattice="1.783952321479678 -3.08989605908325 -8.622885092770736e-18 1.783952321479678 3.08989605908325 8.622885092770778e-18 -3.627155057016133e-32 -2.1091032893266682e-17 5.885234703538264" Properties=species:S:1:pos:R:3:forces:R:3 cutoff=-1.0 nneightol=1.2 n_minim_iter=2 energy=-651.2933310757562 stress="-0.21696392339165296 -7.266072935754501e-17 -1.805042256164289e-16 -7.266072935754501e-17 -0.21696392339165296 2.5332279568719284e-17 -1.805042256164289e-16 2.5332279568719284e-17 -0.2182965090824604" free_energy=-651.2933310757562 pbc="T T T"
Si       1.78395232       1.02996535       0.37958082       0.00000000      -0.00000000       0.03631669
Si       1.78395232      -1.02996535       3.32219817       0.00000000       0.00000000       0.03631669
Si       1.78395232       1.02996535       2.56303653      -0.00000000       0.00000000      -0.03631669
Si       1.78395232      -1.02996535      -0.37958082      -0.00000000       0.00000000      -0.03631669
4
Lattice="1.7814750761649278 -3.0856053443352884 -7.476738794700055e-18 1.7814750761649278 3.0856053443352884 7.47673879470013e-18 -2.856834363218086e-32 -2.329693891517186e-17 5.901613609856079" Properties=species:S:1:pos:R:3:forces:R:3 cutoff=-1.0 nneightol=1.2 n_minim_iter=3 energy=-651.2937206367557 stress="-0.21714413317182238 -2.361473704120213e-16 -1.1724334987151884e-16 -2.361473704120213e-16 -0.21714413317182418 -2.4547825998175825e-16 -1.1724334987151884e-16 -2.4547825998175825e-16 -0.21718613479443602" free_energy=-651.2937206367557 pbc="T T T"
Si       1.78147508       1.02853511       0.38403938       0.00000000       0.00000000       0.00183444
Si       1.78147508      -1.02853511       3.33484618       0.00000000      -0.00000000       0.00183444
Si       1.78147508       1.02853511       2.56676743      -0.00000000       0.00000000      -0.00183444
Si       1.78147508      -1.02853511      -0.38403938       0.00000000      -0.00000000      -0.00183444
