4
Lattice="1.8568368838725493 -3.2161358242351255 -8.384222669001728e-18 1.8568368838725497 3.2161358242351255 8.38422266900173e-18 -1.5009906666089108e-33 -1.6018540173881288e-17 6.111323694011037" Properties=species:S:1:pos:R:3:forces:R:3 cutoff=-1.0 nneightol=1.2 n_minim_iter=3 energy=-652.5181071042307 stress="-0.047606089089614535 -9.990850286662439e-17 -2.6204724197833238e-18 -9.990850286662439e-17 -0.04760608908961522 -1.5321668084019402e-16 -2.6204724197833238e-18 -1.5321668084019402e-16 -0.047714327144441813" free_energy=-652.5181071042307 pbc="T T T"
Si       1.85683688       1.07204527       0.38310865      -0.00000000       0.00000000       0.00035719
Si       1.85683688      -1.07204527       3.43877050       0.00000000       0.00000000       0.00035719
Si       1.85683688       1.07204527       2.67255320      -0.00000000      -0.00000000      -0.00035719
Si       1.85683688      -1.07204527      -0.38310865       0.00000000      -0.00000000      -0.00035719
