4
Lattice="1.9390552036430695 -3.3585421313906125 -8.763402363422463e-18 1.9390552036430704 3.3585421313906125 8.76340236342246e-18 -1.5183355258796863e-33 -1.67448566198067e-17 6.382396857430249" Properties=species:S:1:pos:R:3:forces:R:3 cutoff=-1.0 nneightol=1.2 n_minim_iter=2 energy=-652.6371977094987 stress="0.0113509569831499 1.3112991001244452e-16 -5.34953244485194e-18 1.3112991001244452e-16 0.011350956983149692 -1.1791876803550156e-16 -5.34953244485194e-18 -1.1791876803550156e-16 0.011642997727517127" free_energy=-652.6371977094987 pbc="T T T"
Si       1.93905520       1.11951404       0.40047784       0.00000000       0.00000000       0.00360366
Si       1.93905520      -1.11951404       3.59167627       0.00000000       0.00000000       0.00360366
Si       1.93905520       1.11951404       2.79072059      -0.00000000      -0.00000000      -0.00360366
Si       1.93905520      -1.11951404      -0.40047784      -0.00000000      -0.00000000      -0.00360366
