1
Lattice="2.833952383870558 1.2983067255887435e-17 -3.4275944927272236e-51 1.4169761919352788 2.454274757547372 3.1955766488942677e-49 2.455692587732116e-49 -5.649951552653412e-48 2.6401493659914084" Properties=species:S:1:pos:R:3 cutoff=-1.0 nneightol=1.2 n_minim_iter=1 energy=-162.68016393316324 free_energy=-162.68016393316324 pbc="T T T"
Si       0.00000000       0.00000000       0.00000000
