1
Lattice="2.7940322441015835 1.2800182793030947e-17 -3.379312082620476e-51 1.3970161220507917 2.419702902384815 3.150562531087497e-49 2.2951721993100275e-49 -4.2074254700466737e-48 2.602959209833104" Properties=species:S:1:pos:R:3 cutoff=-1.0 nneightol=1.2 n_minim_iter=1 energy=-162.73556645184718 free_energy=-162.73556645184718 pbc="T T T"
Si       0.00000000       0.00000000       0.00000000
