1
Lattice="2.666851297355473 1.2217534053175613e-17 -3.2254899100505097e-51 1.3334256486777363 2.309560971625328 3.007152759660406e-49 1.8902076387179903e-49 -7.636601131279066e-49 2.4844756750253194" Properties=species:S:1:pos:R:3 cutoff=-1.0 nneightol=1.2 n_minim_iter=1 energy=-162.83502158257485 free_energy=-162.83502158257485 pbc="T T T"
Si       0.00000000       0.00000000       0.00000000
