1
Lattice="2.574816617918462 1.1795899434398859e-17 -3.114176268306334e-51 1.287408308959231 2.2298566012037186 2.903374067339647e-49 2.05707219590209e-49 -3.249314832525149e-48 2.398734890547852" Properties=species:S:1:pos:R:3 cutoff=-1.0 nneightol=1.2 n_minim_iter=1 energy=-162.78729733422014 free_energy=-162.78729733422014 pbc="T T T"
Si       0.00000000       0.00000000       0.00000000
