1
Lattice="2.7319219549997165 1.2515639529254999e-17 -3.3041912421720226e-51 1.3659609774998582 2.3659138141862024 3.0805267073948902e-49 1.9978929490150025e-49 -1.4486138140628243e-48 2.545096402635942" Properties=species:S:1:pos:R:3 cutoff=-1.0 nneightol=1.2 n_minim_iter=1 stress="0.03354466283640554 3.1416198880117804e-16 2.6415014242181065e-17 3.1416198880117804e-16 0.03354466283640427 5.685679445970335e-17 2.6415014242181065e-17 5.685679445970335e-17 0.03806639540854612" pbc="T T T"
Si       0.00000000       0.00000000       0.00000000
