1
Lattice="2.4159022905857648 1.6299398115239208e-18 7.256747200119e-51 1.2079511452928824 2.0922327567082872 -3.4822483608716585e-49 1.5339935297361517e-49 6.418634959786202e-50 2.2705699286766543" Properties=species:S:1:pos:R:3 cutoff=-1.0 nneightol=1.2 n_minim_iter=1 stress="-0.2958402919794412 -2.0536795562940495e-16 3.147805131869512e-16 -2.0536795562940495e-16 -0.29584029197943706 -1.0180633697867938e-16 3.147805131869512e-16 -1.0180633697867938e-16 -0.29593293222193284" pbc="T T T"
Si       0.00000000       0.00000000       0.00000000
