1
Lattice="2.4063513104984975 2.2885087022706947e-16 7.284057335659343e-51 1.2031756552492485 2.083961365321674 1.4242654126336246e-50 9.661728512577533e-50 -1.0302536631552346e-48 2.2834961712923327" Properties=species:S:1:pos:R:3:forces:R:3 cutoff=-1.0 nneightol=1.2 n_minim_iter=1 energy=-162.3517269925862 stress="-0.3327863548038217 -1.5463630382085792e-17 2.242037931335715e-17 -1.5463630382085792e-17 -0.3327863548038215 -2.3200547917842185e-16 2.242037931335715e-17 -2.3200547917842185e-16 -0.35449175729834664" free_energy=-162.3517269925862 pbc="T T T"
Si       0.00000000       0.00000000       0.00000000      -0.00000000       0.00000000      -0.00000000
1
Lattice="2.4007433237091296 2.2283881836293396e-16 9.787867332148912e-51 1.2003716618545646 2.079104706297994 2.074229330703906e-49 4.538684150159358e-50 -1.0058757857104741e-48 2.2941768409249783" Properties=species:S:1:pos:R:3:forces:R:3 cutoff=-1.0 nneightol=1.2 n_minim_iter=2 energy=-162.3523015436481 stress="-0.3391787767016916 -2.431476204681708e-16 -3.0752277031158767e-17 -2.431476204681708e-16 -0.3391787767016924 -2.976759820996403e-17 -3.0752277031158767e-17 -2.976759820996403e-17 -0.33916574328875126" free_energy=-162.3523015436481 pbc="T T T"
Si       0.00000000       0.00000000       0.00000000       0.00000000      -0.00000000       0.00000000
