1
Lattice="2.640467374253006 2.405691587181413e-16 -8.03513287540488e-51 1.3202336871265028 2.2867118239670967 5.185859360927367e-50 4.769532564504874e-50 -2.4656134640546695e-49 2.4654720976621425" Properties=species:S:1:pos:R:3:forces:R:3 cutoff=-1.0 nneightol=1.2 n_minim_iter=1 energy=-162.834667809312 stress="-0.012970971847940924 -1.176953383913239e-16 -2.0975406842018113e-18 -1.176953383913239e-16 -0.012970971847940936 -9.32240304089694e-19 -2.0975406842018113e-18 -9.32240304089694e-19 -0.009696718884639058" free_energy=-162.834667809312 pbc="T T T"
Si       0.00000000       0.00000000       0.00000000       0.00000000      -0.00000000       0.00000000
