1
Lattice="2.4907044087727956 2.3408861167468285e-16 -1.919438343646202e-51 1.2453522043863974 2.1570132913151423 4.550390786517269e-50 1.1830836268723483e-49 -9.083139456548028e-49 2.3445886438463313" Properties=species:S:1:pos:R:3:forces:R:3 cutoff=-1.0 nneightol=1.2 n_minim_iter=1 energy=-162.6418383947482 stress="-0.17765020316168628 -1.161559220453959e-16 -3.3224302882969355e-18 -1.161559220453959e-16 -0.17765020316168667 1.7128591382670718e-17 -3.3224302882969355e-18 1.7128591382670718e-17 -0.18843745945368265" free_energy=-162.6418383947482 pbc="T T T"
Si       0.00000000       0.00000000       0.00000000      -0.00000000       0.00000000      -0.00000000
