1
Lattice="2.6177035917298763 2.3849518345746184e-16 -7.965861041522853e-51 1.3088517958649377 2.266997810015842 5.141151452078052e-50 6.215999603466425e-50 -3.638853575012282e-49 2.4442169701815755" Properties=species:S:1:pos:R:3:forces:R:3 cutoff=-1.0 nneightol=1.2 n_minim_iter=1 energy=-162.8265017577486 stress="-0.03096494545193048 2.4158516827692797e-17 1.4351594155065036e-18 2.4158516827692797e-17 -0.03096494545193061 -1.2916434739558521e-17 1.4351594155065036e-18 -1.2916434739558521e-17 -0.03223785980663026" free_energy=-162.8265017577486 pbc="T T T"
Si       0.00000000       0.00000000       0.00000000       0.00000000      -0.00000000       0.00000000
