1
Lattice="2.515613105274139 2.3642965309336263e-16 -1.938634000499952e-51 1.257806552637069 2.178584855260462 4.595897713258411e-50 1.1584171453625157e-49 -8.153792662794589e-49 2.3680360857605005" Properties=species:S:1:pos:R:3:forces:R:3 cutoff=-1.0 nneightol=1.2 n_minim_iter=1 energy=-162.7030023421354 stress="-0.1390717716368775 -2.788602515876085e-16 2.1913002386825226e-17 -2.788602515876085e-16 -0.13907177163687734 -3.4786786861891054e-17 2.1913002386825226e-17 -3.4786786861891054e-17 -0.14343756326744567" free_energy=-162.7030023421354 pbc="T T T"
Si       0.00000000       0.00000000       0.00000000       0.00000000       0.00000000      -0.00000000
