1
Lattice="2.829695358772416 2.578094463602645e-16 -8.610967295547508e-51 1.4148476793862075 2.4505880656678336 5.557501792277992e-50 1.315162008853493e-49 -9.098467630735039e-49 2.642159119239688" Properties=species:S:1:pos:R:3:forces:R:3 cutoff=-1.0 nneightol=1.2 n_minim_iter=1 energy=-162.6977637136029 stress="0.08727660246528202 9.5244710855334e-18 1.740512482635545e-18 9.5244710855334e-18 0.08727660246528202 8.219086723556746e-18 1.740512482635545e-18 8.219086723556746e-18 0.08769749483464577" free_energy=-162.6977637136029 pbc="T T T"
Si       0.00000000       0.00000000       0.00000000      -0.00000000      -0.00000000       0.00000000
