12
Lattice="5.395797689471387 0.0009081397212159367 -0.00022947024651858672 0.0009082371172879751 5.395621815127493 -7.950243074953893e-05 -0.0002723436352694676 -9.385092516016096e-05 6.036183410481507" Properties=species:S:1:pos:R:3:forces:R:3 cutoff=-1.0 nneightol=1.2 n_minim_iter=14 energy=-1953.041465426586 stress="-0.1640637188156345 0.00012524785219566236 -8.201669718686829e-05 0.00012524785219566236 -0.16416674962275957 -1.9170893669376474e-05 -8.201669718686829e-05 -1.9170893669376474e-05 -0.1640204856100401" free_energy=-1953.041465426586 pbc="T T T"
Si       0.49326359       0.49332753      -0.00000133       0.00144483      -0.00144837      -0.00207636
Si      -0.49335233      -0.49331674       3.01818296      -0.00073134      -0.00094926      -0.00043239
Si       2.20509988       3.19128018       4.52687899       0.00165182      -0.00201532       0.00324625
Si       3.19137328       2.20519371       1.50881947      -0.00345612       0.00145795       0.00065989
Si       0.69559093       3.65294398       0.11494715       0.00486095       0.00718933      -0.00297779
Si       0.95531696       2.00287422       1.62391058       0.00681295      -0.00330717       0.00181129
Si       1.74349695       4.70070734       2.90291729      -0.00704042       0.00000853       0.00130757
Si       2.00276470       0.95536896       4.41205048      -0.00481771       0.00486149       0.00186546
Si       3.39356195       4.44105345       1.39385349       0.00489177      -0.00406968       0.00058915
Si       3.65318665       0.69572898      -0.11513438       0.00552095       0.00050706       0.00185490
Si       4.44115438       3.39358685       4.64195639      -0.00866786       0.00350692      -0.00321461
Si       4.70084715       1.74347898       3.13289939      -0.00046981      -0.00574150      -0.00263336
