2
Lattice="2.917406680163295 6.703298737294747e-17 2.917406680163295 2.917406680163295 2.917406680163295 1.820449926372979e-16 -6.349560639652651e-17 2.917406680163295 2.917406680163295" Properties=species:S:1:pos:R:3 n_minim_iter=1 energy=-325.9823123996707 free_energy=-325.9823123996707 pbc="T T T"
Si       0.00000000       0.00000000       0.00000000
Si       1.45870334       1.45870334       1.45870334
