2
Lattice="2.8340061351489667 6.511670065198555e-17 2.8340061351489667 2.8340061351489667 2.8340061351489667 1.7684083248152885e-16 -6.168044356184446e-17 2.8340061351489667 2.8340061351489667" Properties=species:S:1:pos:R:3 n_minim_iter=1 energy=-326.2270917731282 free_energy=-326.2270917731282 pbc="T T T"
Si       0.00000000       0.00000000       0.00000000
Si       1.41700307       1.41700307       1.41700307
