2
Lattice="2.957376121998059 6.795136159483126e-17 2.957376121998059 2.957376121998059 2.957376121998059 1.8453906958378632e-16 -6.43655173225161e-17 2.957376121998059 2.957376121998059" Properties=species:S:1:pos:R:3 n_minim_iter=1 stress="0.0701581245366793 6.45920453771227e-16 3.779740873801262e-15 6.45920453771227e-16 0.07015812453668827 -9.570087516094515e-16 3.779740873801262e-15 -9.570087516094515e-16 0.07015812454728189" pbc="T T T"
Si       0.00000000       0.00000000       0.00000000
Si       1.47868806       1.47868806       1.47868806
