2
Lattice="2.6506398780953844 6.090351087721977e-17 2.6506398780953844 2.6506398780953844 2.6506398780953844 1.653988524716045e-16 -5.768958696874623e-17 2.6506398780953844 2.6506398780953844" Properties=species:S:1:pos:R:3 n_minim_iter=1 stress="-0.059432379671540074 3.3278240229531e-12 -2.153425336353379e-12 3.3278240229531e-12 -0.059432379671540074 -2.1582267731917213e-12 -2.153425336353379e-12 -2.1582267731917213e-12 -0.05943237966699824" pbc="T T T"
Si       0.00000000       0.00000000       0.00000000
Si       1.32531994       1.32531994       1.32531994
