2
Lattice="2.812371656829143 6.461960721558063e-17 2.812371656829143 2.812371656829143 2.812371656829143 1.754908498160255e-16 -6.120958211858732e-17 2.812371656829143 2.812371656829143" Properties=species:S:1:pos:R:3 n_minim_iter=1 stress="0.031176411204844285 1.8224726135480734e-11 -2.157414447717453e-15 1.8224726135480734e-11 0.03117641120485475 1.5534055098588189e-15 -2.157414447717453e-15 1.5534055098588189e-15 0.031176411213744808" pbc="T T T"
Si       0.00000000       0.00000000       0.00000000
Si       1.40618583       1.40618583       1.40618583
