2
Lattice="2.548589483481834 5.855870826192187e-17 2.548589483481834 2.548589483481834 2.548589483481834 1.5903094927100673e-16 -5.5468521344590764e-17 2.548589483481834 2.548589483481834" Properties=species:S:1:pos:R:3 n_minim_iter=1 stress="-0.17677474324971457 3.037226364187083e-12 -6.069059263248012e-12 3.037226364187083e-12 -0.17677474324974204 -6.073165831952967e-12 -6.069059263248012e-12 -6.073165831952967e-12 -0.17677474324569012" pbc="T T T"
Si       0.00000000       0.00000000       0.00000000
Si       1.27429474       1.27429474       1.27429474
