2
Lattice="2.6988438601790867 6.201108937983761e-17 2.6988438601790867 2.6988438601790867 2.6988438601790867 1.6840676138714342e-16 -5.873871772379084e-17 2.6988438601790867 2.6988438601790867" Properties=species:S:1:pos:R:3 n_minim_iter=1 stress="-0.005046749475284426 -4.99241676907596e-13 -1.0001646439639331e-12 -4.99241676907596e-13 -0.005046749475294992 -1.0068549660842753e-12 -1.0001646439639331e-12 -1.0068549660842753e-12 -0.00504674947328047" pbc="T T T"
Si       0.00000000       0.00000000       0.00000000
Si       1.34942193       1.34942193       1.34942193
