2
Lattice="2.9375273620507834 6.749529844670687e-17 2.9375273620507834 2.9375273620507834 2.9375273620507834 1.833005150198888e-16 -6.39335209684799e-17 2.9375273620507834 2.9375273620507834" Properties=species:S:1:pos:R:3 n_minim_iter=1 stress="0.0701581245366793 6.45920453771227e-16 3.779740873801262e-15 6.45920453771227e-16 0.07015812453668827 -9.570087516094515e-16 3.779740873801262e-15 -9.570087516094515e-16 0.07015812454728189" pbc="T T T"
Si       0.00000000       0.00000000       0.00000000
Si       1.46876368       1.46876368       1.46876368
