12
Lattice="5.523573807441094 -0.00032152660198314105 -0.0002548189945257312 -0.00032154565736393256 5.523648353134695 0.00023859679401199628 -0.00030248521501628084 0.00028318772285360804 6.509018216896168" Properties=species:S:1:pos:R:3:forces:R:3 cutoff=-1.0 nneightol=1.2 n_minim_iter=10 energy=-1955.471391911126 stress="-0.051756924124475606 -3.493593114670692e-05 -5.28152172171389e-05 -3.493593114670692e-05 -0.05174089361844541 5.6785482531096974e-05 -5.28152172171389e-05 5.6785482531096974e-05 -0.051755733372657285" free_energy=-1955.471391911126 pbc="T T T"
Si       0.47839697       0.47819210      -0.00006259       0.00317717       0.00811988       0.00172578
Si      -0.47849016      -0.47823977       3.25451030      -0.00397844      -0.00321143      -0.00001839
Si       2.28297262       3.24036025       4.88177951      -0.00525371       0.00327811       0.00145327
Si       3.23999781       2.28322849       1.62718303       0.00395759      -0.00341085      -0.00044950
Si       0.69614141       3.70501690       0.00310737      -0.00488173      -0.00313277      -0.00103081
Si       0.94301473       2.06557920       1.63039187      -0.00197166       0.00427810      -0.00267444
Si       1.81817566       4.82735578       3.25167982       0.00177870       0.00663549      -0.00118559
Si       2.06517424       0.94328665       4.87866911       0.00547108      -0.00049048       0.00042947
Si       3.45777646       4.58029364       1.62428645      -0.00738999       0.00086341       0.00147954
Si       3.70480599       0.69622233      -0.00310511       0.00137143      -0.00658609       0.00122577
Si       4.57994900       3.45811335       4.88473599       0.00105109      -0.00746799      -0.00216606
Si       4.82698541       1.81849957       3.25732512       0.00666848       0.00112463       0.00121097
