2
Lattice="4.686273398122495 1.4208156573866484e-17 1.6065867600341044e-16 1.4208156573866302e-17 4.686273398122495 -2.0327191386380615e-16 2.3431366990612474 2.3431366990612474 1.2924915157513224" Properties=species:S:1:pos:R:3 cutoff=-1.0 nneightol=1.2 n_minim_iter=1 energy=-325.6427631899105 free_energy=-325.6427631899105 pbc="T T T"
Si      -0.00000000      -1.17156835      -0.32312288
Si      -0.00000000       1.17156835       0.32312288
