2
Lattice="4.981760099223001 -5.4917058046835397e-17 2.7020697164062552e-15 -5.491705804681402e-17 4.981760099223001 -4.674264054661759e-15 2.4908800496114996 2.4908800496115022 1.5146478781107315" Properties=species:S:1:pos:R:3 cutoff=-1.0 nneightol=1.2 n_minim_iter=1 energy=-325.4932287429383 free_energy=-325.4932287429383 pbc="T T T"
Si      -0.00000000      -1.24544002      -0.37866197
Si      -0.00000000       1.24544003       0.37866197
