2
Lattice="4.947637383808949 -5.454090200845019e-17 2.6835618087339763e-15 -5.454090200843366e-17 4.947637383808949 -4.642247542639787e-15 2.473818691904474 2.473818691904476 1.5042732519810365" Properties=species:S:1:pos:R:3 cutoff=-1.0 nneightol=1.2 n_minim_iter=1 stress="0.04507569766177813 -3.7734924162999495e-12 2.9399116421904762e-12 -3.7734924162999495e-12 0.04507569761835745 -1.4822115834980276e-11 2.9399116421904762e-12 -1.4822115834980276e-11 0.04231845488201645" pbc="T T T"
Si      -0.00000000      -1.23690934      -0.37606831
Si      -0.00000000       1.23690935       0.37606831
