2
Lattice="4.490774336655983 6.458864822677801e-17 -1.936815266439694e-16 6.458864822677787e-17 4.490774336655983 4.1483938286924426e-16 2.2453871683279916 2.2453871683279916 1.2172750894071962" Properties=species:S:1:pos:R:3 cutoff=-1.0 nneightol=1.2 n_minim_iter=1 stress="-0.2408323047390204 1.1303315491593536e-11 8.952575545588873e-12 1.1303315491593536e-11 -0.24083230481028292 9.414783319820063e-12 8.952575545588873e-12 9.414783319820063e-12 -0.2325642865488008" pbc="T T T"
Si      -0.00000000      -1.12269358      -0.30431877
Si      -0.00000000       1.12269359       0.30431877
