2
Lattice="4.556031164933197 1.3813279475482723e-17 1.5619360472688117e-16 1.3813279475482593e-17 4.556031164933197 -1.976225234511829e-16 2.2780155824665984 2.2780155824665984 1.2565702266824612" Properties=species:S:1:pos:R:3 cutoff=-1.0 nneightol=1.2 n_minim_iter=1 stress="-0.12662408695126454 9.729823558993043e-12 -1.057783965233699e-11 9.729823558993043e-12 -0.12662408692455585 -1.9822987944749083e-11 -1.057783965233699e-11 -1.9822987944749083e-11 -0.1116475897817396" pbc="T T T"
Si      -0.00000000      -1.13900779      -0.31414256
Si      -0.00000000       1.13900779       0.31414256
