2
Lattice="4.989021964857917 -1.0761981341517066e-16 2.8135762981053633e-15 -1.0761981341516458e-16 4.989021964857917 -4.735026614708508e-15 2.4945109824289577 2.4945109824289604 1.4485992182916525" Properties=species:S:1:pos:R:3 cutoff=-1.0 nneightol=1.2 n_minim_iter=1 stress="0.047199987398093335 1.7047533466911803e-11 7.778892066517887e-12 1.7047533466911803e-11 0.04719998741646288 -4.60098315968683e-12 7.778892066517887e-12 -4.60098315968683e-12 0.034649423110284884" pbc="T T T"
Si      -0.00000000      -1.24725549      -0.36214980
Si      -0.00000000       1.24725549       0.36214980
