4
Lattice="1.9758927489336795 -3.422346631460068 4.510228831956804e-16 1.9758927489336797 3.422346631460068 -4.510228831956804e-16 -9.741903390896599e-32 8.174276812638458e-16 6.202614048347092" Properties=species:S:1:pos:R:3 cutoff=-1.0 nneightol=1.2 n_minim_iter=1 energy=-652.6268602299298 free_energy=-652.6268602299298 pbc="T T T"
Si       1.97589275       1.14078221       0.35901193
Si       1.97589275      -1.14078221       3.46031895
Si       1.97589275       1.14078221       2.74229510
Si       1.97589275      -1.14078221      -0.35901193
4
Lattice="1.972027778898563 -3.4156523069895144 4.392291691631741e-16 1.9720277788985632 3.4156523069895144 -4.3922916916317417e-16 -1.0015963496132043e-31 8.404107938352742e-16 6.226950834988386" Properties=species:S:1:pos:R:3 cutoff=-1.0 nneightol=1.2 n_minim_iter=2 stress="0.024048041358892512 -1.6386538997171614e-16 -3.4121026152034736e-17 -1.6386538997171614e-16 0.024048041358891735 -6.353983260181092e-17 -3.4121026152034736e-17 -6.353983260181092e-17 0.025873981460704087" pbc="T T T"
Si       1.97202778       1.13855077       0.36090885
Si       1.97202778      -1.13855077       3.47438427
Si       1.97202778       1.13855077       2.75256656
Si       1.97202778      -1.13855077      -0.36090885
4
Lattice="1.9645536613141847 -3.4027067555916286 3.29395769498871e-16 1.964553661314185 3.4027067555916286 -3.2939576949887114e-16 -8.912706991626535e-32 1.041966122367225e-15 6.274421663482143" Properties=species:S:1:pos:R:3 cutoff=-1.0 nneightol=1.2 n_minim_iter=3 stress="0.01999744106719395 2.790213197063334e-17 -6.5915618702794374e-18 2.790213197063334e-17 0.019997441067194005 -4.089558447321334e-17 -6.5915618702794374e-18 -4.089558447321334e-17 0.015871041003277134" pbc="T T T"
Si       1.96455366       1.13423559       0.37522134
Si       1.96455366      -1.13423559       3.51243217
Si       1.96455366       1.13423559       2.76198949
Si       1.96455366      -1.13423559      -0.37522134
