4
Lattice="1.8729592889643905 -3.2440606489944024 1.853824460911252e-16 1.8729592889643905 3.2440606489944024 -1.8538244609112555e-16 5.5484775794339855e-31 3.2434982798947973e-16 5.675890763527614" Properties=species:S:1:pos:R:3 cutoff=-1.0 nneightol=1.2 n_minim_iter=1 energy=-652.6571588058702 free_energy=-652.6571588058702 pbc="T T T"
Si       1.87295929       1.08135355       0.26658761
Si       1.87295929      -1.08135355       3.10453299
Si       1.87295929       1.08135355       2.57135777
Si       1.87295929      -1.08135355      -0.26658761
4
Lattice="1.865338226433815 -3.2308605814837863 4.439332739350243e-18 1.865338226433815 3.2308605814837863 -4.439332739350293e-18 5.5634015244957525e-31 6.355824952962115e-16 5.722364568914551" Properties=species:S:1:pos:R:3 cutoff=-1.0 nneightol=1.2 n_minim_iter=2 stress="-0.09117076595387313 -4.3349838758736976e-17 5.633741910114825e-18 -4.3349838758736976e-17 -0.09117076595387369 5.2796140485390036e-17 5.633741910114825e-18 5.2796140485390036e-17 -0.08957161573660727" pbc="T T T"
Si       1.86533823       1.07695353       0.26718058
Si       1.86533823      -1.07695353       3.12836287
Si       1.86533823       1.07695353       2.59400170
Si       1.86533823      -1.07695353      -0.26718058
4
Lattice="1.8619786706706682 -3.225041660211155 -5.3593841664412346e-17 1.8619786706706682 3.225041660211155 5.359384166441249e-17 5.306021382815805e-31 7.358717721113047e-16 5.7430328467859635" Properties=species:S:1:pos:R:3 cutoff=-1.0 nneightol=1.2 n_minim_iter=3 stress="-0.08705800165144552 2.402167312575916e-17 2.897352982344767e-17 2.402167312575916e-17 -0.08705800165144581 1.262616623549114e-16 2.897352982344767e-17 1.262616623549114e-16 -0.10141433492380142" pbc="T T T"
Si       1.86197867       1.07501389       0.27362943
Si       1.86197867      -1.07501389       3.14514586
Si       1.86197867       1.07501389       2.59788699
Si       1.86197867      -1.07501389      -0.27362943
4
Lattice="1.8558583916743854 -3.214441026033098 -2.0020912391185467e-16 1.8558583916743854 3.214441026033098 2.0020912391185462e-16 4.734885992011669e-31 9.906322580537798e-16 5.780974233765841" Properties=species:S:1:pos:R:3 cutoff=-1.0 nneightol=1.2 n_minim_iter=4 stress="-0.08314898951735783 3.976859346383024e-17 -3.742414268861991e-17 3.976859346383024e-17 -0.08314898951735779 2.5767823542513203e-16 -3.742414268861991e-17 2.5767823542513203e-16 -0.07008113931588035" pbc="T T T"
Si       1.85585839       1.07148034       0.28203779
Si       1.85585839      -1.07148034       3.17252491
Si       1.85585839       1.07148034       2.60844933
Si       1.85585839      -1.07148034      -0.28203779
4
Lattice="1.8560163045712943 -3.214714539193714 -3.339885008849195e-16 1.8560163045712943 3.214714539193714 3.339885008849196e-16 5.13487442614543e-31 1.2247911160719167e-15 5.77999056616458" Properties=species:S:1:pos:R:3 cutoff=-1.0 nneightol=1.2 n_minim_iter=5 stress="-0.08278366399245625 -4.057564281915747e-17 4.124703898476928e-17 -4.057564281915747e-17 -0.08278366399245624 2.970669337273047e-16 4.124703898476928e-17 2.970669337273047e-16 -0.08415021593389439" pbc="T T T"
Si       1.85601630       1.07157151       0.28264155
Si       1.85601630      -1.07157151       3.17263684
Si       1.85601630       1.07157151       2.60735373
Si       1.85601630      -1.07157151      -0.28264155
4
Lattice="1.856057160870452 -3.2147853043796646 -2.7626028281984723e-16 1.856057160870452 3.2147853043796646 2.762602828198473e-16 5.690935501666887e-31 1.123842613697127e-15 5.779736105871468" Properties=species:S:1:pos:R:3 cutoff=-1.0 nneightol=1.2 n_minim_iter=6 stress="-0.0828507346488463 7.694606713673849e-18 -9.054228069827398e-18 7.694606713673849e-18 -0.08285073464884646 2.6323368898532975e-16 -9.054228069827398e-18 2.6323368898532975e-16 -0.08281314136366975" pbc="T T T"
Si       1.85605716       1.07159510       0.28249209
Si       1.85605716      -1.07159510       3.17236014
Si       1.85605716       1.07159510       2.60737596
Si       1.85605716      -1.07159510      -0.28249209
