4
Lattice="1.7294184016892085 -2.9954405392702705 -3.9865728972058665e-16 1.7294184016892085 2.9954405392702705 3.9865728972058635e-16 3.077658679585962e-31 -7.183714924995458e-16 5.397716651305746" Properties=species:S:1:pos:R:3 cutoff=-1.0 nneightol=1.2 n_minim_iter=1 energy=-642.97777122445 free_energy=-642.97777122445 pbc="T T T"
Si       1.72941840       0.99848018       0.23959943
Si       1.72941840      -0.99848018       2.93845776
Si       1.72941840       0.99848018       2.45925889
Si       1.72941840      -0.99848018      -0.23959943
4
Lattice="1.7263291503606415 -2.9900897990118427 -3.987731259244278e-16 1.7263291503606415 2.9900897990118427 3.9877312592442734e-16 2.8380023626809676e-31 -7.176677742193485e-16 5.417052272362278" Properties=species:S:1:pos:R:3 cutoff=-1.0 nneightol=1.2 n_minim_iter=2 stress="-1.9319519284626865 1.7157439705228223e-16 4.448629609732241e-16 1.7157439705228223e-16 -1.9319519284626898 2.6313199998163835e-15 4.448629609732241e-16 2.6313199998163835e-15 -1.9853416404231237" pbc="T T T"
Si       1.72632915       0.99669660       0.24055801
Si       1.72632915      -0.99669660       2.94908414
Si       1.72632915       0.99669660       2.46796813
Si       1.72632915      -0.99669660      -0.24055801
4
Lattice="1.7258369450167208 -2.9892372743484157 -3.673650691521909e-16 1.7258369450167208 2.9892372743484157 3.6736506915219037e-16 4.972045499312253e-32 -7.74502821599596e-16 5.420142578542753" Properties=species:S:1:pos:R:3 cutoff=-1.0 nneightol=1.2 n_minim_iter=3 stress="-1.9246210242636619 -5.578477584710838e-16 -6.670827094331845e-16 -5.578477584710838e-16 -1.9246210242636645 1.1809205438166656e-15 -6.670827094331845e-16 1.1809205438166656e-15 -1.9583397775734153" pbc="T T T"
Si       1.72583695       0.99641242       0.24411982
Si       1.72583695      -0.99641242       2.95419111
Si       1.72583695       0.99641242       2.46595147
Si       1.72583695      -0.99641242      -0.24411982
4
Lattice="1.725407027917871 -2.9884926360901662 -3.6081500992996047e-16 1.725407027917871 2.9884926360901662 3.6081500992996e-16 1.9163134628236368e-32 -7.864408331308761e-16 5.422843972756096" Properties=species:S:1:pos:R:3 cutoff=-1.0 nneightol=1.2 n_minim_iter=4 stress="-1.930643035415693 -9.977723973771416e-16 2.3013806407595223e-16 -9.977723973771416e-16 -1.930643035415696 2.79173948568096e-15 2.3013806407595223e-16 2.79173948568096e-15 -1.9266751625006433" pbc="T T T"
Si       1.72540703       0.99616421       0.24405282
Si       1.72540703      -0.99616421       2.95547480
Si       1.72540703       0.99616421       2.46736917
Si       1.72540703      -0.99616421      -0.24405282
