4
Lattice="1.969277956403596 -3.410889474716436 2.441502129953795e-16 1.9692779564035963 3.410889474716436 -2.441502129953795e-16 4.854644972876016e-32 4.072379643076636e-16 5.689299505908049" Properties=species:S:1:pos:R:3 cutoff=-1.0 nneightol=1.2 n_minim_iter=1 energy=-652.8682605964557 free_energy=-652.8682605964557 pbc="T T T"
Si       1.96927796       1.13696316       0.25099148
Si       1.96927796      -1.13696316       3.09564123
Si       1.96927796       1.13696316       2.59365827
Si       1.96927796      -1.13696316      -0.25099148
4
Lattice="1.9744198793353285 -3.4197955464827996 2.3696839238791793e-16 1.9744198793353287 3.4197955464827996 -2.36968392387918e-16 1.0938523096588707e-32 4.1771907970489663e-16 5.659705145236779" Properties=species:S:1:pos:R:3 cutoff=-1.0 nneightol=1.2 n_minim_iter=2 stress="0.046305792521503096 -3.464352514053835e-17 -2.9483290224940014e-17 -3.464352514053835e-17 0.046305792521502985 -2.0922421527217522e-17 -2.9483290224940014e-17 -2.0922421527217522e-17 0.04383901213963227" pbc="T T T"
Si       1.97441988       1.13993185       0.25112554
Si       1.97441988      -1.13993185       3.08097811
Si       1.97441988       1.13993185       2.57872704
Si       1.97441988      -1.13993185      -0.25112554
