4
Lattice="1.9815330685294534 -3.432115951570875 2.6018173443861784e-16 1.9815330685294534 3.432115951570875 -2.601817344386182e-16 5.2404605219283305e-31 4.987035054562824e-16 6.578510439535184" Properties=species:S:1:pos:R:3 cutoff=-1.0 nneightol=1.2 n_minim_iter=1 energy=-652.5834661487131 free_energy=-652.5834661487131 pbc="T T T"
Si       1.98153307       1.14403865       0.42588609
Si       1.98153307      -1.14403865       3.71514131
Si       1.98153307       1.14403865       2.86336913
Si       1.98153307      -1.14403865      -0.42588609
4
Lattice="1.985703921347294 -3.439340080562268 2.070569082316041e-16 1.985703921347294 3.439340080562268 -2.0705690823160372e-16 4.971035701459284e-31 5.991366250822991e-16 6.550903924215216" Properties=species:S:1:pos:R:3 cutoff=-1.0 nneightol=1.2 n_minim_iter=2 stress="0.00856642037524778 -2.6270720015470665e-17 -2.604636286094242e-17 -2.6270720015470665e-17 0.008566420375247975 4.087750367378164e-17 -2.604636286094242e-17 4.087750367378164e-17 0.008951702193628648" pbc="T T T"
Si       1.98570392       1.14644669       0.42498073
Si       1.98570392      -1.14644669       3.70043269
Si       1.98570392       1.14644669       2.85047124
Si       1.98570392      -1.14644669      -0.42498073
4
Lattice="1.985909638987702 -3.4396963939674676 2.1700203697477718e-16 1.985909638987702 3.4396963939674676 -2.1700203697477686e-16 5.169478495545529e-31 5.80048193168688e-16 6.549546796306203" Properties=species:S:1:pos:R:3 cutoff=-1.0 nneightol=1.2 n_minim_iter=3 stress="0.008563168732677227 -1.4516606237452626e-17 2.902225917590681e-17 -1.4516606237452626e-17 0.008563168732677148 5.479943497830026e-17 2.902225917590681e-17 5.479943497830026e-17 0.00847245521894075" pbc="T T T"
Si       1.98590964       1.14656546       0.42502901
Si       1.98590964      -1.14656546       3.69980241
Si       1.98590964       1.14656546       2.84974439
Si       1.98590964      -1.14656546      -0.42502901
