4
Lattice="1.9193831003487796 -3.3244690489931594 0.0 1.9193831003487798 3.3244690489931594 0.0 0.0 0.0 6.268678969999999" Properties=species:S:1:pos:R:3 cutoff=-1.0 nneightol=1.2 n_minim_iter=1 energy=-652.6758199240642 free_energy=-652.6758199240642 pbc="T T T"
Si       1.91938310       1.10815635       0.39179244
Si       1.91938310      -1.10815635       3.52613192
Si       1.91938310       1.10815635       2.74254705
Si       1.91938310      -1.10815635      -0.39179244
4
Lattice="1.9188518414251807 -3.323548881545512 -1.7199605326632867e-35 1.918851841425181 3.323548881545512 1.7199605326632912e-35 -1.1626149448786904e-49 3.243188690116412e-35 6.113059808386455" Properties=species:S:1:pos:R:3 cutoff=-1.0 nneightol=1.2 n_minim_iter=2 stress="0.006861337784444413 -3.487327062553505e-18 -3.417348869325262e-17 -3.487327062553505e-18 0.00686133778444464 8.833713337015595e-17 -3.417348869325262e-17 8.833713337015595e-17 0.0003244505216324699" pbc="T T T"
Si       1.91885184       1.10784963       0.37925077
Si       1.91885184      -1.10784963       3.43578068
Si       1.91885184       1.10784963       2.67727913
Si       1.91885184      -1.10784963      -0.37925077
4
Lattice="1.9009097850676433 -3.2924723283419928 6.530813838916622e-34 1.9009097850676435 3.2924723283419928 -6.5308138389166236e-34 1.5956439206240804e-48 -1.2317088609514236e-33 5.984804859216146" Properties=species:S:1:pos:R:3 cutoff=-1.0 nneightol=1.2 n_minim_iter=3 stress="-0.0018270280880225676 6.6535142888794385e-18 1.1022334297948104e-17 6.6535142888794385e-18 -0.0018270280880228202 8.336219216935541e-18 1.1022334297948104e-17 8.336219216935541e-18 -0.03028536445753545" pbc="T T T"
Si       1.90090979       1.09749078       0.35937403
Si       1.90090979      -1.09749078       3.35177646
Si       1.90090979       1.09749078       2.63302840
Si       1.90090979      -1.09749078      -0.35937403
4
Lattice="1.8927740593224214 -3.278380837994822 7.680161356729867e-33 1.8927740593224216 3.278380837994822 -7.680161356729869e-33 3.9676108785005306e-48 -1.4472358583667134e-32 5.989415718333454" Properties=species:S:1:pos:R:3 cutoff=-1.0 nneightol=1.2 n_minim_iter=4 stress="0.0003365565265109015 7.190584616752623e-17 8.214862293926445e-18 7.190584616752623e-17 0.00033655652651067984 1.2779711909528753e-16 8.214862293926445e-18 1.2779711909528753e-16 0.016882085434069594" pbc="T T T"
Si       1.89277406       1.09279361       0.33384919
Si       1.89277406      -1.09279361       3.32855705
Si       1.89277406       1.09279361       2.66085867
Si       1.89277406      -1.09279361      -0.33384919
4
Lattice="1.8875937438312413 -3.269408268364861 1.1469550704604618e-32 1.8875937438312416 3.269408268364861 -1.1469550704604619e-32 2.4323871169170743e-48 -2.173204967363228e-32 5.937663940392762" Properties=species:S:1:pos:R:3 cutoff=-1.0 nneightol=1.2 n_minim_iter=5 stress="-0.008407271343278516 -2.1368047908709935e-17 4.9542302738423093e-17 -2.1368047908709935e-17 -0.008407271343278948 1.314894848122027e-16 4.9542302738423093e-17 1.314894848122027e-16 0.04392596313431729" pbc="T T T"
Si       1.88759374       1.08980276       0.31621308
Si       1.88759374      -1.08980276       3.28504505
Si       1.88759374       1.08980276       2.65261889
Si       1.88759374      -1.08980276      -0.31621308
4
Lattice="1.8919487594695445 -3.2769513767181597 1.0870806121868819e-32 1.8919487594695448 3.2769513767181597 -1.0870806121868819e-32 1.2256051280709926e-48 -2.1070833781779612e-32 5.8223089521513725" Properties=species:S:1:pos:R:3 cutoff=-1.0 nneightol=1.2 n_minim_iter=6 stress="-0.018023617218096043 -3.8298193173242906e-17 -1.8784235991492428e-17 -3.8298193173242906e-17 -0.018023617218096567 6.799599080482913e-17 -1.8784235991492428e-17 6.799599080482913e-17 -0.0035828013718060096" pbc="T T T"
Si       1.89194876       1.09231713       0.29244851
Si       1.89194876      -1.09231713       3.20360298
Si       1.89194876       1.09231713       2.61870597
Si       1.89194876      -1.09231713      -0.29244851
4
Lattice="1.9124838257581651 -3.312519154866846 -8.178150297917008e-17 1.9124838257581653 3.312519154866846 8.178150297917008e-17 -2.500521156049772e-33 1.5014022941221414e-16 5.69073387685463" Properties=species:S:1:pos:R:3 cutoff=-1.0 nneightol=1.2 n_minim_iter=7 stress="-0.03199749078990498 -1.2467982434490958e-16 -2.6849735324773815e-17 -1.2467982434490958e-16 -0.031997490789905284 1.4358902257534986e-17 -2.6849735324773815e-17 1.4358902257534986e-17 -0.04413863650089819" pbc="T T T"
Si       1.91248383       1.10417305       0.26132186
Si       1.91248383      -1.10417305       3.10668880
Si       1.91248383       1.10417305       2.58404508
Si       1.91248383      -1.10417305      -0.26132186
4
Lattice="1.9512681330474242 -3.3796955456282056 1.2269682221904254e-17 1.9512681330474244 3.3796955456282056 -1.2269682221904224e-17 9.029715493876504e-35 -2.0867323750035692e-17 5.606887263882203" Properties=species:S:1:pos:R:3 cutoff=-1.0 nneightol=1.2 n_minim_iter=8 stress="-0.013943946618270947 -2.5403886787044404e-17 -1.4238773970600133e-17 -2.5403886787044404e-17 -0.013943946618271278 -2.832538474181744e-17 -1.4238773970600133e-17 -2.832538474181744e-17 -0.04329185110258751" pbc="T T T"
Si       1.95126813       1.12656518       0.24173102
Si       1.95126813      -1.12656518       3.04517465
Si       1.95126813       1.12656518       2.56171262
Si       1.95126813      -1.12656518      -0.24173102
4
Lattice="1.9540792814036563 -3.384564597408813 6.626292749492547e-17 1.9540792814036565 3.384564597408813 -6.626292749492546e-17 -2.1267268401967875e-33 -1.2284870321784918e-16 5.640950644699923" Properties=species:S:1:pos:R:3 cutoff=-1.0 nneightol=1.2 n_minim_iter=9 stress="0.0006281227604303857 -3.2119202371493567e-17 -9.41581671351875e-18 -3.2119202371493567e-17 0.0006281227604302115 1.3092882867235808e-17 -9.41581671351875e-18 1.3092882867235808e-17 -0.006907236842229402" pbc="T T T"
Si       1.95407928       1.12818820       0.24969861
Si       1.95407928      -1.12818820       3.07017393
Si       1.95407928       1.12818820       2.57077671
Si       1.95407928      -1.12818820      -0.24969861
4
Lattice="1.9530143669946296 -3.3827201115466683 6.300546296590141e-17 1.9530143669946298 3.3827201115466683 -6.30054629659014e-17 2.156853905777064e-33 -1.165805311086711e-16 5.642765965113915" Properties=species:S:1:pos:R:3 cutoff=-1.0 nneightol=1.2 n_minim_iter=10 stress="-7.933531585888405e-05 -4.521984781256231e-17 5.0954299239695234e-18 -4.521984781256231e-17 -7.93353158585184e-05 9.357346745487318e-18 5.0954299239695234e-18 9.357346745487318e-18 -0.0013291886254396732" pbc="T T T"
Si       1.95301437       1.12757337       0.24915740
Si       1.95301437      -1.12757337       3.07054039
Si       1.95301437       1.12757337       2.57222558
Si       1.95301437      -1.12757337      -0.24915740
4
Lattice="1.9531356077768633 -3.382930106741447 2.4214889172803546e-16 1.9531356077768636 3.382930106741447 -2.421488917280355e-16 -2.970527126790871e-33 -4.543993836640478e-16 5.642663805870058" Properties=species:S:1:pos:R:3 cutoff=-1.0 nneightol=1.2 n_minim_iter=11 stress="3.455956355106867e-05 -7.89661252156584e-18 -2.0937902411475843e-19 -7.89661252156584e-18 3.4559563551479556e-05 -1.7001768856721714e-17 -2.0937902411475843e-19 -1.7001768856721714e-17 -1.1883737513206753e-06" pbc="T T T"
Si       1.95313561       1.12764337       0.24893408
Si       1.95313561      -1.12764337       3.07026598
Si       1.95313561       1.12764337       2.57239782
Si       1.95313561      -1.12764337      -0.24893408
