4
Lattice="1.9546847283751478 -3.3856132623247257 4.4374413505269643e-16 1.9546847283751478 3.3856132623247257 -4.437441350526964e-16 1.6433764679830395e-32 9.336128851185141e-17 6.05625280287339" Properties=species:S:1:pos:R:3 cutoff=-1.0 nneightol=1.2 n_minim_iter=8 stress="0.02084551596342982 3.580637349564851e-18 5.1289745442065175e-18 3.580637349564851e-18 0.020845515963429012 -4.129871816221896e-17 5.1289745442065175e-18 -4.129871816221896e-17 0.02107471229478785" pbc="T T T"
Si       1.95468473       1.12853775       0.34470827
Si       1.95468473      -1.12853775       3.37283467
Si       1.95468473       1.12853775       2.68341814
Si       1.95468473      -1.12853775      -0.34470827
