4
Lattice="2.0090599071687962 -3.479793834665966 -5.245154723802804e-16 2.0090599071687962 3.479793834665966 5.245154723802814e-16 -6.522236735950485e-31 1.827398833727093e-15 6.532798844191451" Properties=species:S:1:pos:R:3 cutoff=-1.0 nneightol=1.2 n_minim_iter=4 stress="-0.0056642231172686144 -3.825953202548341e-17 -3.923601485905589e-17 -3.825953202548341e-17 -0.005664223117268685 1.4373318188771956e-16 -3.923601485905589e-17 1.4373318188771956e-16 -0.00569347945417856" pbc="T T T"
Si       2.00905991       1.15993128       0.42360793
Si       2.00905991      -1.15993128       3.69000735
Si       2.00905991       1.15993128       2.84279149
Si       2.00905991      -1.15993128      -0.42360793
