4
Lattice="1.9645536613141847 -3.4027067555916286 3.29395769498871e-16 1.964553661314185 3.4027067555916286 -3.2939576949887114e-16 -8.912706991626535e-32 1.041966122367225e-15 6.274421663482143" Properties=species:S:1:pos:R:3 cutoff=-1.0 nneightol=1.2 n_minim_iter=3 stress="0.01999744106719395 2.790213197063334e-17 -6.5915618702794374e-18 2.790213197063334e-17 0.019997441067194005 -4.089558447321334e-17 -6.5915618702794374e-18 -4.089558447321334e-17 0.015871041003277134" pbc="T T T"
Si       1.96455366       1.13423559       0.37522134
Si       1.96455366      -1.13423559       3.51243217
Si       1.96455366       1.13423559       2.76198949
Si       1.96455366      -1.13423559      -0.37522134
