4
Lattice="1.7873029154846518 -3.095699458135399 -1.8742386420352927e-16 1.7873029154846523 3.095699458135399 1.874238642035294e-16 -7.887915101381059e-32 -4.6256990560772e-16 5.727585343355042" Properties=species:S:1:pos:R:3 cutoff=-1.0 nneightol=1.2 n_minim_iter=5 stress="-0.5372441858303529 8.372360072585516e-17 -8.347791157516522e-17 8.372360072585516e-17 -0.5372441858303586 8.011351763890016e-16 -8.347791157516522e-17 8.011351763890016e-16 -0.5373321469949772" pbc="T T T"
Si       1.78730292       1.03189982       0.27244536
Si       1.78730292      -1.03189982       3.13623803
Si       1.78730292       1.03189982       2.59134731
Si       1.78730292      -1.03189982      -0.27244536
