4
Lattice="1.9531356077768642 -3.382930106741447 2.4214889172803546e-16 1.9531356077768638 3.382930106741447 -2.4214889172803546e-16 -4.8148510111570245e-32 4.038997980663165e-16 5.642663805870056" Properties=species:S:1:pos:R:3 cutoff=-1.0 nneightol=1.2 n_minim_iter=1 stress="3.455956351511774e-05 -6.878271407134985e-17 1.2050926054604988e-17 -6.878271407134985e-17 3.455956351507897e-05 4.680067265824768e-17 1.2050926054604988e-17 4.680067265824768e-17 -1.1883737739549667e-06" pbc="T T T"
Si       1.95313561       1.12764337       0.24893408
Si       1.95313561      -1.12764337       3.07026598
Si       1.95313561       1.12764337       2.57239782
Si       1.95313561      -1.12764337      -0.24893408
