4
Lattice="1.804371173636275 -3.125262548450712 -2.2005109926010886e-16 1.8043711736362742 3.125262548450712 2.2005109926010886e-16 1.2523096770694854e-33 -4.358196030085936e-16 5.785025311189955" Properties=species:S:1:pos:R:3 cutoff=-1.0 nneightol=1.2 n_minim_iter=2 stress="-0.3093893704507722 -2.1525493069626475e-16 1.4293608046234181e-16 -2.1525493069626475e-16 -0.30938937045077314 -3.5823340079851605e-17 1.4293608046234181e-16 -3.5823340079851605e-17 -0.3152545275225155" pbc="T T T"
Si       1.80437117       1.04175418       0.28548050
Si       1.80437117      -1.04175418       3.17799316
Si       1.80437117       1.04175418       2.60703215
Si       1.80437117      -1.04175418      -0.28548050
