4
Lattice="1.9367219274996117 -3.354500778562054 2.4011393088226036e-16 1.9367219274996113 3.354500778562054 -2.4011393088226036e-16 -4.774388165277269e-32 4.005055216407009e-16 5.595244221048192" Properties=species:S:1:pos:R:3 cutoff=-1.0 nneightol=1.2 n_minim_iter=1 stress="3.455956351511774e-05 -6.878271407134985e-17 1.2050926054604988e-17 -6.878271407134985e-17 3.455956351507897e-05 4.680067265824768e-17 1.2050926054604988e-17 4.680067265824768e-17 -1.1883737739549667e-06" pbc="T T T"
Si       1.93672193       1.11816693       0.24684210
Si       1.93672193      -1.11816693       3.04446421
Si       1.93672193       1.11816693       2.55078001
Si       1.93672193      -1.11816693      -0.24684210
