4
Lattice="1.9903433079527577 -3.4473757338788835 2.3887951034224394e-16 1.990343307952758 3.4473757338788835 -2.38879510342244e-16 1.1026740802220432e-32 4.210879274446481e-16 5.705349899839946" Properties=species:S:1:pos:R:3 cutoff=-1.0 nneightol=1.2 n_minim_iter=2 stress="0.046305792521503096 -3.464352514053835e-17 -2.9483290224940014e-17 -3.464352514053835e-17 0.046305792521502985 -2.0922421527217522e-17 -2.9483290224940014e-17 -2.0922421527217522e-17 0.04383901213963227" pbc="T T T"
Si       1.99034331       1.14912524       0.25315083
Si       1.99034331      -1.14912524       3.10582578
Si       1.99034331       1.14912524       2.59952412
Si       1.99034331      -1.14912524      -0.25315083
