2
Lattice="3.0588654758860665 -9.727980980435838e-16 5.21220283795561e-41 -1.5294327379430324 2.64905520887651 2.6424643774144933e-25 -3.0648830399389943e-40 -4.83300516554648e-25 4.845059641199368" Properties=species:S:1:pos:R:3 n_minim_iter=1 stress="0.09897004860828261 -9.021419659949178e-16 -4.5566856702111536e-17 -9.021419659949178e-16 0.09897004860828465 -1.374717289916512e-16 -4.5566856702111536e-17 -1.374717289916512e-16 0.09919007894191542" pbc="T T T"
Ti       0.00000000       0.00000000       0.00000000
Ti       0.00000000       1.76603681       2.42252982
