2
Lattice="2.928540063173865 -9.313512561956432e-16 4.99013276284075e-41 -1.4642700315869317 2.536190090709052 2.529880066898495e-25 -2.261941419791979e-40 -4.627091110873131e-25 4.638631995939282" Properties=species:S:1:pos:R:3 n_minim_iter=1 stress="0.047223065338862606 7.348841893435021e-16 -1.8959636970747039e-16 7.348841893435021e-16 0.04722306533886106 8.149924948021624e-17 -1.8959636970747039e-16 8.149924948021624e-17 0.0475433845765507" pbc="T T T"
Ti       0.00000000       0.00000000       0.00000000
Ti       0.00000000       1.69079339       2.31931600
