2
Lattice="2.7854514456320074 -8.85845386096506e-16 4.746314620359414e-41 -1.3927257228160033 2.4122717129254077 2.4062699972015505e-25 -2.471176990538554e-40 -4.401011202108789e-25 4.41198819893927" Properties=species:S:1:pos:R:3 n_minim_iter=1 stress="-0.04865420006452768 -3.914823377001815e-16 -2.0935844125735948e-16 -3.914823377001815e-16 -0.04865420006452792 5.446908962907488e-16 -2.0935844125735948e-16 5.446908962907488e-16 -0.052030836232030135" pbc="T T T"
Ti       0.00000000       0.00000000       0.00000000
Ti       0.00000000       1.60818114       2.20599410
