2
Lattice="2.5049117689092055 8.98665968330433e-18 2.5049117689092055 2.5049117689092055 2.5049117689092055 4.270387874970753e-17 1.716037572699339e-16 2.5049117689092055 2.5049117689092055" Properties=species:S:1:pos:R:3:forces:R:3 n_minim_iter=1 energy=-325.6670995026567 stress="-0.2018854635475818 -1.2234692397996848e-15 7.177138138608918e-16 -1.2234692397996848e-15 -0.2018854635475823 2.781164309106246e-17 7.177138138608918e-16 2.781164309106246e-17 -0.20188546354758163" free_energy=-325.6670995026567 pbc="T T T"
Si      -0.00000000      -0.00000000      -0.00000000      -0.00000000       0.00000000      -0.00000000
Si       1.25245588       1.25245588       1.25245588       0.00000000      -0.00000000       0.00000000
