2
Lattice="2.5315617666563375 9.082269621860604e-18 2.5315617666563375 2.5315617666563375 2.5315617666563375 4.315820943176947e-17 1.7342946618367922e-16 2.5315617666563375 2.5315617666563375" Properties=species:S:1:pos:R:3:forces:R:3 n_minim_iter=1 energy=-325.8522590880012 stress="-0.1641625050013157 -6.434690956592751e-16 4.0534895250843353e-16 -6.434690956592751e-16 -0.16416250500131574 -2.55812248561853e-16 4.0534895250843353e-16 -2.55812248561853e-16 -0.16416250500131574" free_energy=-325.8522590880012 pbc="T T T"
Si      -0.00000000      -0.00000000      -0.00000000      -0.00000000       0.00000000      -0.00000000
Si       1.26578088       1.26578088       1.26578088       0.00000000      -0.00000000       0.00000000
