6
Lattice="4.0388897676284685 -0.4771014803403544 0.25401249756590916 -1.615014599110632 3.7214678305917825 0.01983191024801951 -0.6417917782086219 -0.33245343183268294 9.825809337401859" Properties=species:S:1:pos:R:3 unique_starting_index=56 config_type=initial n_minim_iter=1 energy=-979.0271780346534 free_energy=-979.0271780346534 pbc="T T T"
Si      -0.03563646       3.04239816       7.62177251
Si       0.37759511       2.38522068      -0.45746921
Si      -1.73349747       3.39096210       2.55202626
Si       0.75809252       1.18903805       7.64520228
Si       2.80082881       0.94848946       7.76581308
Si       0.18090277       2.00054121       2.27235140
6
Lattice="4.038536154046646 -0.47773484457028764 0.2535509961402621 -1.6155240138972697 3.7208037853345504 0.01961753980937896 -0.6427267190024573 -0.3332631608440791 9.823024770786954" Properties=species:S:1:pos:R:3 unique_starting_index=56 config_type=initial n_minim_iter=2 stress="-0.0032041433574297733 0.000958599899374743 0.0010602636153968377 0.000958599899374743 -0.0016554788245034587 0.0014244112803915787 0.0010602636153968377 0.0014244112803915787 0.0008473368897171964" pbc="T T T"
Si      -0.03711063       3.04066099       7.61925081
Si       0.37716285       2.38454500      -0.45771726
Si      -1.73417568       3.39012645       2.55110164
Si       0.75682113       1.18786409       7.64270450
Si       2.79981917       0.94708672       7.76319967
Si       0.18023117       1.99980306       2.27151715
6
Lattice="4.041064656619701 -0.4791337852430645 0.2524994974601801 -1.6176302221870613 3.722026209904672 0.018749193458510467 -0.6457747872515537 -0.33660835916517096 9.819974911035382" Properties=species:S:1:pos:R:3 unique_starting_index=56 config_type=initial n_minim_iter=3 stress="0.002243733837358199 -0.001477796727977517 0.0010081442415296894 -0.001477796727977517 0.0020557452887293797 0.0010692157366163745 0.0010081442415296894 0.0010692157366163745 -3.7326401040460594e-05" pbc="T T T"
Si      -0.04038112       3.03842829       7.61558066
Si       0.37675478       2.38488844      -0.45867618
Si      -1.73685767       3.39036731       2.54947526
Si       0.75455848       1.18519644       7.63933292
Si       2.79956357       0.94393187       7.75960454
Si       0.17895449       1.99947807       2.27016800
6
Lattice="4.041630252127039 -0.4778192974049717 0.25046033308523563 -1.616643786266603 3.7212041954925286 0.01702348481859604 -0.6518136183378715 -0.3438838585287894 9.820300015792196" Properties=species:S:1:pos:R:3 unique_starting_index=56 config_type=initial n_minim_iter=4 stress="0.00049974342341676 0.0005958806897240393 0.00024914484016194113 0.0005958806897240393 0.001901064673426005 -0.00017592543032061915 0.00024914484016194113 -0.00017592543032061915 0.0014438022805489577" pbc="T T T"
Si      -0.04380240       3.03292210       7.61319891
Si       0.37787124       2.38479432      -0.46087966
Si      -1.73724137       3.38756235       2.54785928
Si       0.75021025       1.17997443       7.63749473
Si       2.79663292       0.93932417       7.75734833
Si       0.17804154       1.99810741       2.26895919
6
Lattice="4.042920349333983 -0.47712482111735005 0.24833924498501223 -1.6166916480649256 3.7192935830328153 0.016002403585597288 -0.6576125329146213 -0.34889916492053413 9.816867525536308" Properties=species:S:1:pos:R:3 unique_starting_index=56 config_type=initial n_minim_iter=5 stress="0.002209935164269466 0.0010989183017090624 5.681994485028215e-05 0.0010989183017090624 -0.0009965235912148438 -0.0002687329326900321 5.681994485028215e-05 -0.0002687329326900321 -0.0011373614425542506" pbc="T T T"
Si      -0.04763515       3.02813208       7.60910067
Si       0.37855994       2.38362650      -0.46295514
Si      -1.73841309       3.38427878       2.54586126
Si       0.74662124       1.17540802       7.63293672
Si       2.79342420       0.93516197       7.75243842
Si       0.17663439       1.99654531       2.26754929
6
Lattice="4.041483571682318 -0.47833777475665107 0.24603644879418396 -1.617056029865906 3.7205287910408256 0.015300853787915767 -0.6636008654978034 -0.35341308668562615 9.819745898908108" Properties=species:S:1:pos:R:3 unique_starting_index=56 config_type=initial n_minim_iter=6 stress="-0.001220397687221557 -0.0008009841892935087 -0.0008912797183252676 -0.0008009841892935087 0.00030591480506763047 -0.000411494823562142 -0.0008912797183252676 -0.000411494823562142 -0.0005046355156336956" pbc="T T T"
Si      -0.05332612       3.02573643       7.61042924
Si       0.37808731       2.38372741      -0.46578741
Si      -1.73969664       3.38398760       2.54567364
Si       0.74138717       1.17170861       7.63303861
Si       2.78734933       0.93092949       7.75239502
Si       0.17388071       1.99663976       2.26806758
6
Lattice="4.041718837554463 -0.47808358224498293 0.24437533460289293 -1.616828314579471 3.72074974846138 0.014193705669769746 -0.6687896312537385 -0.35868660284289944 9.827161125971628" Properties=species:S:1:pos:R:3 unique_starting_index=56 config_type=initial n_minim_iter=7 stress="-0.0006430291912081759 -0.0001906317317026652 -0.0011183647985417973 -0.0001906317317026652 -0.0013931028057737364 0.000974298039908898 -0.0011183647985417973 0.000974298039908898 -0.0002498988429860956" pbc="T T T"
Si      -0.05686652       3.02148297       7.61622752
Si       0.37860496       2.38310951      -0.47053905
Si      -1.73966044       3.38230718       2.54599738
Si       0.73785458       1.16860876       7.63612708
Si       2.78377045       0.92733654       7.75649966
Si       0.17145110       1.99714932       2.27073871
6
Lattice="4.03874524107266 -0.47974213234741797 0.251006062737283 -1.6160571653957831 3.7233452142418133 0.0019320054480986455 -0.6553909297202695 -0.38562492272731624 9.829696040797325" Properties=species:S:1:pos:R:3 unique_starting_index=56 config_type=initial n_minim_iter=8 stress="-0.0019976113301509446 -0.0008374748167699575 -5.306697147048073e-05 -0.0008374748167699575 -0.0018400981988031984 -0.000825202264793925 -5.306697147048073e-05 -0.000825202264793925 -0.0007028357283659756" pbc="T T T"
Si      -0.04703081       3.00234633       7.61165568
Si       0.37720953       2.38185316      -0.48087804
Si      -1.73341829       3.37728950       2.53457257
Si       0.74819467       1.15001351       7.63332454
Si       2.79054864       0.90688830       7.75988548
Si       0.17128225       1.99471136       2.27104300
6
Lattice="4.0383267354245795 -0.4785864822281337 0.2526906844970176 -1.6146944348251713 3.72409295533992 0.001392057875307589 -0.6511635028988987 -0.385505604108578 9.827412617755307" Properties=species:S:1:pos:R:3 unique_starting_index=56 config_type=initial n_minim_iter=9 stress="-0.0019094433061383142 0.0007383964786933107 0.0006241631413046232 0.0007383964786933107 0.0013210145008254047 0.00011273765847096909 0.0006241631413046232 0.00011273765847096909 -0.003364256830488586" pbc="T T T"
Si      -0.04297757       3.00437643       7.61081844
Si       0.37763342       2.38069449      -0.48210930
Si      -1.73073395       3.37850693       2.53366687
Si       0.75203293       1.15108455       7.63102085
Si       2.79447413       0.90891427       7.75937161
Si       0.17225445       1.99593335       2.27289016
6
Lattice="4.039647955868791 -0.47781002339705136 0.2552340600531075 -1.6146900002039712 3.722032717598815 0.0006258075025260817 -0.6459034029517717 -0.38512193499251896 9.838525156481797" Properties=species:S:1:pos:R:3 unique_starting_index=56 config_type=initial n_minim_iter=10 stress="0.0013159640394951099 0.0005464607472061471 0.0007856927291432487 0.0005464607472061471 0.0001657721138087268 -7.531705728480373e-05 0.0007856927291432487 -7.531705728480373e-05 0.0014280782000766665" pbc="T T T"
Si      -0.03884251       3.00460143       7.62069942
Si       0.37747542       2.37454676      -0.48548705
Si      -1.72893862       3.37809140       2.53638662
Si       0.75744207       1.15111021       7.63790926
Si       2.80070495       0.91026527       7.76944161
Si       0.17261002       1.99561426       2.28044149
6
Lattice="4.038875488639437 -0.479197803462945 0.2526269016926458 -1.6154843835072572 3.724121251479984 0.0015554123641367153 -0.6524124722978774 -0.3855715099936313 9.844094233175584" Properties=species:S:1:pos:R:3 unique_starting_index=56 config_type=initial n_minim_iter=11 stress="0.003952361163295239 0.0005594447159304865 0.00018281859519529497 0.0005594447159304865 0.003193550172694276 0.0004139026572484079 0.00018281859519529497 0.0004139026572484079 0.0019886395431705974" pbc="T T T"
Si      -0.04323676       3.00785104       7.62638831
Si       0.37626788       2.36429504      -0.49254566
Si      -1.73149214       3.38343742       2.54044764
Si       0.75275816       1.15461251       7.63663529
Si       2.79448301       0.91062380       7.76984525
Si       0.16875396       1.99701458       2.29062680
6
Lattice="4.02839810875898 -0.47750547205057087 0.24893931522252494 -1.6082535961598023 3.7308648322014575 -0.009629211299654522 -0.6655998958668903 -0.42278874121016946 9.865488091220294" Properties=species:S:1:pos:R:3 unique_starting_index=56 config_type=initial n_minim_iter=12 stress="-0.00296408373992144 0.0014799506182395724 -0.0006823762570224632 0.0014799506182395724 0.0027989952241093347 -0.000238789054888618 -0.0006823762570224632 -0.000238789054888618 0.0002034029065955717" pbc="T T T"
Si      -0.05046051       2.99169715       7.63922998
Si       0.37561299       2.33348527      -0.52770631
Si      -1.72907788       3.39089105       2.54105199
Si       0.74820081       1.13982684       7.63281489
Si       2.77716192       0.89652351       7.77310424
Si       0.16207607       1.99632438       2.31577328
6
Lattice="4.018488369706834 -0.47993447300361886 0.2537073849680853 -1.602968371553311 3.7398469735161433 -0.04900350387999619 -0.6694392688632903 -0.53050931451379 9.936865769382083" Properties=species:S:1:pos:R:3 unique_starting_index=56 config_type=initial n_minim_iter=13 stress="-0.030392464406325766 0.0004802840127650809 -0.0016789460026666752 0.0004802840127650809 -0.010819073330301781 -0.006705269159013377 -0.0016789460026666752 -0.006705269159013377 -0.003918181067189788" pbc="T T T"
Si      -0.04786890       2.93492037       7.68585177
Si       0.36926419       2.24971129      -0.62650683
Si      -1.72879219       3.39785650       2.53635548
Si       0.75413287       1.08459055       7.64157104
Si       2.77102049       0.83582115       7.80415645
Si       0.15068381       1.98377056       2.37906645
6
Lattice="4.017962913483503 -0.4800745856341463 0.2540145389637604 -1.6026275322741896 3.7404979642371154 -0.051888154722092045 -0.6699649020845738 -0.5385065785294637 9.943595041218202" Properties=species:S:1:pos:R:3 unique_starting_index=56 config_type=initial n_minim_iter=14 stress="-0.032953567279124095 0.00012452857895521526 -0.0033695235800389983 0.00012452857895521526 -0.01125920739267077 -0.007661047469502926 -0.0033695235800389983 -0.007661047469502926 -0.005911582677551204" pbc="T T T"
Si      -0.04770390       2.93107579       7.69061034
Si       0.36871702       2.24204515      -0.63516855
Si      -1.72902898       3.39876516       2.53667123
Si       0.75459557       1.08081256       7.64304129
Si       2.77069630       0.83168737       7.80739001
Si       0.14973767       1.98286917       2.38529372
6
Lattice="4.024656637076168 -0.48225997758626415 0.26628044243436744 -1.6072404467038597 3.737138215849145 -0.05847034627364775 -0.6435866892161146 -0.5435108818588947 9.975194819369579" Properties=species:S:1:pos:R:3 unique_starting_index=56 config_type=initial n_minim_iter=15 stress="-0.03323929373933993 -0.004105880601849915 -0.008481105666822078 -0.004105880601849915 -0.016992166266334142 -0.011099821531006814 -0.008481105666822078 -0.011099821531006814 -0.015740169849006055" pbc="T T T"
Si      -0.02631645       2.93203237       7.72109335
Si       0.36547167       2.20895524      -0.66243184
Si      -1.73160884       3.40369451       2.54470053
Si       0.77524258       1.08026036       7.66802703
Si       2.79875274       0.83000781       7.83528169
Si       0.15592610       1.97932330       2.41247588
6
Lattice="4.03401045492991 -0.48166916141868826 0.2772938265347381 -1.6114195598063281 3.73151898684356 -0.052531260205359885 -0.6169437314885222 -0.5152108147169879 10.0063343291636" Properties=species:S:1:pos:R:3 unique_starting_index=56 config_type=initial n_minim_iter=16 stress="-0.025787907330627184 -0.0028476810462430154 -3.125405038212582e-05 -0.0028476810462430154 -0.020117885841008015 -0.013865024734558331 -3.125405038212582e-05 -0.013865024734558331 -0.017611851962803682" pbc="T T T"
Si      -0.00472521       2.95495677       7.75794772
Si       0.36530275       2.18998271      -0.67302095
Si      -1.73513056       3.40987429       2.56346782
Si       0.79571996       1.09971924       7.70726739
Si       2.82891613       0.85341395       7.86705760
Si       0.16733255       1.98181461       2.43404520
6
Lattice="4.042512332131938 -0.4797482438653183 0.2702800445997781 -1.6149747120008624 3.7262087325446553 -0.03243690237734553 -0.6300338187415766 -0.4667691747346509 10.01015249981006" Properties=species:S:1:pos:R:3 unique_starting_index=56 config_type=initial n_minim_iter=17 stress="-0.008153115580661093 -0.003368731237118072 -7.308307102981577e-05 -0.003368731237118072 -0.021956598786325655 -0.005463998042089231 -7.308307102981577e-05 -0.005463998042089231 0.00136202488921021" pbc="T T T"
Si      -0.01452041       2.98702765       7.77193945
Si       0.36645245       2.19896406      -0.65664403
Si      -1.74496043       3.41296712       2.58353792
Si       0.78567758       1.12924967       7.72545916
Si       2.82706720       0.88750623       7.87287401
Si       0.17017195       1.98892446       2.43308265
6
Lattice="4.035751736264778 -0.4675628003938101 0.25445831840382593 -1.6030997791199766 3.7380141637584297 0.021195362906695117 -0.6598063898656038 -0.3417057486133872 10.107559580948333" Properties=species:S:1:pos:R:3 unique_starting_index=56 config_type=initial n_minim_iter=18 stress="-0.0015261814004063792 0.010401452226024854 0.002872990875135182 0.010401452226024854 0.0015358859812508612 0.0012234495261572715 0.002872990875135182 0.0012234495261572715 -0.005496570101745638" pbc="T T T"
Si      -0.03221222       3.10401177       7.88442490
Si       0.37466675       2.17403903      -0.68079589
Si      -1.74468698       3.45388658       2.66928561
Si       0.77528959       1.23697883       7.82503802
Si       2.79975962       1.01327810       7.94170637
Si       0.16673268       2.04172081       2.53090965
6
Lattice="4.024384416116771 -0.48418933504698297 0.2548022963834364 -1.6115978865713447 3.757657594955827 0.021923379129654766 -0.6550850074802836 -0.3380008349953265 10.10323436040186" Properties=species:S:1:pos:R:3 unique_starting_index=56 config_type=initial n_minim_iter=19 stress="-0.003492750284888035 -0.0033785512327948863 -0.009386320676924775 -0.0033785512327948863 0.036729422753627956 0.0005295208583149645 -0.009386320676924775 0.0005295208583149645 0.0032859073090878562" pbc="T T T"
Si      -0.03975895       3.11124217       7.86194656
Si       0.36510137       2.17852212      -0.68640617
Si      -1.73079316       3.46314042       2.66008311
Si       0.77568573       1.24596745       7.79589690
Si       2.78192453       1.00195139       7.93358282
Si       0.13570546       2.06909207       2.59759870
6
Lattice="4.036410365056165 -0.4944081780759925 0.26548250213540503 -1.627409546276962 3.751489710838834 0.03640878502424163 -0.6268710266167424 -0.2844889435416674 10.151256579049148" Properties=species:S:1:pos:R:3 unique_starting_index=56 config_type=initial n_minim_iter=20 stress="0.013817565860970115 -0.012947882110811094 -0.0015784665436445868 -0.012947882110811094 0.025970083387011036 0.0057276063938397626 -0.0015784665436445868 0.0057276063938397626 0.008833047799347427" pbc="T T T"
Si      -0.02540528       3.14352260       7.89880997
Si       0.36030665       2.15447497      -0.70687771
Si      -1.72950198       3.46892183       2.68175541
Si       0.79377598       1.28006492       7.83036415
Si       2.80936893       1.02459681       7.97417734
Si       0.12332446       2.09147212       2.70171582
6
Lattice="4.042147185372494 -0.48795949011686773 0.26563270751005197 -1.6250466450183914 3.7357321671273485 0.02725596741398472 -0.6304944876779168 -0.30919593979987314 10.14534022500015" Properties=species:S:1:pos:R:3 unique_starting_index=56 config_type=initial n_minim_iter=21 stress="0.007041622925417127 -0.006598259871159045 0.004755815266096317 -0.006598259871159045 0.00012203561233191429 -0.00032512911359852345 0.004755815266096317 -0.00032512911359852345 -0.003671837612000018" pbc="T T T"
Si      -0.02411644       3.10923228       7.86791055
Si       0.36832150       2.15932673      -0.71961918
Si      -1.72716738       3.45113939       2.66147146
Si       0.79147764       1.25102822       7.82058858
Si       2.81460671       1.00073810       7.96093175
Si       0.12364289       2.07757562       2.73583371
