12
Lattice="5.231601513500009 0.8332938923497676 0.8331314033558338 -0.2576041932903528 5.964626309556026 -3.174083805460572 0.7435520637453757 -2.6747025603397643 10.106358197561343" Properties=species:S:1:pos:R:3 unique_starting_index=44 config_type=initial n_minim_iter=1 energy=-1966.071114750061 free_energy=-1966.071114750061 pbc="T T T"
Si       0.64282717       0.46912571       7.68217711
Si       1.26568397       1.80601514       2.54688705
Si       1.77949879       2.80276078       4.22310233
Si       3.46674147       2.30974625       3.30185721
Si       5.13648516       3.16133713       8.56566704
Si       4.59126696      -0.10493367       7.89018822
Si       3.08651944       4.27335617      -1.38783768
Si       0.65725939       4.58709848      -1.11586101
Si       2.59053217       0.13124073       8.10422958
Si       5.14515115       1.16039247       3.09567423
Si       1.35730120      -1.30543636       7.05819264
Si       3.32780451      -1.59780773       7.35082933
12
Lattice="5.242797420040601 0.8098656526984205 0.8328112612357386 -0.28769715025792403 6.007181026628705 -3.197651367186986 0.7604458283816891 -2.7237891554840776 10.130694042137524" Properties=species:S:1:pos:R:3 unique_starting_index=44 config_type=initial n_minim_iter=2 stress="0.037418839174099314 -0.009432555232431864 0.004458336279827606 -0.009432555232431864 0.029620213662218356 0.018645533972285775 0.004458336279827606 0.018645533972285775 0.00895294936322442" pbc="T T T"
Si       0.64379691       0.44603472       7.69422941
Si       1.26063280       1.80069092       2.54668118
Si       1.77180439       2.79617940       4.22075222
Si       3.46798999       2.29415859       3.29980355
Si       5.13514808       3.12743974       8.56966860
Si       4.60515580      -0.15260118       7.90408217
Si       3.07571127       4.28540343      -1.40312270
Si       0.63980118       4.60836633      -1.13255857
Si       2.59859778       0.09411320       8.11671575
Si       5.15421719       1.13509840       3.09817378
Si       1.36926881      -1.34050156       7.07386424
Si       3.34525718      -1.64564561       7.36802449
12
Lattice="5.221680604960394 0.7951436955222534 0.8256956591215407 -0.296379469467279 6.018664716930572 -3.226377364224387 0.7574325615872017 -2.773243535209101 10.141180773311632" Properties=species:S:1:pos:R:3 unique_starting_index=44 config_type=initial n_minim_iter=3 stress="-0.016892195198300236 -0.03716667320432353 -0.00976139887291891 -0.03716667320432353 -0.020454680778345575 -0.007581770505679047 -0.00976139887291891 -0.007581770505679047 -0.012499161514039217" pbc="T T T"
Si       0.63677177       0.40913141       7.69192899
Si       1.25068490       1.78280360       2.53823917
Si       1.75737848       2.77132280       4.20390161
Si       3.45225585       2.26793944       3.28461075
Si       5.10339101       3.07248363       8.54907177
Si       4.58224210      -0.20105443       7.90085316
Si       3.05923924       4.28320435      -1.42637936
Si       0.63235607       4.60522516      -1.15750819
Si       2.58397402       0.04809148       8.11183701
Si       5.13081722       1.11260501       3.08917639
Si       1.36395021      -1.37682311       7.07888656
Si       3.32970034      -1.68757535       7.37267827
12
Lattice="5.21564913315196 0.8196667685032183 0.8292390145330627 -0.2691916270785325 6.068588602430433 -3.2831024310920114 0.7564732428320144 -2.8605885186576923 10.19343734907059" Properties=species:S:1:pos:R:3 unique_starting_index=44 config_type=initial n_minim_iter=4 stress="-0.029250282046346717 0.00635441359185236 -0.0012153886699086051 0.00635441359185236 -0.007573809483624776 -0.009048779223240487 -0.0012153886699086051 -0.009048779223240487 0.0038271495631949613" pbc="T T T"
Si       0.65011140       0.36347892       7.71866523
Si       1.25999564       1.77330669       2.53697639
Si       1.77289767       2.76598656       4.19614171
Si       3.47049609       2.26622193       3.27823236
Si       5.11478757       3.04439356       8.55646585
Si       4.57710275      -0.24172489       7.93327758
Si       3.07983583       4.33109941      -1.46106534
Si       0.66040212       4.62857650      -1.20242753
Si       2.58742223      -0.00483559       8.13573081
Si       5.12770359       1.12865118       3.09788212
Si       1.36651459      -1.43059358       7.11502090
Si       3.31816084      -1.73656032       7.41239038
12
Lattice="5.234341072813026 0.817549264487452 0.8255966009422443 -0.26939884372339457 6.058775810718442 -3.2790489311390147 0.757293373019406 -2.8622072387999684 10.169202111543955" Properties=species:S:1:pos:R:3 unique_starting_index=44 config_type=initial n_minim_iter=5 stress="0.004990155910043113 -0.002796752796118415 -0.00880950418914502 -0.002796752796118415 -0.02746453133224566 -0.0082299071394891 -0.00880950418914502 -0.0082299071394891 0.003887224570868443" pbc="T T T"
Si       0.64932280       0.36126877       7.70198086
Si       1.26315598       1.76414747       2.52970540
Si       1.77783915       2.76428994       4.18441957
Si       3.48825730       2.25713325       3.26531416
Si       5.12914097       3.03109417       8.53251643
Si       4.59093774      -0.24755195       7.91338637
Si       3.09452288       4.32408763      -1.46265450
Si       0.66502025       4.61721970      -1.20863701
Si       2.59347169      -0.00981064       8.11381546
Si       5.14658221       1.12581435       3.08846725
Si       1.36874802      -1.43239936       7.09955041
Si       3.32765518      -1.74188343       7.39405464
12
Lattice="5.217160924132909 0.8219706764257368 0.8341484499293285 -0.27732989510367406 6.087266949930573 -3.2533578205121305 0.7813119778614359 -2.8687115573638056 10.099095513714863" Properties=species:S:1:pos:R:3 unique_starting_index=44 config_type=initial n_minim_iter=6 stress="-0.03280127075470529 -0.014019034730355142 -0.0027530410880409082 -0.014019034730355142 -0.02520505713578956 0.004322522493115495 -0.0027530410880409082 0.004322522493115495 -0.005279336643607106" pbc="T T T"
Si       0.66317934       0.37210430       7.65598727
Si       1.26405799       1.76845730       2.51757849
Si       1.78466280       2.79212025       4.16336203
Si       3.48955550       2.26859487       3.25134396
Si       5.12706276       3.05307858       8.49095477
Si       4.59391708      -0.24354382       7.87296171
Si       3.08331773       4.34490836      -1.44517853
Si       0.66195380       4.63692709      -1.20629725
Si       2.60225546       0.00041964       8.06413645
Si       5.13845953       1.13380965       3.08205132
Si       1.37898021      -1.43197991       7.05688098
Si       3.33411838      -1.75146668       7.35013578
12
Lattice="5.2238875275435666 0.8366045042823337 0.8297246191371594 -0.2652053917573478 6.134871534257399 -3.257564907577893 0.7857321837682268 -2.928693227483436 10.036691465664834" Properties=species:S:1:pos:R:3 unique_starting_index=44 config_type=initial n_minim_iter=7 stress="-0.01826122011886745 -0.0035613641544217853 -0.004085495576924359 -0.0035613641544217853 -0.013649829894455335 -0.01146531300277694 -0.004085495576924359 -0.01146531300277694 -0.03515480512351059" pbc="T T T"
Si       0.66709501       0.34046490       7.60074885
Si       1.27325575       1.76471218       2.49496322
Si       1.79877952       2.80041386       4.12010431
Si       3.50573892       2.27389372       3.21812318
Si       5.14276466       3.04505910       8.42075116
Si       4.60515613      -0.26971734       7.82209558
Si       3.09732508       4.38205443      -1.45529781
Si       0.67631239       4.66891389      -1.22957670
Si       2.61214075      -0.02532977       8.00534726
Si       5.15263082       1.13562796       3.05923917
Si       1.37981461      -1.46457528       7.01599232
Si       3.34229597      -1.78726839       7.30631513
12
Lattice="5.216028236870432 0.865981765317934 0.8409767577146815 -0.24138744248444655 6.235904374137155 -3.338299264869577 0.7990428173521404 -3.062040135520452 10.121648230934275" Properties=species:S:1:pos:R:3 unique_starting_index=44 config_type=initial n_minim_iter=8 stress="-0.029061047653403893 0.009053160342105853 -0.0006150035697775704 0.009053160342105853 0.0024108979471196773 -0.010769955602371262 -0.0006150035697775704 -0.010769955602371262 0.015058178568854715" pbc="T T T"
Si       0.66529719       0.26033523       7.64786587
Si       1.28710388       1.74128110       2.50342473
Si       1.82425215       2.82845045       4.11939470
Si       3.53044824       2.28086827       3.21571278
Si       5.14968042       3.01443535       8.45679084
Si       4.61396084      -0.33562566       7.88800253
Si       3.10833786       4.45694116      -1.51302126
Si       0.71014181       4.74228492      -1.31866003
Si       2.62959775      -0.08025772       8.05335674
Si       5.17537211       1.13117691       3.08373609
Si       1.38019481      -1.53356368       7.08924974
Si       3.35154329      -1.86102123       7.37419265
12
Lattice="5.237708996901771 0.881491696639614 0.8584669865004677 -0.24392116984250206 6.283862854518518 -3.332655040135893 0.8424542750501356 -3.100378266323795 10.069116686135095" Properties=species:S:1:pos:R:3 unique_starting_index=44 config_type=initial n_minim_iter=9 stress="0.01828141385068522 0.006780640990713637 0.009536519054989027 0.006780640990713637 0.024975941139639506 0.009484558038291518 0.009536519054989027 0.009484558038291518 0.023324783446924492" pbc="T T T"
Si       0.69206662       0.24321326       7.61093189
Si       1.31115718       1.73204388       2.50752001
Si       1.86177347       2.86959301       4.08688376
Si       3.56763137       2.29565799       3.20390730
Si       5.19034750       3.01645448       8.42671143
Si       4.66066508      -0.35723909       7.86598988
Si       3.10350888       4.49848921      -1.51149149
Si       0.73351898       4.78597748      -1.35284340
Si       2.66950955      -0.07927881       8.01091271
Si       5.23136726       1.13166161       3.09520351
Si       1.41894392      -1.54704645       7.07350217
Si       3.39141600      -1.86812030       7.35000794
12
Lattice="5.221980931957885 0.8911936139889983 0.847246142179056 -0.23563387029474633 6.352630159879461 -3.336404025222174 0.822532209442752 -3.1440547748452845 10.056601764841949" Properties=species:S:1:pos:R:3 unique_starting_index=44 config_type=initial n_minim_iter=10 stress="0.041959473298683284 0.0022964349621394154 -0.009190224750523423 0.0022964349621394154 0.0627442147602533 0.022239389458873042 -0.009190224750523423 0.022239389458873042 0.032034747454310876" pbc="T T T"
Si       0.66541246       0.23850041       7.60647030
Si       1.31265247       1.73258824       2.51601487
Si       1.85576535       2.91615777       4.06798878
Si       3.56726230       2.30916196       3.18624772
Si       5.15025880       3.02713605       8.41455299
Si       4.63409936      -0.37760460       7.85039470
Si       3.07604129       4.55168048      -1.53257235
Si       0.75243268       4.84417995      -1.39408784
Si       2.63633747      -0.07994536       7.98792561
Si       5.21996317       1.12383290       3.08273979
Si       1.40996152      -1.56617146       7.07727973
Si       3.37052982      -1.88169559       7.33584031
12
Lattice="5.233865820522538 0.890505878718753 0.9253483491705938 -0.287914940656574 6.416760827886534 -3.378405321043881 0.9881040734192662 -3.236451596063355 10.069556615855738" Properties=species:S:1:pos:R:3 unique_starting_index=44 config_type=initial n_minim_iter=11 stress="0.06214616577707369 0.003079390735883237 0.006472120768814511 0.003079390735883237 0.051315846466799334 0.025202331789111704 0.006472120768814511 0.025202331789111704 0.03614424235585333" pbc="T T T"
Si       0.76316216       0.18765066       7.61405525
Si       1.36964721       1.69162838       2.55317736
Si       1.94331097       2.94123549       4.05610196
Si       3.64357870       2.28608061       3.21930414
Si       5.26431027       2.95952631       8.48697746
Si       4.76104875      -0.44717082       7.91957739
Si       3.00583701       4.60098478      -1.53435889
Si       0.76885127       4.89637469      -1.48051151
Si       2.74185282      -0.12560810       7.99979428
Si       5.28245936       1.08066513       3.15938562
Si       1.53513312      -1.61165787       7.12268388
Si       3.49915979      -1.92236278       7.38795826
12
Lattice="5.2246160902032415 0.9035743819934993 0.9762113734700452 -0.31459445190223106 6.4797769813252 -3.3712592674213635 1.0964246183166808 -3.285494849095331 10.005203554795711" Properties=species:S:1:pos:R:3 unique_starting_index=44 config_type=initial n_minim_iter=12 stress="0.08116175973395892 0.010172526995592544 0.007718550017845065 0.010172526995592544 0.06444752883463221 0.036467610019426694 0.007718550017845065 0.036467610019426694 0.03539290432130805" pbc="T T T"
Si       0.81775650       0.17148343       7.57257620
Si       1.40700680       1.66498714       2.57867946
Si       1.99295283       2.98385600       4.02517514
Si       3.69892813       2.28855332       3.22434932
Si       5.32562464       2.94773295       8.49483398
Si       4.83510192      -0.45958783       7.91758405
Si       2.94064938       4.65824156      -1.52043051
Si       0.79539322       4.94763212      -1.53815842
Si       2.79698641      -0.13107202       7.94974564
Si       5.32128847       1.07841190       3.20333106
Si       1.61731085      -1.61986218       7.10878022
Si       3.58046118      -1.92484189       7.36856213
12
Lattice="5.220187907600359 0.914027701302317 1.0324946782520426 -0.3408686444330203 6.540084878135748 -3.4048135915022346 1.2104182404285815 -3.3636859520255786 10.012830319252489" Properties=species:S:1:pos:R:3 unique_starting_index=44 config_type=initial n_minim_iter=13 stress="0.08196993866728085 0.025779223356522846 0.014498503832701652 0.025779223356522846 0.04092929676953043 0.03273500037243814 0.014498503832701652 0.03273500037243814 0.03673606269552316" pbc="T T T"
Si       0.88107475       0.12443538       7.57869199
Si       1.45013544       1.63109696       2.61812409
Si       2.04892199       3.01029110       4.00746265
Si       3.75675428       2.27998927       3.24452308
Si       5.40279197       2.91139111       8.55011998
Si       4.91678498      -0.48581552       7.96566685
Si       2.87360816       4.71365293      -1.52530103
Si       0.82079752       4.98943994      -1.61870553
Si       2.86215209      -0.16805289       7.94966301
Si       5.36881506       1.05766846       3.26578126
Si       1.70693013      -1.65459459       7.14085738
Si       3.65986620      -1.96467984       7.39917409
12
Lattice="5.186159870482335 0.8935964279625821 1.070371030194884 -0.3883316770185723 6.556486008468663 -3.40323058717664 1.2904543401682307 -3.3710834660082702 10.012332516059825" Properties=species:S:1:pos:R:3 unique_starting_index=44 config_type=initial n_minim_iter=14 stress="0.039244513669747516 0.006107466223507091 0.009387151387174265 0.006107466223507091 0.019166639504934614 0.02337228053430488 0.009387151387174265 0.02337228053430488 0.02230918830019871" pbc="T T T"
Si       0.91571792       0.12793258       7.59022173
Si       1.46069161       1.61912716       2.65201291
Si       2.05261521       3.01709229       4.00799244
Si       3.76134262       2.26623217       3.26865479
Si       5.41583666       2.89777731       8.60575519
Si       4.93155230      -0.48605233       7.99108978
Si       2.79687852       4.72834532      -1.50336898
Si       0.79848303       5.00135834      -1.64477761
Si       2.89652052      -0.19941836       7.95243611
Si       5.36399016       1.02810843       3.30880179
Si       1.75430843      -1.65769750       7.14876500
Si       3.70960988      -1.97688672       7.41551787
12
Lattice="5.157535639582271 0.8697923136686505 1.0982927320516498 -0.41903156207923564 6.4656419539077765 -3.3875372466679448 1.3230088568532623 -3.2644186197690193 10.090803470360807" Properties=species:S:1:pos:R:3 unique_starting_index=44 config_type=initial n_minim_iter=15 stress="-0.027663458029516245 -0.0012190101485028914 -0.0011108430692853039 -0.0012190101485028914 -0.02663983525199319 -0.004933930896727927 -0.0011108430692853039 -0.004933930896727927 0.005144949114332348" pbc="T T T"
Si       0.94140393       0.17785272       7.67758311
Si       1.45613726       1.63705754       2.71208182
Si       2.03262963       2.98093195       4.05863799
Si       3.74744570       2.25326171       3.33084009
Si       5.41497958       2.92816592       8.74461279
Si       4.91009274      -0.40433193       8.06444938
Si       2.76113722       4.66356989      -1.45772994
Si       0.75467323       4.92666531      -1.61598414
Si       2.92045159      -0.16616884       8.03816545
Si       5.33493304       1.03233278       3.35907749
Si       1.75802326      -1.60774114       7.18527700
Si       3.72719970      -1.93500424       7.47347903
12
Lattice="5.161989348986611 0.8727819638418075 1.1063466293168114 -0.42465688585148115 6.483261858109716 -3.380493939018479 1.344530129357368 -3.2765946866372073 10.059915462715427" Properties=species:S:1:pos:R:3 unique_starting_index=44 config_type=initial n_minim_iter=16 stress="-0.007227067043328507 -0.015398699432685445 -0.002464754820561512 -0.015398699432685445 -0.007027514405077272 -0.006591250827975717 -0.002464754820561512 -0.006591250827975717 -0.008227036526711059" pbc="T T T"
Si       0.96275768       0.17099727       7.66035158
Si       1.45618955       1.63111145       2.70733180
Si       2.04115733       2.99649058       4.04589306
Si       3.75941976       2.26302341       3.32407803
Si       5.43635985       2.94503249       8.74130489
Si       4.92377345      -0.40737905       8.04288588
Si       2.76582530       4.66975211      -1.44678603
Si       0.75245761       4.93730076      -1.61283013
Si       2.93516749      -0.16910524       8.01220610
Si       5.35334739       1.02675647       3.35507948
Si       1.77189149      -1.61241481       7.15745376
Si       3.74378340      -1.93908321       7.45373602
12
Lattice="5.159132422170613 0.894635188748698 1.1177328596747762 -0.4151033530163399 6.519960198401251 -3.363232979403048 1.3612574626075566 -3.280760331155408 10.02445723413663" Properties=species:S:1:pos:R:3 unique_starting_index=44 config_type=initial n_minim_iter=17 stress="0.0008179001387142942 0.004221666930908301 0.010935660938360162 0.004221666930908301 0.019731142047128617 0.016891416118084195 0.010935660938360162 0.016891416118084195 -0.004490947494289069" pbc="T T T"
Si       0.96430408       0.19435811       7.64799395
Si       1.46515177       1.64252345       2.71798530
Si       2.06426632       3.05082151       4.03216238
Si       3.77717526       2.29813751       3.32275102
Si       5.44298716       2.97982394       8.75983514
Si       4.94554714      -0.38842703       8.02438362
Si       2.77263769       4.69165757      -1.43260802
Si       0.77413799       4.95883468      -1.60968825
Si       2.94368942      -0.13840811       7.98520604
Si       5.36796628       1.03481940       3.35378092
Si       1.77767892      -1.59759611       7.12158538
Si       3.75562671      -1.92718957       7.42858837
12
Lattice="5.166879283128592 0.8987366983621252 1.1005142303638764 -0.3971061113231005 6.539520972849914 -3.4032417341986374 1.3250768124982744 -3.3260910917391593 10.08186574173827" Properties=species:S:1:pos:R:3 unique_starting_index=44 config_type=initial n_minim_iter=18 stress="0.014912407960801436 -0.010619875974794586 -0.002529140567442644 -0.010619875974794586 0.012878089887074106 0.001232693738579457 -0.002529140567442644 0.001232693738579457 0.02511328285898754" pbc="T T T"
Si       0.93894215       0.15402237       7.69586620
Si       1.45726104       1.63663383       2.72066866
Si       2.06383606       3.04177682       4.02498467
Si       3.78552431       2.28813923       3.32217821
Si       5.40897988       2.94257851       8.79328991
Si       4.93588067      -0.41425722       8.04351719
Si       2.79037286       4.69932595      -1.46848347
Si       0.77316990       4.96946612      -1.64704156
Si       2.91136624      -0.17353983       8.00822096
Si       5.37846356       1.03680057       3.34969328
Si       1.75970995      -1.60896966       7.14691698
Si       3.73746724      -1.95779287       7.44917290
12
Lattice="5.175698163277979 0.9145324064856828 1.1094447095955478 -0.38709927574981823 6.535462803811622 -3.3856844826951322 1.3398290144515348 -3.3136856220029807 10.04231382168031" Properties=species:S:1:pos:R:3 unique_starting_index=44 config_type=initial n_minim_iter=19 stress="0.02255682343824294 0.0049470186796207434 0.001331762503227246 0.0049470186796207434 0.01253042192219663 0.005387077922006812 0.001331762503227246 0.005387077922006812 0.015844821924481185" pbc="T T T"
Si       0.94613369       0.15307352       7.68408999
Si       1.46643444       1.64608907       2.71690017
Si       2.08387229       3.05635095       4.00657914
Si       3.82033231       2.29611623       3.32451084
Si       5.41986833       2.96246010       8.80352244
Si       4.94998223      -0.38729253       8.01509598
Si       2.79321690       4.69440570      -1.45541910
Si       0.77863926       4.96527402      -1.64463585
Si       2.94196704      -0.16223355       7.98075792
Si       5.39993367       1.06658467       3.35126472
Si       1.78645245      -1.58954341       7.11074340
Si       3.75740331      -1.93486123       7.41656075
12
Lattice="5.171695628921502 0.916991551748338 1.108814953493205 -0.3837647945082269 6.523990804934276 -3.373906364309133 1.335728827033841 -3.2948419205276966 10.0301069715169" Properties=species:S:1:pos:R:3 unique_starting_index=44 config_type=initial n_minim_iter=20 stress="-0.0009772288263365173 -0.0008275343935902409 -0.001529840878382717 -0.0008275343935902409 -0.006853027897129803 -0.008231265141770482 -0.001529840878382717 -0.008231265141770482 0.002063083773051572" pbc="T T T"
Si       0.93248357       0.16617798       7.69534052
Si       1.46200317       1.65801901       2.71762620
Si       2.08528152       3.05996512       3.99934158
Si       3.81753627       2.31173690       3.32316275
Si       5.40297211       2.96815218       8.83552211
Si       4.94256554      -0.37254265       7.99913729
Si       2.79493593       4.68773678      -1.44652971
Si       0.77595264       4.94487140      -1.63932077
Si       2.94536547      -0.15529673       7.97025052
Si       5.40485041       1.07199435       3.34571737
Si       1.79023430      -1.57419608       7.08624630
Si       3.75704604      -1.91747355       7.39815179
12
Lattice="5.166155458308802 0.9284794792516464 1.1071589711880756 -0.37132264791058345 6.5235516604741175 -3.3613295057132078 1.326964077427626 -3.2824285460966984 10.01081534900712" Properties=species:S:1:pos:R:3 unique_starting_index=44 config_type=initial n_minim_iter=21 stress="-0.015565446166975394 0.004653320229046826 -0.0006858456534832084 0.004653320229046826 -0.009243014090831125 -0.007006008914444656 -0.0006858456534832084 -0.007006008914444656 -0.007012866428967409" pbc="T T T"
Si       0.92459224       0.16573790       7.69980418
Si       1.46077943       1.67130996       2.71884944
Si       2.09165665       3.08234333       3.98765163
Si       3.82383185       2.32961517       3.31759059
Si       5.38423514       2.98511890       8.85782013
Si       4.93834185      -0.35710985       7.98057364
Si       2.79225309       4.69619163      -1.44169866
Si       0.78727371       4.93974909      -1.63541030
Si       2.94282881      -0.14572995       7.95117211
Si       5.40323501       1.08683230       3.33483597
Si       1.78254003      -1.55584084       7.05939083
Si       3.75394560      -1.90186600       7.37858244
