22
Lattice="5.472009705442996 -0.491841018689135 -2.3157059552416244 -2.0982938992641613 10.576741482154826 -1.930707998485315 -6.339648107602653 -5.0369678563524545 12.655692223409945" Properties=species:S:1:pos:R:3 unique_starting_index=18 config_type=initial n_minim_iter=1 energy=-3603.4723614555446 free_energy=-3603.4723614555446 pbc="T T T"
Si       1.05003308       7.67750379      -0.21791422
Si      -2.73347144      -2.45040770       5.99653964
Si      -5.08858653      -2.38689691      10.95809085
Si      -1.35725526      -2.46453203       9.57326925
Si      -6.34077190      -0.14328218      11.20595126
Si       4.67635349       2.01581576      -1.11616686
Si       2.76458510       1.95916931      -0.44193827
Si      -3.02340721       2.35140162       8.61065909
Si      -3.24284935      -2.83951715      10.23692410
Si      -5.23465860       1.48375268       6.49689727
Si      -1.26896167       1.48829976       2.92329308
Si      -3.87631245       2.92786336       6.83726028
Si      -4.46952185      -2.50564091       7.00141292
Si      -0.45533023       6.84339428      -1.26926574
Si      -0.46192761       2.82705253       4.58432844
Si       1.26142093       7.07184538      -2.28496169
Si      -0.90179710      -3.06043811       5.32645828
Si       0.68293001      -3.41961413       6.62656362
Si       0.46988665       2.48554003       2.82749356
Si      -5.01899888       2.30810910       8.37712079
Si      -1.29132560       3.49476275       2.88446547
Si      -2.91164918      -2.42001993       8.27185065
22
Lattice="5.472087099661677 -0.4918148434398771 -2.3157149217714648 -2.0983469706531728 10.576610991726724 -1.9308625912514956 -6.339772386317904 -5.037074975628007 12.655739122698034" Properties=species:S:1:pos:R:3 unique_starting_index=18 config_type=initial n_minim_iter=2 stress="0.00011510809602965458 -1.050421139342552e-06 -2.3964007940988788e-05 -1.050421139342552e-06 -4.0304497017183885e-05 -2.6655953254757358e-05 -2.3964007940988788e-05 -2.6655953254757358e-05 4.453068319674769e-06" pbc="T T T"
Si       1.05004493       7.67738542      -0.21810611
Si      -2.73350421      -2.45046752       5.99656091
Si      -5.08873495      -2.38700114      10.95810438
Si      -1.35726719      -2.46468316       9.57326031
Si      -6.34090290      -0.14344436      11.20592474
Si       4.67646269       2.01576502      -1.11625285
Si       2.76458824       1.95912047      -0.44205602
Si      -3.02354375       2.35122707       8.61061153
Si      -3.24297801      -2.83962173      10.23699300
Si      -5.23474016       1.48361704       6.49687676
Si      -1.26897585       1.48823226       2.92324190
Si      -3.87638765       2.92772919       6.83714584
Si      -4.46962942      -2.50568301       7.00146019
Si      -0.45533432       6.84331970      -1.26939611
Si      -0.46197580       2.82695532       4.58426032
Si       1.26139586       7.07174366      -2.28509430
Si      -0.90187580      -3.06048279       5.32651304
Si       0.68294866      -3.41964615       6.62657228
Si       0.46984662       2.48543175       2.82748213
Si      -5.01913508       2.30793318       8.37711015
Si      -1.29133873       3.49467925       2.88443008
Si      -2.91172094      -2.42008781       8.27185050
22
Lattice="5.472008077520441 -0.4918217240423268 -2.315699556322239 -2.098326325363804 10.576644622679712 -1.9308483152533917 -6.339654852144388 -5.037070012917508 12.655700524073744" Properties=species:S:1:pos:R:3 unique_starting_index=18 config_type=initial n_minim_iter=3 stress="-7.460340313552335e-05 -6.074954556048641e-06 4.33574940703512e-06 -6.074954556048641e-06 -2.5421183589734804e-05 -1.4028295343725865e-05 4.33574940703512e-06 -1.4028295343725865e-05 -8.813234990690928e-05" pbc="T T T"
Si       1.05003351       7.67741249      -0.21809778
Si      -2.73345270      -2.45046718       5.99654350
Si      -5.08864287      -2.38698699      10.95807502
Si      -1.35722256      -2.46468087       9.57324280
Si      -6.34078940      -0.14342786      11.20589605
Si       4.67640447       2.01576614      -1.11624042
Si       2.76454866       1.95912288      -0.44205299
Si      -3.02349011       2.35124901       8.61060188
Si      -3.24291226      -2.83961118      10.23697398
Si      -5.23465174       1.48363060       6.49686084
Si      -1.26895012       1.48824226       2.92323401
Si      -3.87631705       2.92775276       6.83712810
Si      -4.46955365      -2.50567553       7.00143711
Si      -0.45533270       6.84334530      -1.26938901
Si      -0.46195896       2.82697459       4.58426257
Si       1.26136803       7.07175997      -2.28507899
Si      -0.90185601      -3.06048567       5.32650380
Si       0.68296195      -3.41964293       6.62656026
Si       0.46984477       2.48544211       2.82749038
Si      -5.01905097       2.30795514       8.37709433
Si      -1.29131154       3.49469852       2.88443118
Si      -2.91166028      -2.42007855       8.27183040
22
Lattice="5.471985283078916 -0.49183150046364527 -2.315720217419185 -2.0983163931556876 10.576720384338577 -1.930834164430055 -6.3396112994975 -5.037062634476576 12.655831119114065" Properties=species:S:1:pos:R:3 unique_starting_index=18 config_type=initial n_minim_iter=4 stress="-1.5502821593143604e-05 -1.1596424475464183e-05 2.3781449939275113e-05 -1.1596424475464183e-05 8.798452166757112e-05 -1.380055300145884e-05 2.3781449939275113e-05 -1.380055300145884e-05 7.515849250758447e-05" pbc="T T T"
Si       1.05004402       7.67747699      -0.21807564
Si      -2.73343577      -2.45046681       5.99660538
Si      -5.08860841      -2.38695972      10.95819502
Si      -1.35720144      -2.46466899       9.57335788
Si      -6.34074447      -0.14339287      11.20602881
Si       4.67640026       2.01577701      -1.11624089
Si       2.76454083       1.95913367      -0.44205238
Si      -3.02347117       2.35129989       8.61072409
Si      -3.24288453      -2.83958865      10.23709354
Si      -5.23461685       1.48366057       6.49694440
Si      -1.26893823       1.48826454       2.92326878
Si      -3.87628403       2.92780383       6.83721553
Si      -4.46952898      -2.50566367       7.00150580
Si      -0.45533267       6.84340118      -1.26938442
Si      -0.46194489       2.82701750       4.58434294
Si       1.26136132       7.07180202      -2.28507990
Si      -0.90185322      -3.06049118       5.32656528
Si       0.68297867      -3.41963587       6.62663383
Si       0.46985068       2.48547071       2.82754667
Si      -5.01902237       2.30800494       8.37720187
Si      -1.29129455       3.49474079       2.88448057
Si      -2.91163292      -2.42006031       8.27192482
22
Lattice="5.471987332062232 -0.491823378807947 -2.315764577540422 -2.0982202355415818 10.576459160077816 -1.9306236849956793 -6.3397133691547065 -5.036771093675272 12.655793717350784" Properties=species:S:1:pos:R:3 unique_starting_index=18 config_type=initial n_minim_iter=5 stress="-1.4572446777572431e-05 1.5390863811829954e-05 -4.003964088379387e-05 1.5390863811829954e-05 -2.3899098482741198e-05 6.626417569956934e-05 -4.003964088379387e-05 6.626417569956934e-05 2.705386338856954e-05" pbc="T T T"
Si       1.05013757       7.67734120      -0.21795919
Si      -2.73349764      -2.45033596       5.99657561
Si      -5.08868792      -2.38672596      10.95818565
Si      -1.35729102      -2.46446791       9.57335245
Si      -6.34079961      -0.14324486      11.20608831
Si       4.67645764       2.01574029      -1.11623790
Si       2.76456476       1.95908875      -0.44205065
Si      -3.02353276       2.35138866       8.61082820
Si      -3.24296085      -2.83934021      10.23708551
Si      -5.23462466       1.48370085       6.49702972
Si      -1.26894355       1.48827882       2.92328205
Si      -3.87628083       2.92785139       6.83729108
Si      -4.46959002      -2.50549129       7.00148608
Si      -0.45529122       6.84325416      -1.26927432
Si      -0.46194179       2.82704626       4.58444778
Si       1.26142462       7.07160520      -2.28497104
Si      -0.90193899      -3.06034536       5.32654684
Si       0.68294074      -3.41941012       6.62657519
Si       0.46985763       2.48546863       2.82762595
Si      -5.01907521       2.30808366       8.37727817
Si      -1.29126651       3.49472038       2.88455236
Si      -2.91168558      -2.41985616       8.27192450
22
Lattice="5.471988841325034 -0.4917914660807647 -2.315660255154607 -2.0982665109457463 10.576440103955811 -1.930786398487526 -6.339577389807225 -5.036927915595298 12.655651752578562" Properties=species:S:1:pos:R:3 unique_starting_index=18 config_type=initial n_minim_iter=6 stress="4.193895412689029e-05 1.5229540572140659e-05 8.01393402183172e-05 1.5229540572140659e-05 -1.4313980309763216e-05 2.57562046003209e-05 8.01393402183172e-05 2.57562046003209e-05 -2.9893805868008568e-05" pbc="T T T"
Si       1.05016089       7.67731725      -0.21807031
Si      -2.73344578      -2.45041993       5.99649415
Si      -5.08857513      -2.38685434      10.95802587
Si      -1.35718931      -2.46461868       9.57328912
Si      -6.34068630      -0.14341168      11.20589407
Si       4.67650347       2.01573575      -1.11618995
Si       2.76458720       1.95906829      -0.44204872
Si      -3.02346921       2.35124939       8.61069040
Si      -3.24283557      -2.83945201      10.23698084
Si      -5.23456128       1.48359204       6.49688777
Si      -1.26891466       1.48822130       2.92318931
Si      -3.87620285       2.92774219       6.83711831
Si      -4.46952917      -2.50555470       7.00138431
Si      -0.45533148       6.84325196      -1.26938437
Si      -0.46188292       2.82696904       4.58438196
Si       1.26139509       7.07158135      -2.28504820
Si      -0.90189317      -3.06041802       5.32654723
Si       0.68305842      -3.41946628       6.62656286
Si       0.46990337       2.48540771       2.82759213
Si      -5.01902184       2.30795461       8.37707926
Si      -1.29122594       3.49466115       2.88443683
Si      -2.91158552      -2.41994272       8.27184592
22
Lattice="5.471980807103733 -0.4917765541239443 -2.315721823066266 -2.09827800049679 10.57649088903303 -1.930951055337616 -6.33966593229155 -5.037126949957627 12.655831719029548" Properties=species:S:1:pos:R:3 unique_starting_index=18 config_type=initial n_minim_iter=7 stress="-7.550575504340432e-07 1.897226711106806e-06 -2.089948288191245e-05 1.897226711106806e-06 1.7583421983644355e-05 -2.218402722245097e-05 -2.089948288191245e-05 -2.218402722245097e-05 -1.4139753624723617e-05" pbc="T T T"
Si       1.05013731       7.67732648      -0.21823325
Si      -2.73350075      -2.45052348       5.99655754
Si      -5.08866858      -2.38701290      10.95812977
Si      -1.35730401      -2.46480212       9.57337117
Si      -6.34078125      -0.14358668      11.20598983
Si       4.67650096       2.01572776      -1.11628035
Si       2.76457765       1.95905183      -0.44212239
Si      -3.02359460       2.35110726       8.61071509
Si      -3.24292006      -2.83960257      10.23708051
Si      -5.23460791       1.48349425       6.49694455
Si      -1.26894763       1.48816482       2.92316412
Si      -3.87626533       2.92763912       6.83711784
Si      -4.46958019      -2.50563893       7.00149073
Si      -0.45535599       6.84328768      -1.26951356
Si      -0.46195401       2.82689684       4.58435723
Si       1.26138214       7.07159997      -2.28520408
Si      -0.90195113      -3.06051933       5.32663526
Si       0.68300423      -3.41956893       6.62661921
Si       0.46986016       2.48535002       2.82756296
Si      -5.01912137       2.30782898       8.37709799
Si      -1.29125913       3.49461383       2.88438123
Si      -2.91165775      -2.42006006       8.27193560
22
Lattice="5.471895759400487 -0.49182163212382757 -2.315749129038295 -2.0984108961432133 10.57625227187858 -1.9311083469601902 -6.339442000577838 -5.037018221758651 12.656156124013705" Properties=species:S:1:pos:R:3 unique_starting_index=18 config_type=initial n_minim_iter=8 stress="-5.618708093505831e-05 -6.146360666728938e-05 3.17002497212667e-05 -6.146360666728938e-05 -0.0001496346124744667 -3.429401910805167e-05 3.17002497212667e-05 -3.429401910805167e-05 0.00010955240041659648" pbc="T T T"
Si       1.05005247       7.67711894      -0.21833487
Si      -2.73344746      -2.45049912       5.99663106
Si      -5.08853190      -2.38692667      10.95836131
Si      -1.35722207      -2.46482001       9.57363711
Si      -6.34065861      -0.14362378      11.20626622
Si       4.67647259       2.01558764      -1.11628708
Si       2.76455417       1.95892327      -0.44214096
Si      -3.02363144       2.35099304       8.61095740
Si      -3.24274751      -2.83951424      10.23734421
Si      -5.23453152       1.48345272       6.49708896
Si      -1.26891810       1.48805963       2.92317611
Si      -3.87618679       2.92754006       6.83726560
Si      -4.46948438      -2.50550091       7.00167816
Si      -0.45547002       6.84311880      -1.26964870
Si      -0.46201225       2.82682033       4.58443371
Si       1.26125000       7.07134097      -2.28535560
Si      -0.90186904      -3.06050417       5.32683602
Si       0.68310691      -3.41948099       6.62679020
Si       0.46986156       2.48522736       2.82766083
Si      -5.01910025       2.30775105       8.37722529
Si      -1.29123509       3.49449202       2.88441119
Si      -2.91156398      -2.41996749       8.27213299
22
Lattice="5.471910797479072 -0.4918142470355858 -2.315755070241463 -2.0983740501540313 10.576410639873512 -1.9310799741242368 -6.339518647137523 -5.037110107056405 12.656084226654809" Properties=species:S:1:pos:R:3 unique_starting_index=18 config_type=initial n_minim_iter=9 stress="2.200047860232013e-05 -4.579247623319433e-05 -8.552274645175429e-07 -4.579247623319433e-05 2.847369416190195e-05 2.485478969617178e-05 -8.552274645175429e-07 2.485478969617178e-05 -3.325300950397859e-05" pbc="T T T"
Si       1.05012210       7.67725577      -0.21835942
Si      -2.73354028      -2.45056877       5.99650820
Si      -5.08861205      -2.38692061      10.95826491
Si      -1.35728477      -2.46487402       9.57358719
Si      -6.34073776      -0.14366495      11.20624188
Si       4.67656665       2.01560410      -1.11627748
Si       2.76461528       1.95892228      -0.44215384
Si      -3.02374752       2.35101231       8.61098118
Si      -3.24276707      -2.83949960      10.23728932
Si      -5.23457664       1.48344828       6.49708557
Si      -1.26890577       1.48801668       2.92312327
Si      -3.87617489       2.92756661       6.83726794
Si      -4.46956140      -2.50547492       7.00165671
Si      -0.45545928       6.84322564      -1.26966975
Si      -0.46207080       2.82690361       4.58439064
Si       1.26128490       7.07138180      -2.28538123
Si      -0.90190127      -3.06058346       5.32684666
Si       0.68310251      -3.41945802       6.62671008
Si       0.46989599       2.48524848       2.82769248
Si      -5.01919870       2.30776806       8.37715489
Si      -1.29119086       3.49452697       2.88440160
Si      -2.91163293      -2.41994310       8.27206795
22
Lattice="5.471834575730707 -0.49161788785416854 -2.3157901646585737 -2.0980315176312647 10.57632915625064 -1.9312484388306796 -6.339617415967649 -5.037452240619358 12.656333736436626" Properties=species:S:1:pos:R:3 unique_starting_index=18 config_type=initial n_minim_iter=10 stress="-1.931246044046359e-05 7.314451509695988e-05 6.988245684546372e-06 7.314451509695988e-05 -1.2584551132399231e-05 -1.4625577941473402e-05 6.988245684546372e-06 -1.4625577941473402e-05 1.9041933324541455e-05" pbc="T T T"
Si       1.05036802       7.67726118      -0.21850250
Si      -2.73366319      -2.45074514       5.99656398
Si      -5.08865179      -2.38716976      10.95842459
Si      -1.35735914      -2.46505042       9.57375742
Si      -6.34071219      -0.14401230      11.20643457
Si       4.67663194       2.01572429      -1.11631298
Si       2.76468072       1.95897137      -0.44220673
Si      -3.02371675       2.35077982       8.61113658
Si      -3.24281598      -2.83967174      10.23749188
Si      -5.23450687       1.48320229       6.49717884
Si      -1.26882391       1.48787771       2.92311829
Si      -3.87602702       2.92732938       6.83736902
Si      -4.46960358      -2.50562487       7.00177879
Si      -0.45524711       6.84319465      -1.26980645
Si      -0.46202315       2.82682733       4.58440313
Si       1.26148526       7.07135729      -2.28555345
Si      -0.90199585      -3.06069717       5.32700111
Si       0.68300117      -3.41945701       6.62683537
Si       0.46999339       2.48519336       2.82773801
Si      -5.01915167       2.30748756       8.37722027
Si      -1.29104162       3.49441594       2.88439160
Si      -2.91170132      -2.42007348       8.27220607
22
Lattice="5.471845171948615 -0.4916959796959111 -2.31584772831489 -2.09819690749617 10.576432703705379 -1.9313429634578834 -6.339624734205886 -5.037487066230435 12.656497583365082" Properties=species:S:1:pos:R:3 unique_starting_index=18 config_type=initial n_minim_iter=11 stress="5.4811036784454715e-06 -1.0987461626734441e-05 1.3738637346346568e-07 -1.0987461626734441e-05 -6.2704225029998985e-06 -7.378015542983994e-06 1.3738637346346568e-07 -7.378015542983994e-06 -9.398866545349999e-06" pbc="T T T"
Si       1.05026573       7.67727221      -0.21866068
Si      -2.73381420      -2.45080682       5.99652781
Si      -5.08868663      -2.38712245      10.95848738
Si      -1.35739077      -2.46514001       9.57383929
Si      -6.34084008      -0.14404149      11.20660422
Si       4.67668897       2.01561081      -1.11636023
Si       2.76470724       1.95888829      -0.44229900
Si      -3.02391919       2.35073405       8.61131085
Si      -3.24283319      -2.83963002      10.23764519
Si      -5.23461817       1.48327437       6.49727204
Si      -1.26879516       1.48779195       2.92308485
Si      -3.87609853       2.92729785       6.83750762
Si      -4.46961291      -2.50549518       7.00183263
Si      -0.45532725       6.84325952      -1.26990950
Si      -0.46216607       2.82680883       4.58439425
Si       1.26137183       7.07127199      -2.28573518
Si      -0.90200082      -3.06079554       5.32713159
Si       0.68303453      -3.41944490       6.62688337
Si       0.46998460       2.48511771       2.82779730
Si      -5.01938706       2.30749742       8.37724637
Si      -1.29108315       3.49439307       2.88436021
Si      -2.91174446      -2.42000085       8.27228820
22
Lattice="5.471768371438871 -0.49166964795396056 -2.315951785065913 -2.0980705329380434 10.576571917163294 -1.9313505228591537 -6.3396743650533605 -5.037589554051633 12.65681778005535" Properties=species:S:1:pos:R:3 unique_starting_index=18 config_type=initial n_minim_iter=12 stress="-1.4063501011669408e-05 -1.5791143282001205e-05 -1.5995922524911007e-05 -1.5791143282001205e-05 -2.8793244895703207e-05 -2.421659374756183e-05 -1.5995922524911007e-05 -2.421659374756183e-05 -2.1736472211763506e-05" pbc="T T T"
Si       1.05033660       7.67736808      -0.21872924
Si      -2.73395146      -2.45089457       5.99650746
Si      -5.08869181      -2.38710264      10.95871086
Si      -1.35745578      -2.46520120       9.57404715
Si      -6.34089609      -0.14406054      11.20696190
Si       4.67671831       2.01561503      -1.11642804
Si       2.76473488       1.95888826      -0.44238854
Si      -3.02402967       2.35072168       8.61167832
Si      -3.24288438      -2.83957416      10.23792985
Si      -5.23461469       1.48331219       6.49750370
Si      -1.26870684       1.48776949       2.92309431
Si      -3.87606163       2.92725797       6.83783871
Si      -4.46972270      -2.50542153       7.00202091
Si      -0.45520681       6.84336273      -1.26995214
Si      -0.46222147       2.82683348       4.58451642
Si       1.26141211       7.07125596      -2.28589585
Si      -0.90206331      -3.06088243       5.32729713
Si       0.68296797      -3.41936559       6.62697870
Si       0.47003920       2.48510792       2.82792123
Si      -5.01948898       2.30750469       8.37746343
Si      -1.29104283       3.49438239       2.88438061
Si      -2.91178753      -2.41992161       8.27252604
22
Lattice="5.471697993441357 -0.4916293803962143 -2.316060429072105 -2.097873908641989 10.576753472770076 -1.9312627308672194 -6.339734221142394 -5.037635531239903 12.65717477707636" Properties=species:S:1:pos:R:3 unique_starting_index=18 config_type=initial n_minim_iter=13 stress="-7.335972246527603e-06 -1.408182491356692e-05 -7.281682942560453e-06 -1.408182491356692e-05 -1.3855219543602082e-05 -6.536062437829901e-06 -7.281682942560453e-06 -6.536062437829901e-06 -8.728326952277447e-06" pbc="T T T"
Si       1.05048911       7.67750672      -0.21870744
Si      -2.73413075      -2.45093562       5.99651594
Si      -5.08867796      -2.38700619      10.95900221
Si      -1.35746409      -2.46517171       9.57430485
Si      -6.34094872      -0.14400130      11.20741159
Si       4.67675902       2.01566226      -1.11649490
Si       2.76475160       1.95891772      -0.44244759
Si      -3.02410603       2.35077823       8.61219342
Si      -3.24290132      -2.83943654      10.23820654
Si      -5.23454426       1.48336021       6.49782727
Si      -1.26861480       1.48785748       2.92309256
Si      -3.87601003       2.92726844       6.83830305
Si      -4.46973206      -2.50530874       7.00227082
Si      -0.45504459       6.84350138      -1.26990811
Si      -0.46224731       2.82694782       4.58467297
Si       1.26152366       7.07126447      -2.28601560
Si      -0.90220450      -3.06093227       5.32746328
Si       0.68290805      -3.41921379       6.62708138
Si       0.47014815       2.48517613       2.82810622
Si      -5.01951969       2.30757222       8.37783503
Si      -1.29097442       3.49435654       2.88441893
Si      -2.91188628      -2.41979302       8.27279711
22
Lattice="5.471658844213368 -0.49146003071510136 -2.3161640258183165 -2.0975353407076547 10.576854872557066 -1.9313795656499337 -6.339980260199175 -5.038015728393045 12.65750149107647" Properties=species:S:1:pos:R:3 unique_starting_index=18 config_type=initial n_minim_iter=14 stress="-1.0279967977207641e-06 4.314487876963899e-06 -1.0320306491348505e-07 4.314487876963899e-06 1.783998449916002e-06 -8.146447144973737e-06 -1.0320306491348505e-07 -8.146447144973737e-06 3.285002551048943e-06" pbc="T T T"
Si       1.05074900       7.67758877      -0.21885123
Si      -2.73436385      -2.45108813       5.99655817
Si      -5.08878375      -2.38723479      10.95922357
Si      -1.35760756      -2.46532179       9.57446934
Si      -6.34111317      -0.14434157      11.20773101
Si       4.67681081       2.01580157      -1.11668793
Si       2.76470893       1.95899592      -0.44261509
Si      -3.02417673       2.35055242       8.61256002
Si      -3.24301596      -2.83959690      10.23836912
Si      -5.23450829       1.48314607       6.49803924
Si      -1.26852144       1.48779737       2.92304417
Si      -3.87601497       2.92707121       6.83857533
Si      -4.46988117      -2.50543013       7.00249904
Si      -0.45479393       6.84361828      -1.26999502
Si      -0.46224379       2.82691757       4.58462733
Si       1.26172798       7.07128837      -2.28613513
Si      -0.90240097      -3.06107927       5.32757579
Si       0.68272592      -3.41921701       6.62721791
Si       0.47026172       2.48520326       2.82820465
Si      -5.01960066       2.30736736       8.37800826
Si      -1.29088431       3.49427678       2.88434356
Si      -2.91204351      -2.41991482       8.27305602
22
Lattice="5.471675499180523 -0.4914745724761547 -2.31625162923004 -2.0974775501313885 10.57691431317872 -1.931247161052939 -6.340148400912321 -5.037939153817421 12.657580642720543" Properties=species:S:1:pos:R:3 unique_starting_index=18 config_type=initial n_minim_iter=15 stress="4.9992969138517415e-06 -1.3667606140223261e-06 6.088411387708071e-06 -1.3667606140223261e-06 1.6815756068249143e-05 1.2998280747818856e-05 6.088411387708071e-06 1.2998280747818856e-05 1.058626733014542e-05" pbc="T T T"
Si       1.05083028       7.67762746      -0.21880832
Si      -2.73456412      -2.45100678       5.99654289
Si      -5.08889203      -2.38710039      10.95927971
Si      -1.35769328      -2.46526110       9.57450568
Si      -6.34130642      -0.14420613      11.20789238
Si       4.67682188       2.01579336      -1.11678769
Si       2.76467133       1.95899219      -0.44274201
Si      -3.02434915       2.35058999       8.61285635
Si      -3.24307320      -2.83948508      10.23840400
Si      -5.23455470       1.48317245       6.49816000
Si      -1.26845161       1.48782335       2.92298903
Si      -3.87609990       2.92714082       6.83879813
Si      -4.46999059      -2.50531345       7.00259754
Si      -0.45475827       6.84362179      -1.26990796
Si      -0.46231041       2.82699499       4.58464493
Si       1.26179074       7.07122781      -2.28605817
Si      -0.90247723      -3.06107437       5.32754898
Si       0.68259934      -3.41910753       6.62721179
Si       0.47028040       2.48524804       2.82827479
Si      -5.01975489       2.30746846       8.37815336
Si      -1.29092145       3.49433616       2.88429821
Si      -2.91215048      -2.41979546       8.27312147
22
Lattice="5.471706820867599 -0.4913943644824743 -2.316334041569182 -2.0972977377800754 10.576877392727324 -1.9312210944220463 -6.340411930110936 -5.038030842194341 12.657688005458883" Properties=species:S:1:pos:R:3 unique_starting_index=18 config_type=initial n_minim_iter=16 stress="7.833530245673291e-06 1.379654953040934e-05 8.337501927260336e-06 1.379654953040934e-05 2.329302649754817e-05 9.671782838714596e-06 8.337501927260336e-06 9.671782838714596e-06 1.3794324556702254e-05" pbc="T T T"
Si       1.05100187       7.67762458      -0.21883239
Si      -2.73480025      -2.45098272       5.99652347
Si      -5.08907172      -2.38712231      10.95933301
Si      -1.35776921      -2.46529871       9.57452832
Si      -6.34151770      -0.14434113      11.20801913
Si       4.67687952       2.01582716      -1.11686062
Si       2.76470862       1.95899444      -0.44286353
Si      -3.02454561       2.35047788       8.61312669
Si      -3.24322523      -2.83951355      10.23843870
Si      -5.23461144       1.48307902       6.49823892
Si      -1.26838694       1.48780056       2.92287332
Si      -3.87615437       2.92708091       6.83896928
Si      -4.47017047      -2.50531206       7.00270106
Si      -0.45465679       6.84363646      -1.26987924
Si      -0.46235105       2.82697411       4.58461462
Si       1.26193984       7.07114517      -2.28604101
Si      -0.90259300      -3.06111563       5.32754614
Si       0.68241660      -3.41903706       6.62725384
Si       0.47032507       2.48525367       2.82828287
Si      -5.01991426       2.30740082       8.37828804
Si      -1.29092618       3.49431519       2.88419847
Si      -2.91228479      -2.41977657       8.27316789
22
Lattice="5.47176844827584 -0.4913931740508101 -2.316425238858107 -2.0972304691337125 10.576747262434354 -1.9310601308540334 -6.340649762469176 -5.037851078317332 12.657757539696453" Properties=species:S:1:pos:R:3 unique_starting_index=18 config_type=initial n_minim_iter=17 stress="1.558558490478841e-05 1.2161666727732429e-05 9.540456554082582e-06 1.2161666727732429e-05 2.362119466133114e-05 2.1619918410952843e-05 9.540456554082582e-06 2.1619918410952843e-05 1.3074143253270076e-05" pbc="T T T"
Si       1.05110699       7.67755428      -0.21876196
Si      -2.73506285      -2.45079659       5.99645258
Si      -5.08920198      -2.38692290      10.95933413
Si      -1.35783934      -2.46524462       9.57457839
Si      -6.34174794      -0.14421941      11.20814640
Si       4.67698436       2.01575264      -1.11693226
Si       2.76475766       1.95891709      -0.44294257
Si      -3.02483989       2.35047983       8.61354006
Si      -3.24335964      -2.83934683      10.23841119
Si      -5.23468053       1.48315416       6.49834019
Si      -1.26832929       1.48780085       2.92272526
Si      -3.87626036       2.92711652       6.83923479
Si      -4.47033115      -2.50514466       7.00279543
Si      -0.45456841       6.84358342      -1.26976647
Si      -0.46244048       2.82698745       4.58458330
Si       1.26198152       7.07092427      -2.28589351
Si      -0.90270888      -3.06106701       5.32753497
Si       0.68227044      -3.41883313       6.62727883
Si       0.47038017       2.48528434       2.82832720
Si      -5.02016263       2.30748347       8.37850113
Si      -1.29095548       3.49432646       2.88418679
Si      -2.91237344      -2.41957827       8.27319722
22
Lattice="5.471685315997505 -0.49135479386475894 -2.3164724284284364 -2.0971536014052825 10.576607838054306 -1.9311388485141638 -6.340602782511525 -5.037873710407357 12.657987151415805" Properties=species:S:1:pos:R:3 unique_starting_index=18 config_type=initial n_minim_iter=18 stress="7.439361105260322e-06 9.882206731331028e-06 8.41186392977592e-06 9.882206731331028e-06 8.568039876647037e-06 9.374634180458082e-06 8.41186392977592e-06 9.374634180458082e-06 8.901666398907048e-06" pbc="T T T"
Si       1.05115962       7.67747990      -0.21885770
Si      -2.73517407      -2.45069805       5.99645709
Si      -5.08910244      -2.38691540      10.95943629
Si      -1.35778270      -2.46535311       9.57471068
Si      -6.34171201      -0.14432693      11.20831766
Si       4.67700478       2.01568777      -1.11703421
Si       2.76473968       1.95884594      -0.44303784
Si      -3.02498012       2.35033063       8.61398055
Si      -3.24329733      -2.83936113      10.23852832
Si      -5.23456099       1.48312002       6.49841601
Si      -1.26819425       1.48768182       2.92262916
Si      -3.87623044       2.92700914       6.83949742
Si      -4.47030121      -2.50511800       7.00302500
Si      -0.45457136       6.84351925      -1.26975184
Si      -0.46246805       2.82689494       4.58458536
Si       1.26202027       7.07072929      -2.28595509