22
Lattice="5.482670362155512 -0.4663948893185575 -2.2971258017239604 -2.0602436472458607 10.606448250728517 -1.9370896233683115 -6.379906910033177 -5.107492797502627 12.556743554619118" Properties=species:S:1:pos:R:3 unique_starting_index=18 config_type=initial n_minim_iter=1 energy=-3603.2851988789657 free_energy=-3603.2851988789657 pbc="T T T"
Si       1.03017780       7.72736669      -0.20932464
Si      -2.73606798      -2.44754513       6.00501986
Si      -5.12381037      -2.46445131      10.87121582
Si      -1.39735062      -2.47319131       9.46926572
Si      -6.27617186      -0.17852772      11.16348766
Si       4.70087596       2.06034121      -1.12725894
Si       2.80496087       1.98209091      -0.42739459
Si      -3.00728268       2.35028745       8.46490457
Si      -3.27901976      -2.90440338      10.14684514
Si      -5.14489066       1.44936591       6.41736719
Si      -1.27259842       1.53622869       2.99485115
Si      -3.93553622       3.02086818       6.77550787
Si      -4.51907820      -2.60999281       6.91233562
Si      -0.42857935       6.86496926      -1.30881960
Si      -0.52227278       2.74112556       4.52437397
Si       1.32029094       7.13646735      -2.25751963
Si      -0.93019359      -3.07087482       5.28795556
Si       0.63919582      -3.49557699       6.56373695
Si       0.47355492       2.49150922       2.77095455
Si      -5.00637942       2.25992257       8.29736053
Si      -1.26452751       3.54102672       2.83880505
Si      -2.95076995      -2.60931864       8.17021128
22
Lattice="5.485373846848513 -0.4676476980554985 -2.297296725333816 -2.0645247608583244 10.598453837663866 -1.9376193233408356 -6.3789930982847185 -5.100350863792385 12.563131833487606" Properties=species:S:1:pos:R:3 unique_starting_index=18 config_type=initial n_minim_iter=2 stress="0.00627931857448048 0.0006367006005127907 0.00017151573961806952 0.0006367006005127907 0.0017582146476903902 -0.0014360894060897128 0.00017151573961806952 -0.0014360894060897128 0.005693837215452425" pbc="T T T"
Si       1.02890487       7.72101734      -0.20837199
Si      -2.73540609      -2.44430330       6.00822734
Si      -5.12342617      -2.45980032      10.87725369
Si      -1.39484697      -2.46960923       9.47518778
Si      -6.27683062      -0.17540497      11.16958418
Si       4.70271571       2.05738268      -1.12644370
Si       2.80610763       1.97979511      -0.42661365
Si      -3.00711566       2.35027319       8.47033750
Si      -3.27756354      -2.89996895      10.15249134
Si      -5.14642256       1.45009148       6.42065153
Si      -1.27289682       1.53587159       2.99674744
Si      -3.93648189       3.02025985       6.77966829
Si      -4.51924398      -2.60589454       6.91578779
Si      -0.43079796       6.85958603      -1.30896871
Si      -0.52199809       2.73987218       4.52784754
Si       1.31869283       7.13019220      -2.25785839
Si      -0.92871335      -3.06757150       5.29105357
Si       0.64256536      -3.49201479       6.56797844
Si       0.47398405       2.48988688       2.77324792
Si      -5.00788543       2.26048367       8.30216105
Si      -1.26540078       3.53876631       2.84093225
Si      -2.94977074      -2.60543173       8.17469110
22
Lattice="5.483189531545367 -0.4696428242787556 -2.2958585912736846 -2.0675963120604246 10.588221359745441 -1.9344071141802548 -6.372412293424875 -5.089386571395727 12.558248597285157" Properties=species:S:1:pos:R:3 unique_starting_index=18 config_type=initial n_minim_iter=3 stress="-0.0018160672614278314 -0.0005087269465910001 0.0017476025363059042 -0.0005087269465910001 -0.006917760531153437 -0.00010810090081580828 0.0017476025363059042 -0.00010810090081580828 -0.0004089347880769066" pbc="T T T"
Si       1.02615164       7.71299881      -0.20590398
Si      -2.73231024      -2.43934953       6.00603251
Si      -5.11876201      -2.45217996      10.87399998
Si      -1.39125837      -2.46370591       9.47273451
Si      -6.27220757      -0.16967034      11.16648699
Si       4.70002415       2.05343045      -1.12442252
Si       2.80469025       1.97681679      -0.42521474
Si      -3.00466670       2.35161840       8.46921193
Si      -3.27343717      -2.89274911      10.14904055
Si      -5.14358603       1.45195210       6.41901786
Si      -1.27227160       1.53596463       2.99642004
Si      -3.93416771       3.02056077       6.77892617
Si      -4.51533125      -2.59958828       6.91335905
Si      -0.43302320       6.85283172      -1.30670193
Si      -0.52161898       2.73912571       4.52808285
Si       1.31540063       7.12193120      -2.25505926
Si      -0.92649069      -3.06259664       5.28918047
Si       0.64565447      -3.48644915       6.56592832
Si       0.47364876       2.48834402       2.77360910
Si      -5.00549019       2.26259548       8.30067175
Si      -1.26550605       3.53630782       2.84141811
Si      -2.94639172      -2.59921453       8.17184787
22
Lattice="5.484745038489825 -0.4752034844482165 -2.297092907716464 -2.074138333724639 10.592864765095598 -1.9249347608476166 -6.372103671916682 -5.0769758588122285 12.55516897920555" Properties=species:S:1:pos:R:3 unique_starting_index=18 config_type=initial n_minim_iter=4 stress="0.001176416494270687 -0.0030260219317683108 -0.0010018286874479982 -0.0030260219317683108 0.0005649680549840534 0.00249274031895188 -0.0010018286874479982 0.00249274031895188 -0.00107144385176633" pbc="T T T"
Si       1.02184388       7.71520229      -0.20037609
Si      -2.73177559      -2.43441284       6.00465930
Si      -5.12070388      -2.44018263      10.87398862
Si      -1.39089623      -2.45627672       9.47133634
Si      -6.27458736      -0.15606084      11.16731662
Si       4.69878618       2.04999581      -1.12283719
Si       2.80481411       1.97548126      -0.42373244
Si      -3.00691001       2.36178284       8.47202656
Si      -3.27444054      -2.88275091      10.14614386
Si      -5.14584837       1.45956006       6.42120224
Si      -1.27400712       1.54051866       2.99773219
Si      -3.93586547       3.02965613       6.78286330
Si      -4.51542367      -2.59138985       6.91368615
Si      -0.43718727       6.85651903      -1.30067987
Si      -0.52387492       2.74589356       4.53118963
Si       1.31133883       7.12166185      -2.24969606
Si      -0.92659457      -3.05878950       5.28716681
Si       0.64983840      -3.48166796       6.56256726
Si       0.47193460       2.49232137       2.77519760
Si      -5.01065089       2.27424544       8.30416013
Si      -1.26854454       3.54021770       2.84497912
Si      -2.94747767      -2.59088495       8.16958343
22
Lattice="5.481657192953743 -0.4703524072689029 -2.296016236809766 -2.066469296146335 10.591037369729598 -1.9305198760663345 -6.369416503356453 -5.085965594074755 12.559732429849193" Properties=species:S:1:pos:R:3 unique_starting_index=18 config_type=initial n_minim_iter=5 stress="-0.0018778429808162587 0.00033985992818272293 0.0006023155078537339 0.00033985992818272293 0.0004951964346371843 0.0002692606843173061 0.0006023155078537339 0.0002692606843173061 0.0006896367660635745" pbc="T T T"
Si       1.02702866       7.71466329      -0.20382235
Si      -2.73043738      -2.43913425       6.00691727
Si      -5.11774549      -2.44753645      10.87796307
Si      -1.38916259      -2.46149375       9.47546649
Si      -6.26881039      -0.16411982      11.16909476
Si       4.69744548       2.05316140      -1.12217598
Si       2.80539351       1.97730261      -0.42387933
Si      -3.00124467       2.35583496       8.47317917
Si      -3.27274611      -2.88839083      10.14938920
Si      -5.14084971       1.45236219       6.42138718
Si      -1.27161735       1.53822196       2.99771122
Si      -3.92899694       3.02325158       6.78303906
Si      -4.51363068      -2.59648095       6.91655519
Si      -0.43269903       6.85651628      -1.30401018
Si      -0.51991017       2.74382742       4.53176355
Si       1.31509850       7.12202398      -2.25337322
Si      -0.92750220      -3.06116079       5.29021994
Si       0.65101192      -3.48270628       6.56639451
Si       0.47458128       2.49186086       2.77508139
Si      -5.00555597       2.26733551       8.30494984
Si      -1.26483975       3.53721841       2.84411381
Si      -2.94595934      -2.59540436       8.17223773
22
Lattice="5.48597823495078 -0.4693530344289494 -2.295704882736619 -2.067145050984252 10.584671738383383 -1.9313166627879232 -6.376877617346279 -5.085855951705108 12.554423437565758" Properties=species:S:1:pos:R:3 unique_starting_index=18 config_type=initial n_minim_iter=6 stress="0.0033615717329027657 0.0014757385135446505 -0.0024627576919647987 0.0014757385135446505 -0.00289946077889461 -0.0003439516016232423 -0.0024627576919647987 -0.0003439516016232423 -0.0047019672399061215" pbc="T T T"
Si       1.02820335       7.70910453      -0.20611404
Si      -2.73368984      -2.43993397       6.00395381
Si      -5.12406490      -2.44834836      10.87345712
Si      -1.39309137      -2.46264133       9.47068387
Si      -6.27571247      -0.16622024      11.16314514
Si       4.70041198       2.05168797      -1.12277594
Si       2.80747974       1.97614368      -0.42520383
Si      -3.00563273       2.35205278       8.46785401
Si      -3.27794483      -2.88843748      10.14433692
Si      -5.14587658       1.44956473       6.41821237
Si      -1.27288859       1.53599964       2.99591673
Si      -3.93224577       3.01843423       6.77889003
Si      -4.51893702      -2.59564959       6.91404526
Si      -0.43286600       6.85314437      -1.30451568
Si      -0.52038463       2.74117832       4.52831243
Si       1.31685114       7.11708461      -2.25457532
Si      -0.93031763      -3.06043671       5.28807801
Si       0.65170895      -3.48111292       6.56292559
Si       0.47469575       2.49016402       2.77285266
Si      -5.01146767       2.26413494       8.30041185
Si      -1.26652862       3.53397814       2.84185866
Si      -2.94952783      -2.59490062       8.16813715
22
Lattice="5.483399076507453 -0.47440511388501283 -2.2927586288508675 -2.078903441784548 10.582988984502544 -1.9355412771249574 -6.3614392917459694 -5.079772508599241 12.55553454725532" Properties=species:S:1:pos:R:3 unique_starting_index=18 config_type=initial n_minim_iter=7 stress="-7.462015835515672e-05 -0.0027730476741060985 0.0017341253687606505 -0.0027730476741060985 0.0006327819914141468 -0.002252919744518669 0.0017341253687606505 -0.002252919744518669 -0.00325353613914892" pbc="T T T"
Si       1.02035499       7.70283387      -0.20814435
Si      -2.72666023      -2.44004926       6.00386458
Si      -5.11322412      -2.44331316      10.87620141
Si      -1.38615907      -2.46316514       9.47440869
Si      -6.26629955      -0.16089131      11.16188753
Si       4.69447014       2.04430566      -1.12005281
Si       2.80404051       1.97225739      -0.42540061
Si      -3.00357347       2.35185830       8.46799319
Si      -3.26848979      -2.88407860      10.14650562
Si      -5.14176429       1.45260864       6.41681141
Si      -1.27096374       1.53434598       2.99638948
Si      -3.92715566       3.01611875       6.77776875
Si      -4.51180709      -2.58830487       6.91397141
Si      -0.44174682       6.85372417      -1.30631342
Si      -0.51742875       2.74020909       4.52870822
Si       1.30754583       7.11026449      -2.25749992
Si      -0.92557545      -3.05924829       5.29066526
Si       0.66464465      -3.47913442       6.56655837
Si       0.47463417       2.48947265       2.77453145
Si      -5.00798721       2.26785472       8.29956537
Si      -1.26888764       3.53304989       2.84173489
Si      -2.93887551      -2.58978380       8.16886416
22
Lattice="5.481951042792236 -0.4742278721646042 -2.297699719937625 -2.073209240010753 10.574000668374188 -1.9264094340534021 -6.366284502740933 -5.067303607421187 12.564820424258444" Properties=species:S:1:pos:R:3 unique_starting_index=18 config_type=initial n_minim_iter=8 stress="-0.0028404709083415434 -0.0009921815414644052 -0.002938196729961264 -0.0009921815414644052 -0.0013529141150273427 -4.6558716244018356e-05 -0.002938196729961264 -4.6558716244018356e-05 0.0007425202602273702" pbc="T T T"
Si       1.02347584       7.69710382      -0.20197379
Si      -2.72959538      -2.43562508       6.00774247
Si      -5.11703428      -2.43295712      10.88710697
Si      -1.39193323      -2.45347463       9.48157915
Si      -6.26892349      -0.15214695      11.17406719
Si       4.69307637       2.04251202      -1.12096150
Si       2.80355389       1.97129119      -0.42565032
Si      -3.00657095       2.35679994       8.47899217
Si      -3.27306766      -2.87284905      10.15484848
Si      -5.14216565       1.45550967       6.42615502
Si      -1.27069125       1.53478198       3.00122650
Si      -3.92574497       3.01697206       6.78811363
Si      -4.51448022      -2.57997362       6.91971392
Si      -0.43906445       6.84940311      -1.30082162
Si      -0.51664212       2.74303242       4.53519078
Si       1.31060770       7.10239272      -2.25415425
Si      -0.92968045      -3.05277574       5.29334188
Si       0.66254919      -3.46912187       6.56888817
Si       0.47453437       2.49155758       2.77969106
Si      -5.00922962       2.27311972       8.31123965
Si      -1.26871026       3.53300930       2.84879092
Si      -2.94138347      -2.57991303       8.17422142
22
Lattice="5.482491124492805 -0.47315609409626763 -2.2937434876180767 -2.0694736060048027 10.570377883550846 -1.9178859931478773 -6.36319128492089 -5.059303303970685 12.552835955711963" Properties=species:S:1:pos:R:3 unique_starting_index=18 config_type=initial n_minim_iter=9 stress="-0.0005279516411343658 0.0010316247898514745 0.0012115901301961744 0.0010316247898514745 1.5625956541464614e-05 0.0025313820731186843 0.0012115901301961744 0.0025313820731186843 -0.0024132070895225076" pbc="T T T"
Si       1.02874418       7.69582826      -0.19430839
Si      -2.72877256      -2.43320483       6.00171853
Si      -5.11331142      -2.42534008      10.87996221
Si      -1.38811959      -2.44544487       9.47642660
Si      -6.26431699      -0.14538268      11.16656708
Si       4.69516377       2.04294313      -1.11491284
Si       2.80529097       1.97182775      -0.42192562
Si      -3.00185037       2.36207637       8.47705523
Si      -3.26891404      -2.86420284      10.14838018
Si      -5.13938587       1.45772120       6.42231536
Si      -1.26794494       1.53575904       3.00094713
Si      -3.91943316       3.01863759       6.78599067
Si      -4.51331522      -2.57418659       6.91267882
Si      -0.43672155       6.84849326      -1.29482866
Si      -0.51081411       2.74726893       4.53565980
Si       1.31335895       7.09870050      -2.24683697
Si      -0.92858109      -3.04841919       5.28903999
Si       0.66700999      -3.46124616       6.56438823
Si       0.47835008       2.49490531       2.78208803
Si      -5.00481942       2.27817601       8.30775803
Si      -1.26557980       3.53444965       2.85077484
Si      -2.93778366      -2.57234199       8.16688308
22
Lattice="5.487218099493114 -0.4712100379747681 -2.294262917660053 -2.071106229219427 10.560051467883252 -1.9248700047683391 -6.369386512596522 -5.061724461993782 12.558835758803236" Properties=species:S:1:pos:R:3 unique_starting_index=18 config_type=initial n_minim_iter=10 stress="-0.0002027888782483093 0.00017605346063276527 5.3264278671385335e-05 0.00017605346063276527 -0.00041711759229605584 -0.0009144997263432293 5.3264278671385335e-05 -0.0009144997263432293 -0.0008802765862654811" pbc="T T T"
Si       1.03235478       7.68065641      -0.19947730
Si      -2.73682378      -2.44324112       6.00171442
Si      -5.11978137      -2.42611786      10.89071105
Si      -1.39353677      -2.44645988       9.48040145
Si      -6.27307303      -0.15100807      11.16748252
Si       4.69863396       2.03592261      -1.11027183
Si       2.80606105       1.96654059      -0.42079484
Si      -3.01164954       2.35137070       8.47867626
Si      -3.27008008      -2.86031305      10.15656651
Si      -5.14542928       1.44838468       6.42317655
Si      -1.26677105       1.52833644       2.99899799
Si      -3.91475114       2.99980866       6.78046672
Si      -4.51717463      -2.56384205       6.91701419
Si      -0.43802747       6.84666801      -1.30031544
Si      -0.50489092       2.74640426       4.53110036
Si       1.31247258       7.08092116      -2.25374986
Si      -0.92963554      -3.04936771       5.29372152
Si       0.67300723      -3.45416360       6.56658044
Si       0.47850417       2.49420409       2.78292342
Si      -5.01209326       2.27298437       8.30803462
Si      -1.26929357       3.52702602       2.84843731
Si      -2.93878230      -2.56437109       8.16271172
22
Lattice="5.488767159805193 -0.47260263945459613 -2.293428524009595 -2.072228612192769 10.56019030583417 -1.919054091989073 -6.369854228393016 -5.055373828571488 12.553074932369725" Properties=species:S:1:pos:R:3 unique_starting_index=18 config_type=initial n_minim_iter=11 stress="0.0006787511787641193 0.0002415992175660368 0.00019160964268847443 0.0002415992175660368 0.00040802769493267075 -0.00021436128964758528 0.00019160964268847443 -0.00021436128964758528 -0.00020154684954453082" pbc="T T T"
Si       1.03421315       7.67721675      -0.19529256
Si      -2.73821207      -2.44538009       5.99649838
Si      -5.11971294      -2.41865208      10.89038600
Si      -1.39485190      -2.44058891       9.47775182
Si      -6.27610821      -0.14235872      11.16366931
Si       4.70030547       2.03186339      -1.10659594
Si       2.80622218       1.96399212      -0.41620431
Si      -3.01354806       2.35430938       8.48032051
Si      -3.26893232      -2.85006116      10.15338082
Si      -5.14775060       1.45027212       6.42250310
Si      -1.26455029       1.52917614       2.99704020
Si      -3.91105941       2.99715881       6.77686021
Si      -4.52150542      -2.55275613       6.91459818
Si      -0.43887084       6.84761348      -1.29697436
Si      -0.50096849       2.75220209       4.53086301
Si       1.31146701       7.07349558      -2.25034357
Si      -0.92626084      -3.04765718       5.29166001
Si       0.67684031      -3.44675397       6.56463215
Si       0.47849570       2.49669305       2.78408119
Si      -5.01505630       2.27921787       8.30607239
Si      -1.27226236       3.52922786       2.84907835
Si      -2.93734945      -2.55401532       8.15818137
22
Lattice="5.491944930458646 -0.46938131378309617 -2.288478983523865 -2.0676838298905644 10.561634883386642 -1.9163499906629025 -6.372442243060081 -5.059115247230988 12.53659016487484" Properties=species:S:1:pos:R:3 unique_starting_index=18 config_type=initial n_minim_iter=12 stress="0.0016115018580070872 0.0011314269328919304 0.000328316276631536 0.0011314269328919304 0.0008203886415401807 -0.0003845379992575168 0.000328316276631536 -0.0003845379992575168 0.0014810885527705108" pbc="T T T"
Si       1.04292150       7.67414033      -0.19569656
Si      -2.74198899      -2.45427368       5.98828161
Si      -5.11818072      -2.41899871      10.88098099
Si      -1.39280698      -2.43853798       9.46731195
Si      -6.27971448      -0.14362089      11.14840248
Si       4.70446901       2.03074285      -1.10332376
Si       2.80901382       1.96303958      -0.41112893
Si      -3.01128113       2.35130954       8.47582078
Si      -3.26917756      -2.84390189      10.14262509
Si      -5.15164925       1.44790636       6.41498037
Si      -1.25942660       1.52946462       2.98998683
Si      -3.90422237       2.98717219       6.76401402
Si      -4.52251357      -2.54400703       6.90358081
Si      -0.43770193       6.85081665      -1.29421922
Si      -0.49346165       2.75709432       4.52595351
Si       1.31678358       7.06669785      -2.24878236
Si      -0.92445830      -3.04968207       5.28752479
Si       0.68096577      -3.44091703       6.56235328
Si       0.48247806       2.49795008       2.78033314
Si      -5.01547863       2.27911663       8.29404962
Si      -1.27437647       3.53065475       2.84501390
Si      -2.93857488      -2.54689736       8.14867855
22
Lattice="5.499034977693196 -0.4636384496111842 -2.2830749626667397 -2.060764954095877 10.565467596251382 -1.9162149247393878 -6.381295933288695 -5.069619012793322 12.520511642864115" Properties=species:S:1:pos:R:3 unique_starting_index=18 config_type=initial n_minim_iter=13 stress="0.0034724851483084744 0.0011505658294021603 -0.0001031830584289654 0.0011505658294021603 0.0005320657954550934 -0.0007310999364933098 -0.0001031830584289654 -0.0007310999364933098 0.005699186464841564" pbc="T T T"
Si       1.05734300       7.66863645      -0.20129981
Si      -2.74344383      -2.47092786       5.97885705
Si      -5.11892248      -2.42332651      10.87388456
Si      -1.39096842      -2.43928787       9.45654193
Si      -6.29054212      -0.14934498      11.13175315
Si       4.70967734       2.03008730      -1.10309977
Si       2.81380614       1.96228407      -0.40753274
Si      -3.01456325       2.34415353       8.47412126
Si      -3.27079245      -2.83706752      10.13617399
Si      -5.16290634       1.44386815       6.40760476
Si      -1.25197183       1.53015283       2.98003181
Si      -3.89679093       2.96838424       6.74825090
Si      -4.52907179      -2.53232172       6.89801605
Si      -0.43177967       6.85662284      -1.29321532
Si      -0.48602489       2.76507154       4.51773293
Si       1.32367317       7.05623562      -2.24765955
Si      -0.92461056      -3.05502980       5.28589802
Si       0.68342582      -3.43383824       6.55980189
Si       0.48972152       2.49880212       2.77202121
Si      -5.01301121       2.27530499       8.28033143
Si      -1.27806442       3.53043558       2.83947043
Si      -2.94597072      -2.53788054       8.14158559
22
Lattice="5.501645626517948 -0.4634146513834157 -2.283091345178099 -2.0589820290623484 10.56623682454874 -1.9108214195052347 -6.386151363718464 -5.066423305913908 12.516111914057433" Properties=species:S:1:pos:R:3 unique_starting_index=18 config_type=initial n_minim_iter=14 stress="0.0027486288377368013 0.0010094246918303086 -0.00033891772286050284 0.0010094246918303086 0.00027407315332648096 -0.00020733014553388812 -0.00033891772286050284 -0.00020733014553388812 0.005184395530583501" pbc="T T T"
Si       1.06217157       7.66731011      -0.19841768
Si      -2.74560732      -2.47214539       5.97760680
Si      -5.12189440      -2.41896997      10.87224071
Si      -1.39398272      -2.43613973       9.45298382
Si      -6.29553983      -0.14568973      11.12935105
Si       4.71028212       2.03095045      -1.10214130
Si       2.81421687       1.96251125      -0.40586601
Si      -3.01641057       2.34726206       8.47643857
Si      -3.27135564      -2.83050805      10.13197130
Si      -5.16786169       1.44677806       6.40734698
Si      -1.25109905       1.53185287       2.97856918
Si      -3.89735713       2.96725093       6.74714978
Si      -4.53059597      -2.52628933       6.89664126
Si      -0.42953186       6.85806929      -1.28995152
Si      -0.48502526       2.76893212       4.51788072
Si       1.32537737       7.05310877      -2.24337953
Si      -0.92566790      -3.05429626       5.28423785
Si       0.68218143      -3.42927376       6.55736210
Si       0.49076324       2.50054342       2.77101502
Si      -5.01461935       2.27887463       8.27894241
Si      -1.27800723       3.53042013       2.83845416
Si      -2.94843457      -2.53155018       8.14282287
22
Lattice="5.502235306409676 -0.4651605457804255 -2.284224847044006 -2.0603986382632358 10.566940749154098 -1.9067111439619464 -6.387332502885049 -5.061258168969427 12.516196046076162" Properties=species:S:1:pos:R:3 unique_starting_index=18 config_type=initial n_minim_iter=15 stress="0.0007937768286542771 0.0002821687026224798 -0.0004664709192903722 0.0002821687026224798 -3.5263821207897186e-05 9.777221571025746e-05 -0.0004664709192903722 9.777221571025746e-05 0.0016383729111996406" pbc="T T T"
Si       1.06409605       7.66448710      -0.19377350
Si      -2.74538125      -2.47185402       5.97800462
Si      -5.12313825      -2.41322687      10.87323233
Si      -1.39350256      -2.43295156       9.45095322
Si      -6.29899108      -0.14142784      11.13087746
Si       4.70768081       2.03065957      -1.10280330
Si       2.81114133       1.96287019      -0.40645982
Si      -3.01779069       2.35164202       8.48122111
Si      -3.27336727      -2.82438099      10.13174815
Si      -5.17147800       1.45047409       6.40846042
Si      -1.25167644       1.53199944       2.97774850
Si      -3.89903517       2.96771942       6.74798824
Si      -4.53002174      -2.51970829       6.89939594
Si      -0.43045745       6.85829726      -1.28670270
Si      -0.48567816       2.77235442       4.51845739
Si       1.32548980       7.05006064      -2.24177602
Si      -0.92328842      -3.05368751       5.28302952
Si       0.68101293      -3.42566188       6.55762823
Si       0.48940244       2.50163271       2.77169565
Si      -5.01600666       2.28321112       8.28229437
Si      -1.27745003       3.53128391       2.83764570
Si      -2.94974000      -2.52437279       8.14628633
22
Lattice="5.504236223014288 -0.47025698237597485 -2.2849817379517328 -2.068381948839068 10.568116722857006 -1.9013161530591807 -6.386745066179087 -5.050946537533206 12.513867555017248" Properties=species:S:1:pos:R:3 unique_starting_index=18 config_type=initial n_minim_iter=16 stress="-0.0003531140417685581 -0.0005727645293648538 -0.00048164027443935235 -0.0005727645293648538 7.461960290411816e-05 0.0003255166860311839 -0.00048164027443935235 0.0003255166860311839 -0.0017388905534223302" pbc="T T T"
Si       1.06065824       7.66071592      -0.18825431
Si      -2.74461689      -2.46877452       5.97710698
Si      -5.12339323      -2.40371156      10.87132427
Si      -1.39253594      -2.42944397       9.44928473
Si      -6.30304807      -0.13038135      11.13029366
Si       4.70567720       2.02721058      -1.10420760
Si       2.80876584       1.96189930      -0.40663172
Si      -3.02096529       2.35905384       8.48432182
Si      -3.27447353      -2.81609950      10.13098121
Si      -5.17640961       1.45682069       6.40899716
Si      -1.25501426       1.53359125       2.97585168
Si      -3.90313487       2.97191868       6.74903422
Si      -4.52750455      -2.51057049       6.89980174
Si      -0.43327455       6.85784429      -1.28253716
Si      -0.48766448       2.77582436       4.51916014
Si       1.32093261       7.04640182      -2.23852873
Si      -0.92005341      -3.05191052       5.28085322
Si       0.68170037      -3.42216447       6.55687529
Si       0.48641005       2.50268374       2.77253104
Si      -5.02005601       2.29148184       8.28393117
Si      -1.27957893       3.53346448       2.83761723
Si      -2.94998150      -2.51496823       8.14672971
22
Lattice="5.505209390611836 -0.47195962696824334 -2.2852681234496033 -2.071546560847672 10.563505413067002 -1.899440162379742 -6.386350907667409 -5.0445038700997324 12.5139828107721" Properties=species:S:1:pos:R:3 unique_starting_index=18 config_type=initial n_minim_iter=17 stress="-0.0010388714900053668 -0.0007048224080557975 -0.00013221197681336828 -0.0007048224080557975 -0.00024771897539818205 0.00025471498315439363 -0.00013221197681336828 0.00025471498315439363 -0.004057620377559369" pbc="T T T"
Si       1.05996332       7.65338182      -0.18523820
Si      -2.74325428      -2.46744961       5.97702352
Si      -5.12352482      -2.39827493      10.87078805
Si      -1.39101792      -2.42794953       9.45005633
Si      -6.30476285      -0.12743279      11.13043678
Si       4.70466582       2.02494550      -1.10521161
Si       2.80813830       1.96152461      -0.40604771
Si      -3.02204248       2.36151215       8.48730648
Si      -3.27506595      -2.81098079      10.13215042
Si      -5.18028566       1.45810459       6.40965494
Si      -1.25814360       1.53353741       2.97314987
Si      -3.90401497       2.97150513       6.75029395
Si      -4.52637478      -2.50442334       6.90087907
Si      -0.43401669       6.85646919      -1.27998926
Si      -0.48711437       2.77547499       4.51956183
Si       1.31970035       7.04058226      -2.23768785
Si      -0.91758321      -3.05056592       5.28045637
Si       0.68135832      -3.41848668       6.55781904
Si       0.48439320       2.50213272       2.77304305
Si      -5.02131531       2.29428246       8.28488570
Si      -1.27990393       3.53198705       2.83699132
Si      -2.94907349      -2.50775243       8.14852915
22
Lattice="5.505339418183515 -0.47478213735175645 -2.285284622982785 -2.0767532236534443 10.558762108971527 -1.8977691286650065 -6.382768011339653 -5.036222626796751 12.515028597078825" Properties=species:S:1:pos:R:3 unique_starting_index=18 config_type=initial n_minim_iter=18 stress="-0.0013206690169668158 -0.0006374924801358471 0.00014402465913753153 -0.0006374924801358471 1.0338209378799881e-05 0.00011952090185414289 0.00014402465913753153 0.00011952090185414289 -0.004230846745485181" pbc="T T T"
Si       1.05772457       7.64563556      -0.18291644
Si      -2.74073959      -2.46560935       5.97825337
Si      -5.12234928      -2.39121346      10.87102675
Si      -1.38788916      -2.42613391       9.45258622
Si      -6.30485224      -0.12139668      11.13129307
Si       4.70391228       2.02097488      -1.10483235
Si       2.80645187       1.96115701      -0.40469975
Si      -3.02280831       2.36459523       8.49094213
Si      -3.27291082      -2.80494103      10.13314999
Si      -5.18414751       1.46016475       6.41031385
Si      -1.25985344       1.53224676       2.97157991
Si      -3.90393581       2.97191516       6.75183774
Si      -4.52305105      -2.49730278       6.90255581
Si      -0.43734435       6.85382867      -1.27771307
Si      -0.48720693       2.77603282       4.51985838
Si       1.31718946       7.03432100      -2.23773226
Si      -0.91441606      -3.04894895       5.28138760