22
Lattice="5.246681473149924 -0.48546799953749575 -1.8452044513719597 -1.5951525246285692 10.116708198429038 -0.7512853118509015 -5.241656283233451 -3.670970729487578 11.699790250281454" Properties=species:S:1:pos:R:3 unique_starting_index=18 config_type=initial n_minim_iter=1 energy=-3593.170229600512 free_energy=-3593.170229600512 pbc="T T T"
Si       1.48286393       8.48899384       0.03257410
Si      -1.97016423      -1.12296289       6.04835621
Si      -4.29381245      -1.88316377      10.58434830
Si      -0.68796354      -1.24560490       9.37823947
Si      -5.22417313       1.46207729      11.33551018
Si       4.07012936       1.98538659      -0.21750918
Si       2.46192622       0.37704743      -0.17460744
Si      -1.80036443       2.73555523       8.76968345
Si      -2.41109739      -2.12422186       9.93737354
Si      -3.31472098       2.17659760       6.72369547
Si       0.06501811       1.30379713       4.21016670
Si      -2.65871720       4.06786416       6.64930222
Si      -3.89108362      -1.68022280       6.81921445
Si       0.01474367       7.13167598      -0.22194866
Si       0.60911913       3.19227696       4.69173476
Si       1.56486511       6.68563347      -1.41854977
Si      -0.61981704      -0.80924882       4.30438651
Si       1.36260916      -3.06502028       6.81107690
Si       0.47553554       2.65376468       2.76989551
Si      -3.62297011       3.40744593       8.27506729
Si      -0.84806203       3.96594545       3.51372076
Si      -2.24796165      -1.61856210       7.98305956
22
Lattice="5.252716425867333 -0.4850190905804263 -1.8499387155467537 -1.5933000154842847 10.117191544729485 -0.7453167145843975 -5.25363019299822 -3.6661453653168126 11.712528744855232" Properties=species:S:1:pos:R:3 unique_starting_index=18 config_type=initial n_minim_iter=2 stress="0.01096091541715502 -0.0008847934867869244 0.00016515847324246994 -0.0008847934867869244 0.006873771910995405 -0.0013800409573527695 0.00016515847324246994 -0.0013800409573527695 0.010968204892586961" pbc="T T T"
Si       1.48705781       8.49074679       0.03695999
Si      -1.97539116      -1.12025570       6.05510287
Si      -4.30391420      -1.87834249      10.59660188
Si      -0.69337411      -1.24048007       9.38766260
Si      -5.23440405       1.46761309      11.35086357
Si       4.07464263       1.98662612      -0.21863013
Si       2.46468797       0.37776919      -0.17568951
Si      -1.80525259       2.74056367       8.78138443
Si      -2.41831641      -2.11918360       9.94823145
Si      -3.32087505       2.17966402       6.73359694
Si       0.06354848       1.30674448       4.21530732
Si      -2.66301898       4.07191791       6.65992279
Si      -3.89866609      -1.67761902       6.82741283
Si       0.01694334       7.13220425      -0.21810428
Si       0.60864851       3.19585705       4.69878781
Si       1.56908536       6.68625287      -1.41689893
Si      -0.62277780      -0.80701543       4.30877867
Si       1.35944288      -3.06098830       6.81551546
Si       0.47586485       2.65574463       2.77406943
Si      -3.62990842       3.41166212       8.28793985
Si      -0.84947219       3.96816710       3.52021637
Si      -2.25459842      -1.61472166       7.99155322
22
Lattice="5.251661000803852 -0.4834779144728252 -1.8535372565484336 -1.586241731217605 10.105869638007546 -0.7330957009354111 -5.261896595473308 -3.6531637860750332 11.70849357676085" Properties=species:S:1:pos:R:3 unique_starting_index=18 config_type=initial n_minim_iter=3 stress="0.0025686680306163945 0.001078896125555618 -0.003029913415225963 0.001078896125555618 -0.0049372692874329925 0.0036398916402723175 -0.003029913415225963 0.0036398916402723175 0.00453932416511854" pbc="T T T"
Si       1.49157310       8.48375497       0.04503665
Si      -1.97957213      -1.11416926       6.05353136
Si      -4.31081837      -1.86745550      10.59428154
Si      -0.70024201      -1.22984233       9.38350101
Si      -5.23949106       1.47582368      11.35234952
Si       4.07362450       1.98649131      -0.21960127
Si       2.46425635       0.37874826      -0.17690654
Si      -1.80861968       2.74632166       8.78248096
Si      -2.42449925      -2.10745785       9.94542045
Si      -3.32375277       2.18269251       6.73606019
Si       0.06152870       1.31070980       4.21511290
Si      -2.66378225       4.07425884       6.66395240
Si      -3.90257534      -1.67101305       6.82644320
Si       0.02121944       7.12439410      -0.21091263
Si       0.60738718       3.19849828       4.70108479
Si       1.57294824       6.67947826      -1.41041775
Si      -0.62613120      -0.80204336       4.30696943
Si       1.35166497      -3.04987737       6.80837169
Si       0.47595650       2.65621257       2.77573941
Si      -3.63291692       3.41488099       8.29186529
Si      -0.84942165       3.96716129       3.52388518
Si      -2.26058083      -1.60593720       7.98857908
22
Lattice="5.249852368665337 -0.48241375217832316 -1.8511838244627818 -1.5826417648167654 10.117714554526337 -0.7324156762808401 -5.260036444118255 -3.65907159625289 11.697394152687233" Properties=species:S:1:pos:R:3 unique_starting_index=18 config_type=initial n_minim_iter=4 stress="0.0017608472775515174 0.002896496132456738 -0.0010358212062532193 0.002896496132456738 0.005012871874879654 0.0033745817303813155 -0.0010358212062532193 0.0033745817303813155 -0.0012651606502030574" pbc="T T T"
Si       1.49414949       8.49480473       0.04543198
Si      -1.97867966      -1.11666149       6.04819800
Si      -4.30852318      -1.87046263      10.58435931
Si      -0.69884931      -1.23179055       9.37456273
Si      -5.23615166       1.47595245      11.34142067
Si       4.07186171       1.98947633      -0.21925376
Si       2.46397713       0.37975768      -0.17574997
Si      -1.80478817       2.74912886       8.77409796
Si      -2.42169393      -2.10935339       9.93745454
Si      -3.32233461       2.18414011       6.73013896
Si       0.06275811       1.31353196       4.21123660
Si      -2.66011141       4.07950342       6.65802802
Si      -3.90080407      -1.67422631       6.82017917
Si       0.02380245       7.13272861      -0.21158401
Si       0.60940952       3.20348276       4.69816922
Si       1.57349015       6.68852909      -1.40872250
Si      -0.62585414      -0.80324115       4.30309927
Si       1.35023609      -3.05271423       6.80142728
Si       0.47842923       2.65955365       2.77385797
Si      -3.63097386       3.41734220       8.28422011
Si      -0.84773703       3.97072388       3.52052063
Si      -2.25983344      -1.60852556       7.98109606
22
Lattice="5.249235832209699 -0.48358484399107343 -1.8510153829415714 -1.5880345735439199 10.111480340858874 -0.7401531203825779 -5.2557900564465605 -3.66172782639798 11.705017975526479" Properties=species:S:1:pos:R:3 unique_starting_index=18 config_type=initial n_minim_iter=5 stress="0.0021151544077534826 0.0011566915556596347 0.0010895249932549177 0.0011566915556596347 -0.002955871008577319 -0.001405601537501788 0.0010895249932549177 -0.001405601537501788 0.0021965832108033407" pbc="T T T"
Si       1.48947094       8.48763105       0.03964460
Si      -1.97710082      -1.11963831       6.05177933
Si      -4.30507449      -1.87375227      10.59026069
Si      -0.69638934      -1.23751113       9.37930407
Si      -5.23487294       1.46978770      11.34497611
Si       4.06922572       1.98520698      -0.22032830
Si       2.46372537       0.37790299      -0.17494555
Si      -1.80381059       2.74172885       8.77560715
Si      -2.41808143      -2.11226767       9.94417454
Si      -3.32296830       2.17984535       6.73194480
Si       0.06276231       1.31069369       4.21228156
Si      -2.66066440       4.07347464       6.65845606
Si      -3.89843402      -1.67570450       6.82423231
Si       0.02013264       7.12693768      -0.21755646
Si       0.60860513       3.19823270       4.69915325
Si       1.56872232       6.68395626      -1.41401732
Si      -0.62499128      -0.80543623       4.30571254
Si       1.35197150      -3.05550938       6.80635889
Si       0.47863324       2.65537482       2.77378677
Si      -3.63221209       3.41003620       8.28531636
Si      -0.84964283       3.96449236       3.51898809
Si      -2.25785548      -1.61186017       7.98613236
22
Lattice="5.248440782352612 -0.48909825661560674 -1.8553038141625866 -1.5962280229512862 10.11447280330545 -0.7364427664666896 -5.25780245074122 -3.654131193626736 11.711261444839476" Properties=species:S:1:pos:R:3 unique_starting_index=18 config_type=initial n_minim_iter=6 stress="-0.003166824849651841 -0.0031465396693083486 -0.002631567316114637 -0.0031465396693083486 5.5376679936875384e-05 -7.419583727211368e-05 -0.002631567316114637 -7.419583727211368e-05 0.003101290023533179" pbc="T T T"
Si       1.48089207       8.48772798       0.04102167
Si      -1.97937945      -1.11716362       6.05482112
Si      -4.30765440      -1.86646778      10.59588541
Si      -0.70041221      -1.23485253       9.38135316
Si      -5.24164293       1.47744867      11.35210277
Si       4.06475263       1.98080987      -0.22213501
Si       2.46279608       0.37543146      -0.17585515
Si      -1.81105309       2.74648761       8.77919235
Si      -2.42203134      -2.10658786       9.94893238
Si      -3.32856200       2.18567827       6.73736801
Si       0.05856386       1.31350798       4.21385665
Si      -2.66751686       4.07839263       6.66453356
Si      -3.89983013      -1.67044951       6.82839539
Si       0.01348636       7.12833716      -0.21618176
Si       0.60232851       3.20082036       4.70182521
Si       1.56221957       6.68348016      -1.41423511
Si      -0.62722185      -0.80390310       4.30728509
Si       1.34906923      -3.05460621       6.80620393
Si       0.47564319       2.65639920       2.77557437
Si      -3.63956441       3.41524023       8.29155362
Si      -0.85576015       3.96515329       3.52136120
Si      -2.26082088      -1.60796400       7.99038777
22
Lattice="5.256052225802974 -0.4925105659545151 -1.856967728991444 -1.6019154884180968 10.106904766556156 -0.7260122711993466 -5.267199041836026 -3.638266296052337 11.70575241665904" Properties=species:S:1:pos:R:3 unique_starting_index=18 config_type=initial n_minim_iter=7 stress="0.0034699131099816304 -0.002675506450762936 0.0030971981454951873 -0.002675506450762936 -0.004410315810469448 0.0025063408850127915 0.0030971981454951873 0.0025063408850127915 -0.0036669632333830022" pbc="T T T"
Si       1.48006938       8.48126909       0.04853129
Si      -1.98417578      -1.11294019       6.05295833
Si      -4.31351140      -1.85129061      10.59176521
Si      -0.70070231      -1.22603784       9.37365208
Si      -5.25349817       1.48730117      11.35009706
Si       4.06725658       1.97485081      -0.21919150
Si       2.46765311       0.37379032      -0.17439363
Si      -1.81688553       2.75407277       8.77512082
Si      -2.42996344      -2.09213482       9.94623435
Si      -3.33766444       2.19353486       6.73993990
Si       0.05575930       1.32110488       4.21349780
Si      -2.67404785       4.08225015       6.67098272
Si      -3.90776075      -1.66131068       6.82482216
Si       0.01068035       7.12311823      -0.21121974
Si       0.60075453       3.20681243       4.70466387
Si       1.56049496       6.67747192      -1.40990917
Si      -0.63043517      -0.79939569       4.30536730
Si       1.34783211      -3.04391103       6.79920886
Si       0.47927574       2.65857604       2.77915828
Si      -3.64857384       3.41815711       8.29386266
Si      -0.86058441       3.95924840       3.52249256
Si      -2.26545734      -1.59872713       7.98929638
22
Lattice="5.255318663149428 -0.4892236875717611 -1.862166750952265 -1.595085594577502 10.106830646725983 -0.7273444934097525 -5.276824065602594 -3.643978292783612 11.717307762315464" Properties=species:S:1:pos:R:3 unique_starting_index=18 config_type=initial n_minim_iter=8 stress="-0.004800427124441352 0.004181548886025207 -7.772998772127023e-05 0.004181548886025207 -0.0018856986575001727 -0.0023599607386821262 -7.772998772127023e-05 -0.0023599607386821262 0.0008613333992919287" pbc="T T T"
Si       1.48446896       8.48281832       0.04545584
Si      -1.98934790      -1.11713610       6.05847208
Si      -4.32048709      -1.85496880      10.60145331
Si      -0.70730161      -1.22939042       9.37781586
Si      -5.26030732       1.48137334      11.35953275
Si       4.06646134       1.97594798      -0.22133931
Si       2.46798027       0.37503189      -0.17553044
Si      -1.82179424       2.75168980       8.77837507
Si      -2.43935666      -2.09447296       9.95450435
Si      -3.34165601       2.19081879       6.74637323
Si       0.05225284       1.32230199       4.21577837
Si      -2.67566422       4.07966314       6.67799149
Si      -3.91325996      -1.66507878       6.83157111
Si       0.01498112       7.12334680      -0.21410187
Si       0.59877136       3.20835909       4.70651704
Si       1.56368973       6.67957468      -1.41420678
Si      -0.63483098      -0.80096465       4.30845782
Si       1.33920315      -3.04353805       6.80215142
Si       0.48063265       2.65990486       2.78050466
Si      -3.65200708       3.41272237       8.30132671
Si      -0.86133749       3.95453101       3.52320063
Si      -2.27187186      -1.60197416       7.99684403
22
Lattice="5.272161153913071 -0.5046773024745304 -1.8760636250945144 -1.6219113453842537 10.110789399641153 -0.7110332823776969 -5.311985490438523 -3.6183089624282636 11.715790779983937" Properties=species:S:1:pos:R:3 unique_starting_index=18 config_type=initial n_minim_iter=9 stress="-0.0003528304380458201 -8.861425817959443e-05 -0.00392525539615412 -8.861425817959443e-05 -0.0011198682510668789 -0.0032703941603912886 -0.00392525539615412 -0.0032703941603912886 -0.009784194100699379" pbc="T T T"
Si       1.46650562       8.48036548       0.05003018
Si      -2.01006638      -1.11467337       6.05887224
Si      -4.35271929      -1.82665982      10.60105614
Si      -0.72844625      -1.22337375       9.36001461
Si      -5.30907656       1.50597536      11.36008116
Si       4.07054368       1.95947714      -0.21972839
Si       2.47724799       0.36889214      -0.17885371
Si      -1.85596887       2.76673442       8.76468695
Si      -2.46945697      -2.07236300       9.94779158
Si      -3.37726353       2.20604961       6.75105957
Si       0.03088659       1.33513405       4.21515756
Si      -2.70811635       4.09499069       6.69446861
Si      -3.93792640      -1.64775253       6.83084569
Si       0.00005999       7.11984314      -0.21298980
Si       0.57958113       3.22140028       4.70290421
Si       1.54718222       6.67714936      -1.41242349
Si      -0.64998240      -0.79592855       4.30480674
Si       1.32627329      -3.03318325       6.78706783
Si       0.47731973       2.67102262       2.78144307
Si      -3.69348373       3.42542901       8.31042624
Si      -0.88631422       3.94219366       3.52033013
Si      -2.29532745      -1.58818726       7.99574376
22
Lattice="5.269101687323305 -0.512534662543187 -1.8781546109428986 -1.631302730540063 10.11207343890994 -0.6984913606848979 -5.302378635540707 -3.5970973377050326 11.726461590645235" Properties=species:S:1:pos:R:3 unique_starting_index=18 config_type=initial n_minim_iter=10 stress="-0.009051096229739082 -0.00039560963891301825 0.005146760772729739 -0.00039560963891301825 0.0009089235245444543 0.0009691780529303476 0.005146760772729739 0.0009691780529303476 -0.002833728679392421" pbc="T T T"
Si       1.45750784       8.47991724       0.06220295
Si      -2.00727592      -1.10878334       6.06674825
Si      -4.34406257      -1.80489722      10.61308493
Si      -0.72325464      -1.21298719       9.36833881
Si      -5.30541466       1.52576083      11.37539595
Si       4.06724283       1.95256903      -0.21042094
Si       2.47789888       0.36694887      -0.17721227
Si      -1.85445389       2.78119553       8.77480890
Si      -2.46410859      -2.05385777       9.95969303
Si      -3.37807036       2.21949354       6.76316005
Si       0.02714042       1.34491590       4.22454487
Si      -2.70785152       4.10766496       6.71521701
Si      -3.93270128      -1.63433444       6.83603184
Si      -0.00570763       7.11900238      -0.20660475
Si       0.57908934       3.23126077       4.71493220
Si       1.53602539       6.67521746      -1.40543674
Si      -0.64938481      -0.78991335       4.30990900
Si       1.32826684      -3.02217595       6.79316539
Si       0.48012540       2.67881355       2.78946306
Si      -3.69337998       3.43831089       8.32750174
Si      -0.89098080       3.93947177       3.52772344
Si      -2.29051509      -1.57504038       8.00532097
22
Lattice="5.298990394100632 -0.5317833452229989 -1.9118832326638269 -1.6656506977345567 10.103449764216919 -0.6762476419374732 -5.376105749771547 -3.5590407613946753 11.767283539786796" Properties=species:S:1:pos:R:3 unique_starting_index=18 config_type=initial n_minim_iter=11 stress="0.002359099321141687 -0.005238206087871777 0.0003692450789231533 -0.005238206087871777 0.0012264099145291522 -0.004271650195481322 0.0003692450789231533 -0.004271650195481322 -0.008740380982192611" pbc="T T T"
Si       1.43557425       8.46627549       0.06548046
Si      -2.04982190      -1.11165042       6.08876125
Si      -4.40645869      -1.76128059      10.65060896
Si      -0.77354058      -1.21123107       9.37023223
Si      -5.39648713       1.54836401      11.41402027
Si       4.08279188       1.92532901      -0.20618925
Si       2.49697297       0.36262309      -0.19052345
Si      -1.91418321       2.79636419       8.77466981
Si      -2.52358934      -2.01944066       9.99171023
Si      -3.44741047       2.24571189       6.79827099
Si      -0.01919974       1.36576013       4.23718434
Si      -2.76275627       4.12324020       6.77109516
Si      -3.97966216      -1.60877220       6.85915371
Si      -0.02475891       7.10895772      -0.20788652
Si       0.55514154       3.24255441       4.72234267
Si       1.51731294       6.66266599      -1.41005720
Si      -0.68097240      -0.78311266       4.31873661
Si       1.29363673      -3.00055619       6.79292842
Si       0.47907276       2.69472485       2.79382513
Si      -3.76922087       3.44509919       8.36398515
Si      -0.93943910       3.90634024       3.53004094
Si      -2.34026868      -1.55382298       8.02641952
22
Lattice="5.316964762073116 -0.5491599115655966 -1.9390886528164422 -1.6913720927011462 10.090941914770953 -0.646361159037254 -5.420672591158876 -3.5099738736895296 11.816641689201917" Properties=species:S:1:pos:R:3 unique_starting_index=18 config_type=initial n_minim_iter=12 stress="0.009023446730935334 -0.00657109505581694 0.002331426203770801 -0.00657109505581694 0.011246442608999763 -0.0031060466725082395 0.002331426203770801 -0.0031060466725082395 0.0053146956027852015" pbc="T T T"
Si       1.41760892       8.45370562       0.08289385
Si      -2.07706697      -1.10782282       6.11214133
Si      -4.43387702      -1.70892099      10.69650183
Si      -0.81058731      -1.20045035       9.39394240
Si      -5.45451455       1.58378691      11.46648246
Si       4.09548543       1.90129998      -0.19533531
Si       2.51099937       0.35801044      -0.19774864
Si      -1.95260557       2.82045710       8.79132453
Si      -2.56079022      -1.96869199      10.03889444
Si      -3.49464659       2.27083869       6.84002338
Si      -0.05927510       1.39743573       4.25267520
Si      -2.78997779       4.15093644       6.83938509
Si      -4.00813070      -1.57733717       6.88379926
Si      -0.04227912       7.09461059      -0.19811679
Si       0.53877169       3.25783482       4.73360363
Si       1.50309709       6.64537837      -1.40490136
Si      -0.70331350      -0.77139390       4.33473106
Si       1.27138393      -2.96753189       6.80945003
Si       0.48519374       2.70758243       2.81706005
Si      -3.81981099       3.46038587       8.41886874
Si      -0.97966366       3.87722062       3.54412688
Si      -2.37443396      -1.52611798       8.06140431
22
Lattice="5.32689782675755 -0.5465222761886466 -1.951415531427376 -1.680255227531925 10.080241275042734 -0.6228293322093313 -5.45501266746085 -3.4894147035098664 11.8252141950921" Properties=species:S:1:pos:R:3 unique_starting_index=18 config_type=initial n_minim_iter=13 stress="0.009818694242757229 -0.004542020744521283 0.0016111439404231966 -0.004542020744521283 0.014504998259130403 -0.0011088389818678266 0.0016111439404231966 -0.0011088389818678266 0.007144630839056292" pbc="T T T"
Si       1.42848335       8.45106322       0.09786898
Si      -2.09457263      -1.10410874       6.11471980
Si      -4.45936715      -1.68581380      10.70818991
Si      -0.83357342      -1.18769267       9.39843706
Si      -5.48228246       1.59765880      11.48152157
Si       4.10877983       1.90068025      -0.19503502
Si       2.51689856       0.35806800      -0.19849268
Si      -1.96953608       2.83482812       8.79452482
Si      -2.58065054      -1.94048122      10.04528176
Si      -3.51100283       2.28216103       6.85399953
Si      -0.07640296       1.41430303       4.25167764
Si      -2.79799566       4.15875233       6.86782445
Si      -4.02876163      -1.56634423       6.88678152
Si      -0.03213713       7.08762938      -0.18717968
Si       0.53630965       3.27558281       4.73993216
Si       1.51362906       6.63798710      -1.39169788
Si      -0.71624388      -0.76374701       4.33749169
Si       1.25572478      -2.94308742       6.80932500
Si       0.48969176       2.71188878       2.82381131
Si      -3.83674726       3.46740964       8.43503612
Si      -0.98857524       3.86539313       3.55202966
Si      -2.39873143      -1.51260932       8.06834374
22
Lattice="5.34135720790256 -0.5363314645555275 -1.9641189597717559 -1.66204776416427 10.061127048331523 -0.6145746058922942 -5.504606917549077 -3.4901069718460516 11.826276172448722" Properties=species:S:1:pos:R:3 unique_starting_index=18 config_type=initial n_minim_iter=14 stress="0.009082614390923489 -0.0019860334976919726 -0.0028118657552112145 -0.0019860334976919726 0.014345630984772054 0.001407879943901144 -0.0028118657552112145 0.001407879943901144 0.010403059038254637" pbc="T T T"
Si       1.44409229       8.44143162       0.09681782
Si      -2.11935003      -1.11152990       6.11175264
Si      -4.49444192      -1.68320680      10.71020725
Si      -0.86086322      -1.18837961       9.39411536
Si      -5.52039490       1.58727028      11.48055436
Si       4.12802223       1.90204083      -0.20560779
Si       2.52405926       0.36050985      -0.20406232
Si      -1.98853175       2.82901548       8.78295748
Si      -2.61782624      -1.93174527      10.04828816
Si      -3.53288637       2.27593137       6.85211215
Si      -0.09544593       1.42300767       4.24080760
Si      -2.80898352       4.14774729       6.87872530
Si      -4.05883679      -1.56914775       6.88408797
Si      -0.01429176       7.07538414      -0.18922993
Si       0.53191571       3.28785893       4.73559524
Si       1.53143649       6.62740174      -1.38660492
Si      -0.73324727      -0.76357736       4.33617428
Si       1.23615544      -2.92554522       6.80635983
Si       0.49208794       2.70817452       2.81558567
Si      -3.86576661       3.45720325       8.43909833
Si      -0.99667978       3.84143873       3.54855790
Si      -2.43349076      -1.51391490       8.06543074
22
Lattice="5.353533143805752 -0.5235825206039769 -1.9603033745680767 -1.650811522299395 10.035510984372237 -0.6337050152117026 -5.525082775715776 -3.5132029739681445 11.809889689489628" Properties=species:S:1:pos:R:3 unique_starting_index=18 config_type=initial n_minim_iter=15 stress="0.007716240913589425 -0.0005118859078605484 -0.0004792879790562541 -0.0005118859078605484 0.006439635026682722 0.001438907250237882 -0.0004792879790562541 0.001438907250237882 0.00971985154671353" pbc="T T T"
Si       1.45293276       8.42200359       0.07923819
Si      -2.12945736      -1.13143172       6.10152903
Si      -4.50841965      -1.70185170      10.69771328
Si      -0.86290394      -1.20843890       9.38569247
Si      -5.53159339       1.54967427      11.44989449
Si       4.14740378       1.90004571      -0.21741750
Si       2.53022815       0.36216434      -0.20645792
Si      -1.99298360       2.80296817       8.75310639
Si      -2.62229016      -1.94432589      10.04170146
Si      -3.54743375       2.25281347       6.82239290
Si      -0.09957877       1.42232863       4.22536945
Si      -2.80828311       4.11522671       6.86448634
Si      -4.07564890      -1.58631431       6.86619825
Si      -0.00246415       7.06119201      -0.20597586
Si       0.54224297       3.28428044       4.71604464
Si       1.54815830       6.61084366      -1.39381817
Si      -0.73856418      -0.77283115       4.33134380
Si       1.23585791      -2.92112728       6.80596316
Si       0.50257283       2.69820986       2.79751195
Si      -3.86990913       3.42570527       8.42446572
Si      -0.99989656       3.80509848       3.52862023
Si      -2.44746599      -1.53272123       8.05187244
22
Lattice="5.366805043157483 -0.5142935712097639 -1.9590341545735879 -1.637914738218029 10.03013443047295 -0.6345579707867212 -5.550598459681493 -3.5245356088721365 11.788453340543231" Properties=species:S:1:pos:R:3 unique_starting_index=18 config_type=initial n_minim_iter=16 stress="0.011137672088298535 0.002297562687527398 0.0009312047760265725 0.002297562687527398 0.0039373183351270515 0.003296039929956919 0.0009312047760265725 0.003296039929956919 0.00847283803172147" pbc="T T T"
Si       1.46466094       8.42273642       0.07657462
Si      -2.14193572      -1.14491295       6.09048733
Si      -4.52242155      -1.70642423      10.68194175
Si      -0.86889678      -1.21598601       9.37347045
Si      -5.54700727       1.53758229      11.42252491
Si       4.17108906       1.90255265      -0.22132146
Si       2.53681366       0.36452805      -0.20805366
Si      -1.99603527       2.79751991       8.72844968
Si      -2.63707335      -1.94274956      10.02498495
Si      -3.56986720       2.24529093       6.79957514
Si      -0.10371626       1.43473304       4.21455191
Si      -2.81107379       4.10421482       6.86119522
Si      -4.09360681      -1.59659058       6.84900742
Si       0.00512923       7.05630803      -0.21163428
Si       0.55437656       3.29583445       4.70247336
Si       1.56738900       6.60564758      -1.38988541
Si      -0.74595764      -0.77641908       4.32540943
Si       1.23122619      -2.90961255       6.79838344
Si       0.51920715       2.70026347       2.78338358
Si      -3.87707572       3.41419253       8.40835919
Si      -1.00715312       3.78144930       3.51682114
Si      -2.46550686      -1.54149061       8.03719281
22
Lattice="5.385699107760149 -0.5054741110683448 -1.970453295683075 -1.6242509407280605 10.004346878570038 -0.6255917006734305 -5.598177628462784 -3.518881911631105 11.795301522508705" Properties=species:S:1:pos:R:3 unique_starting_index=18 config_type=initial n_minim_iter=17 stress="0.007252908128444942 0.00422938652405999 -0.0006660488698454119 0.00422938652405999 -0.001700479667602296 0.003860880339262797 -0.0006660488698454119 0.003860880339262797 0.011582941822972672" pbc="T T T"
Si       1.47194656       8.40604786       0.07959087
Si      -2.16586554      -1.15664425       6.09258937
Si      -4.55278089      -1.69486748      10.69546832
Si      -0.89274006      -1.21687508       9.38332005
Si      -5.58261810       1.52673565      11.42226018
Si       4.20800856       1.89908254      -0.22522639
Si       2.54601281       0.36941762      -0.21876571
Si      -2.01169441       2.79499953       8.72289552
Si      -2.66796651      -1.92541408      10.03052798
Si      -3.60939003       2.24258531       6.79539607
Si      -0.11828886       1.46190373       4.21131254
Si      -2.82277781       4.08684263       6.87913932
Si      -4.12273509      -1.60023289       6.85108717
Si       0.01360449       7.04048822      -0.21755424
Si       0.55819662       3.31592181       4.69247344
Si       1.58810233       6.58284907      -1.37835501
Si      -0.76247529      -0.77527371       4.33023718
Si       1.20807326      -2.88092698       6.80052303
Si       0.53833447       2.70540383       2.78005227
Si      -3.90327720       3.39640651       8.41744614
Si      -1.01999088       3.73481022       3.51568175
Si      -2.49993261      -1.54069885       8.04161618
22
Lattice="5.408784754576411 -0.5049870078697752 -1.9811572310838703 -1.6292283566692887 9.995678818220222 -0.62453561859526 -5.646076975718578 -3.5196068889378074 11.793712702242741" Properties=species:S:1:pos:R:3 unique_starting_index=18 config_type=initial n_minim_iter=18 stress="0.01415360327591912 0.0011207912546080663 -0.0015804421899769236 0.0011207912546080663 0.0003824342702119877 0.0009927142724646964 -0.0015804421899769236 0.0009927142724646964 0.015601802397154346" pbc="T T T"
Si       1.46527524       8.39793549       0.07425691
Si      -2.19056405      -1.17214404       6.08968679
Si      -4.58354490      -1.68827122      10.69785574
Si      -0.91931839      -1.22791776       9.38112471
Si      -5.62802251       1.51896870      11.40947944
Si       4.24077182       1.88974342      -0.23184034
Si       2.55703405       0.37159242      -0.23056845
Si      -2.04144863       2.79252566       8.70357444
Si      -2.70075994      -1.91539303      10.02974334
Si      -3.64965129       2.24049833       6.78626738
Si      -0.14356355       1.48530382       4.20261116
Si      -2.84453484       4.07531225       6.88528459
Si      -4.15324371      -1.60504094       6.84874655
Si       0.01144515       7.03178636      -0.23036358
Si       0.55638722       3.33528482       4.67862259
Si       1.59648964       6.56901416      -1.37460290
Si      -0.77990918      -0.77802233       4.33055169
Si       1.18740751      -2.86525350       6.79640928