12
Lattice="5.166155458308802 0.9284794792516463 1.1071589711880754 -0.3713226479105821 6.523551660474119 -3.3613295057132095 1.3269640774276246 -3.2824285460966984 10.010815349007121" Properties=species:S:1:pos:R:3 unique_starting_index=44 config_type=initial n_minim_iter=1 energy=-1969.1950081844645 free_energy=-1969.1950081844645 pbc="T T T"
Si       0.92459224       0.16573790       7.69980418
Si       1.46077943       1.67130996       2.71884944
Si       2.09165665       3.08234333       3.98765163
Si       3.82383185       2.32961517       3.31759059
Si       5.38423514       2.98511890       8.85782013
Si       4.93834185      -0.35710985       7.98057364
Si       2.79225309       4.69619163      -1.44169866
Si       0.78727371       4.93974909      -1.63541030
Si       2.94282881      -0.14572995       7.95117211
Si       5.40323501       1.08683230       3.33483597
Si       1.78254003      -1.55584084       7.05939083
Si       3.75394560      -1.90186600       7.37858244
12
Lattice="5.171595693194997 0.9279338863041199 1.1084194709931783 -0.37404418909457016 6.52627544341929 -3.3597807788113507 1.3299930695748037 -3.280048779114235 10.014221081972128" Properties=species:S:1:pos:R:3 unique_starting_index=44 config_type=initial n_minim_iter=2 stress="0.00950346718461134 0.002395029799271151 0.0015174218672602277 0.002395029799271151 0.010949222398918013 0.000582076714238129 0.0015174218672602277 0.000582076714238129 0.0008073010729927711" pbc="T T T"
Si       0.92616221       0.16921763       7.70383289
Si       1.46177877       1.67304246       2.72077363
Si       2.09331534       3.08613239       3.99144764
Si       3.82750279       2.33154568       3.32049717
Si       5.38947372       2.98955278       8.86408796
Si       4.94463460      -0.35510547       7.98461621
Si       2.79349530       4.69762895      -1.44002448
Si       0.78625284       4.94215225      -1.63364598
Si       2.94618796      -0.14260780       7.95520796
Si       5.40921104       1.08748168       3.33723477
Si       1.78531602      -1.55399582       7.06216553
Si       3.75911807      -1.90108986       7.38154528
12
Lattice="5.169445314702114 0.9232987621607829 1.1084307719285091 -0.37867065092533186 6.518044907480447 -3.3579148037502238 1.3304187149575208 -3.27245862390271 10.01713653212452" Properties=species:S:1:pos:R:3 unique_starting_index=44 config_type=initial n_minim_iter=3 stress="0.002124577237542393 -0.007990654480299841 -0.0012462846036253277 -0.007990654480299841 -0.0015293727043271005 -0.00039503837294306446 -0.0012462846036253277 -0.00039503837294306446 0.0007888339435697551" pbc="T T T"
Si       0.92503293       0.17185857       7.70774935
Si       1.45893622       1.67095874       2.72178129
Si       2.09040503       3.08467558       3.99484581
Si       3.82406508       2.32785780       3.32245167
Si       5.38373945       2.98616536       8.86956322
Si       4.94332380      -0.35483543       7.98748530
Si       2.78858886       4.68960051      -1.43910883
Si       0.78167130       4.93628274      -1.63172039
Si       2.94311014      -0.13989041       7.95845690
Si       5.40704808       1.08384803       3.33802408
Si       1.78464426      -1.55018499       7.06438403
Si       3.75842155      -1.89955906       7.38371124
12
Lattice="5.168464628108978 0.9297503770610654 1.110081989359799 -0.37136932714624776 6.513816105162979 -3.3551077173912662 1.3275279796347943 -3.2641226849721394 10.018261909662401" Properties=species:S:1:pos:R:3 unique_starting_index=44 config_type=initial n_minim_iter=4 stress="-0.003468828312532622 0.003532913311585219 0.0033200197587828846 0.003532913311585219 -0.0005563780124944399 0.004048635038576324 0.0033200197587828846 0.004048635038576324 0.0032848504782680404" pbc="T T T"
Si       0.92700989       0.17661742       7.71055055
Si       1.46023639       1.67368793       2.72272857
Si       2.09469015       3.08940355       3.99799780
Si       3.82548850       2.33387523       3.32522224
Si       5.38577451       2.99598614       8.87568474
Si       4.94344128      -0.34465903       7.99047869
Si       2.79165446       4.69048039      -1.43683733
Si       0.78587253       4.93620706      -1.62865774
Si       2.94169595      -0.13067570       7.96103069
Si       5.40701008       1.09182994       3.33972173
Si       1.78285411      -1.54357081       7.06560224
Si       3.75634213      -1.89131954       7.38583914
12
Lattice="5.172290564348837 0.9315116109119337 1.1013263454986937 -0.3637829622646285 6.516660854306631 -3.357215982163853 1.3141971443443856 -3.273166002335219 10.008245573739556" Properties=species:S:1:pos:R:3 unique_starting_index=44 config_type=initial n_minim_iter=5 stress="0.00345950641100631 0.002229944613474042 0.000592225546084475 0.002229944613474042 -0.004268940611857213 -0.001300321157382408 0.000592225546084475 -0.001300321157382408 -0.0018200106799929146" pbc="T T T"
Si       0.92024001       0.16755316       7.70135739
Si       1.45857703       1.67298189       2.71462016
Si       2.09398384       3.08621349       3.98638854
Si       3.82609950       2.33317616       3.31361362
Si       5.37983744       2.98845223       8.85882971
Si       4.94052098      -0.35083459       7.97575775
Si       2.79638532       4.69255312      -1.44469237
Si       0.78878286       4.94141525      -1.63131825
Si       2.93211773      -0.13479032       7.94790451
Si       5.40928806       1.09104353       3.32563676
Si       1.77428498      -1.54943014       7.05622982
Si       3.75181763      -1.89769450       7.37617554
12
Lattice="5.15995950265045 0.9318558239539191 1.0944848620475314 -0.36102200582782895 6.533811781660125 -3.3575474973692905 1.2996094792671424 -3.2831857882711364 10.007056722805254" Properties=species:S:1:pos:R:3 unique_starting_index=44 config_type=initial n_minim_iter=6 stress="-0.007727720472812346 -0.00018028495831461642 -0.0016473135852665649 -0.00018028495831461642 0.0057946366224378935 -0.00042348714994169513 -0.0016473135852665649 -0.00042348714994169513 0.0008365149189424292" pbc="T T T"
Si       0.90881440       0.16542558       7.70182493
Si       1.45071094       1.67784392       2.71062689
Si       2.08433238       3.09267535       3.98189517
Si       3.81362460       2.33776708       3.30742746
Si       5.35334206       2.99000576       8.85509915
Si       4.92107175      -0.35583203       7.96981867
Si       2.78934302       4.70263004      -1.45054885
Si       0.78507380       4.95724463      -1.63136546
Si       2.91609538      -0.13581074       7.94349863
Si       5.39467916       1.09287686       3.31644158
Si       1.76257622      -1.55536800       7.05336235
Si       3.73763792      -1.90541602       7.37420445
12
Lattice="5.164075293787215 0.9337836048042435 1.0880892301651435 -0.3546530496153592 6.5290771049644025 -3.353899827960406 1.289093135538962 -3.280559545884202 9.995313936386022" Properties=species:S:1:pos:R:3 unique_starting_index=44 config_type=initial n_minim_iter=7 stress="-0.0020389582639306686 0.00021396643014993456 -0.001535312311719087 0.00021396643014993456 -0.004588946212099986 0.0008520082496638263 -0.001535312311719087 0.0008520082496638263 -0.001286002663294868" pbc="T T T"
Si       0.90156229       0.16372842       7.69698200
Si       1.44862336       1.68156833       2.70144684
Si       2.08596362       3.09306300       3.97191290
Si       3.81768302       2.33865895       3.29710087
Si       5.34260286       2.98106773       8.84900095
Si       4.91726343      -0.35653514       7.95715404
Si       2.79356566       4.69790988      -1.45612135
Si       0.78483121       4.96046999      -1.62691074
Si       2.91385189      -0.13263195       7.92986151
Si       5.39896662       1.09932262       3.30236236
Si       1.75975797      -1.55572473       7.04230434
Si       3.73702621      -1.90294576       7.36998536
12
Lattice="5.167780855278331 0.9339132355768321 1.088472921154094 -0.35595493931633815 6.551882162255049 -3.3685935451785323 1.2956558857963494 -3.3125510342349394 9.999045970688897" Properties=species:S:1:pos:R:3 unique_starting_index=44 config_type=initial n_minim_iter=8 stress="-0.0008607563322235428 -0.0013536273144049568 0.00349234134386071 -0.0013536273144049568 -0.0012749864895491387 -0.001855849685488099 0.00349234134386071 -0.001855849685488099 0.0017551887207513247" pbc="T T T"
Si       0.90579028       0.14149719       7.69906947
Si       1.45030325       1.68589099       2.68997057
Si       2.09742873       3.09488784       3.95915703
Si       3.82361945       2.33931413       3.28833679
Si       5.34097866       2.95892108       8.85587420
Si       4.92607869      -0.37908745       7.95856673
Si       2.79341561       4.70850375      -1.47067232
Si       0.78223370       4.97663177      -1.63449524
Si       2.92295203      -0.15094197       7.92345353
Si       5.40250020       1.09750584       3.29159084
Si       1.77035096      -1.57688503       7.04142676
Si       3.74498303      -1.92710456       7.38325623
12
Lattice="5.165961644430067 0.9496975179925558 1.0600563004272263 -0.3238775663979156 6.582119666667869 -3.3637422778796204 1.242923628469602 -3.337053702836017 9.959733562356087" Properties=species:S:1:pos:R:3 unique_starting_index=44 config_type=initial n_minim_iter=9 stress="0.0032372287873260303 0.0014471394623530882 -0.0031377904640222496 0.0014471394623530882 0.005136371494644595 0.0039495181231153 -0.0031377904640222496 0.0039495181231153 0.0039041690779492615" pbc="T T T"
Si       0.86968312       0.12667639       7.67703625
Si       1.43752024       1.70203753       2.65651155
Si       2.09303704       3.11610214       3.92504793
Si       3.82449003       2.35839407       3.24517354
Si       5.29064758       2.95828917       8.82625156
Si       4.89635994      -0.38270397       7.91062936
Si       2.81158967       4.73036207      -1.49414576
Si       0.80060440       4.99347147      -1.63503629
Si       2.88830652      -0.15326991       7.87032715
Si       5.38957868       1.12174678       3.23533757
Si       1.74399193      -1.58649108       7.00463372
Si       3.71155504      -1.93613538       7.36038657
12
Lattice="5.170382078738813 0.9548066246214916 1.0555437532904783 -0.3187211943160762 6.597952781231611 -3.358759317076642 1.2414226858192385 -3.3523084505975627 9.928878939294206" Properties=species:S:1:pos:R:3 unique_starting_index=44 config_type=initial n_minim_iter=10 stress="0.007614972269493236 0.00106013883935962 0.0024750577729897834 0.00106013883935962 0.011023839818610551 0.005353926522455974 0.0024750577729897834 0.005353926522455974 -0.0011395139167569076" pbc="T T T"
Si       0.86890874       0.11773667       7.65789526
Si       1.43442933       1.70705985       2.63884356
Si       2.10011192       3.12176775       3.90406870
Si       3.82901782       2.37008663       3.22635358
Si       5.28623911       2.95070146       8.81232890
Si       4.90338552      -0.38859164       7.88597478
Si       2.81828227       4.74100032      -1.49882808
Si       0.80407168       4.99824159      -1.63327348
Si       2.89090381      -0.15768929       7.83733145
Si       5.40115820       1.13093237       3.21415276
Si       1.74689610      -1.59171496       6.97897482
Si       3.71554475      -1.94381590       7.34755524
12
Lattice="5.171447658740943 0.9626754042299166 1.0496078946724474 -0.30230820501960404 6.598942955911331 -3.372147022447677 1.218763822448974 -3.354775199420135 9.960953855613932" Properties=species:S:1:pos:R:3 unique_starting_index=44 config_type=initial n_minim_iter=11 stress="0.012164466960908756 0.002070796387785118 -0.0008773459323416072 0.002070796387785118 0.010869915050059492 0.0002003799328446207 -0.0008773459323416072 0.0002003799328446207 0.01321601822731755" pbc="T T T"
Si       0.85376691       0.11519268       7.68748083
Si       1.42880103       1.71133635       2.64257620
Si       2.09799199       3.12568873       3.90806643
Si       3.82859655       2.38134822       3.22441859
Si       5.27202754       2.95027616       8.84717214
Si       4.89097201      -0.38489321       7.90458999
Si       2.83046334       4.74550643      -1.51409458
Si       0.81323341       4.99474965      -1.64234215
Si       2.88022524      -0.15555657       7.85353081
Si       5.40625868       1.13700532       3.20748240
Si       1.73254660      -1.58959564       6.99629506
Si       3.70090058      -1.94299030       7.37261696
12
Lattice="5.168629433423182 0.9696250921729757 1.0494691568666246 -0.2980989507023918 6.589431683526136 -3.341496661807195 1.2157658720672053 -3.3221581754450886 9.922353458359105" Properties=species:S:1:pos:R:3 unique_starting_index=44 config_type=initial n_minim_iter=12 stress="0.012308187406049524 0.001171946963468814 0.000944918774464212 0.001171946963468814 0.015068340490107714 0.00807387505737819 0.000944918774464212 0.00807387505737819 -8.346041825569347e-06" pbc="T T T"
Si       0.85148235       0.13952065       7.67240802
Si       1.42496668       1.72549825       2.64205423
Si       2.09693710       3.14273410       3.90208061
Si       3.82957293       2.40126512       3.21769550
Si       5.26700608       2.98108806       8.84913869
Si       4.88726485      -0.35671335       7.88152302
Si       2.83222709       4.74402831      -1.49797345
Si       0.81378802       4.98614702      -1.62214336
Si       2.88197420      -0.12707368       7.82584564
Si       5.41059496       1.14824343       3.19441540
Si       1.72910457      -1.56271590       6.96755573
Si       3.69665434      -1.92125871       7.35079622
12
Lattice="5.16993712917393 0.9758022037149898 1.0815561957378914 -0.3066553485116698 6.566827415200801 -3.344073257260904 1.2591685787621842 -3.290973053042528 9.967059669703607" Properties=species:S:1:pos:R:3 unique_starting_index=44 config_type=initial n_minim_iter=13 stress="0.007893257094668921 0.002239281047711 0.0036732820666145775 0.002239281047711 0.010081027046472832 0.00025591129326560277 0.0036732820666145775 0.00025591129326560277 0.00010308670886669171" pbc="T T T"
Si       0.88806760       0.14542168       7.72457009
Si       1.42632032       1.73493672       2.67505317
Si       2.11508293       3.14497838       3.92107958
Si       3.85716401       2.41635733       3.24622766
Si       5.29986374       2.99900064       8.96126739
Si       4.91969557      -0.33488270       7.94095377
Si       2.82567115       4.73822853      -1.48821447
Si       0.80944755       4.96348484      -1.61571470
Si       2.92282900      -0.10616861       7.86199765
Si       5.43511538       1.16402665       3.22580915
Si       1.75622796      -1.52799572       6.99595383
Si       3.72621712      -1.90696182       7.40732897
12
Lattice="5.163856795382918 0.9747137665057116 1.1079636934474644 -0.3198062288351024 6.513337030453874 -3.322398678072314 1.283904697911127 -3.2069187541642994 10.015861683725957" Properties=species:S:1:pos:R:3 unique_starting_index=44 config_type=initial n_minim_iter=14 stress="-0.00019175386982466953 0.0018396996204420818 2.7940972249094845e-05 0.0018396996204420818 -5.7617865814053876e-05 -0.0018921299236680526 2.7940972249094845e-05 -0.0018921299236680526 -0.006262016779573912" pbc="T T T"
Si       0.89425934       0.19314877       7.79507530
Si       1.41531397       1.74646148       2.71866416
Si       2.12176057       3.15108678       3.95545413
Si       3.86709407       2.43392280       3.28927626
Si       5.30401325       3.04094388       9.09564603
Si       4.93525948      -0.28513455       8.00671702
Si       2.81682145       4.70991760      -1.46700851
Si       0.79572249       4.92358906      -1.59078006
Si       2.93205043      -0.05304345       7.90491740
Si       5.43508734       1.17736733       3.25497102
Si       1.78238177      -1.46870691       7.02803770
Si       3.74843300      -1.84986756       7.46213531
12
Lattice="5.158780396585315 0.9717568664884092 1.1131920207851371 -0.3260097793518304 6.508839451403681 -3.3212734764259193 1.2893905285172518 -3.1960319089218974 10.031090361853963" Properties=species:S:1:pos:R:3 unique_starting_index=44 config_type=initial n_minim_iter=15 stress="0.0013975031983178897 0.0026828188584638716 -0.0006592003273938237 0.0026828188584638716 -0.0003599339135878712 -0.0006607889184150296 -0.0006592003273938237 -0.0006607889184150296 -0.0020315019182107637" pbc="T T T"
Si       0.89211999       0.19545778       7.81626253
Si       1.40832900       1.75026827       2.72763183
Si       2.12214673       3.15668356       3.95971048
Si       3.87099318       2.43912779       3.29728363
Si       5.28844111       3.03589402       9.13097210
Si       4.93644957      -0.27576300       8.03067170
Si       2.80283563       4.69864863      -1.47232196
Si       0.79068628       4.91675046      -1.58642203
Si       2.93600736      -0.03590041       7.91334913
Si       5.42954507       1.17482133       3.25944238
Si       1.79134218      -1.46106158       7.03698558
Si       3.75587650      -1.84076026       7.47923747
12
Lattice="5.155468845984977 0.9676312672438414 1.118341199626218 -0.3347581856605794 6.516399965081085 -3.325623481942219 1.3013528667243814 -3.2044754528765864 10.037173962553096" Properties=species:S:1:pos:R:3 unique_starting_index=44 config_type=initial n_minim_iter=16 stress="-0.0022222837637926765 0.0004644241373106339 -0.0010516246536119984 0.0004644241373106339 -0.003902482892590308 -0.000914464799573026 -0.0010516246536119984 -0.000914464799573026 7.633456216104393e-05" pbc="T T T"
Si       0.90093623       0.18971733       7.81983697
Si       1.40589559       1.74554787       2.73055671
Si       2.12399858       3.15898530       3.96114148
Si       3.87485881       2.43755027       3.30245923
Si       5.29048295       3.02606491       9.13391093
Si       4.94166865      -0.28232290       8.04328322
Si       2.79488331       4.70057166      -1.47336418
Si       0.77941370       4.92262387      -1.58786944
Si       2.94376731      -0.04388757       7.91407408
Si       5.42557505       1.16496672       3.26823076
Si       1.79930655      -1.46377097       7.04443598
Si       3.76149770      -1.84314856       7.48380513
12
Lattice="5.152141585414172 0.9642369760988537 1.1308450973049564 -0.34674229189488043 6.518187741855295 -3.328048811020054 1.320472042619115 -3.1978791468752115 10.061563778951404" Properties=species:S:1:pos:R:3 unique_starting_index=44 config_type=initial n_minim_iter=17 stress="-0.004643996531434372 -0.003106275598926725 -0.0022261197964563223 -0.003106275598926725 -0.004712818898538199 -0.002433573880448072 -0.0022261197964563223 -0.002433573880448072 0.0035785740546680576" pbc="T T T"
Si       0.91568825       0.19906146       7.84523622
Si       1.40099226       1.74410213       2.75316353
Si       2.12831478       3.16432339       3.96435641
Si       3.88615095       2.44457281       3.32327274
Si       5.30084631       3.02942959       9.16447052
Si       4.95149545      -0.28256896       8.07898917
Si       2.78646891       4.70393718      -1.46778429
Si       0.76611146       4.91873205      -1.58675558
Si       2.95441850      -0.03519035       7.93019633
Si       5.42257764       1.15929970       3.29340802
Si       1.80979509      -1.45854339       7.06557025
Si       3.76893468      -1.83860024       7.50100509
12
Lattice="5.151238262118953 0.9644473578406338 1.1615152587609507 -0.3657204537082698 6.5017271731886845 -3.317261944195018 1.3621045003767351 -3.1523099030579536 10.104696000293043" Properties=species:S:1:pos:R:3 unique_starting_index=44 config_type=initial n_minim_iter=18 stress="0.005051459405307788 -0.004171754931887487 0.0003650755967347345 -0.004171754931887487 0.002844002992166965 0.0011114327735909236 0.0003650755967347345 0.0011114327735909236 0.007837370571278916" pbc="T T T"
Si       0.94024549       0.22444881       7.90146751
Si       1.38231576       1.73938282       2.80162765
Si       2.14445678       3.18414978       3.96799843
Si       3.92272679       2.47938923       3.37192042
Si       5.33180278       3.06743510       9.25859645
Si       4.97648533      -0.25832408       8.15971760
Si       2.77399359       4.69718089      -1.44910533
Si       0.75103895       4.90023711      -1.56718467
Si       2.98838051       0.00809123       7.95613890
Si       5.43045564       1.15606612       3.34265566
Si       1.83662313      -1.42346148       7.10347467
Si       3.79404100      -1.79877318       7.54230468
12
Lattice="5.1424213243973425 0.9730074012194699 1.1893332910565668 -0.37720271895388274 6.494900620917006 -3.2890205417434863 1.3895833485522782 -3.0887559896290533 10.138760835929771" Properties=species:S:1:pos:R:3 unique_starting_index=44 config_type=initial n_minim_iter=19 stress="0.03610517450764392 -0.002002254316813007 0.00423547660415658 -0.002002254316813007 0.03946197583225552 0.013147931940906042 0.00423547660415658 0.013147931940906042 0.01423033367691981" pbc="T T T"
Si       0.94486150       0.26000330       7.97085607
Si       1.34180564       1.75147633       2.85855976
Si       2.16246439       3.23178849       3.94214249
Si       3.98054139       2.55709137       3.42249416
Si       5.32777651       3.11911001       9.37833547
Si       4.98798792      -0.21589178       8.25530452
Si       2.76674485       4.69968798      -1.42840147
Si       0.73847086       4.88580104      -1.52739446
Si       3.00796689       0.08198455       7.95399730
Si       5.43006756       1.15632781       3.37854940
Si       1.85605913      -1.35992053       7.13558872
Si       3.80658561      -1.74351598       7.58769760
12
Lattice="5.136972802146285 0.9858917414162763 1.1887082748542717 -0.3686265808501488 6.519423907606571 -3.2699621468655495 1.3818353977965236 -3.0811588913389207 10.11816264405021" Properties=species:S:1:pos:R:3 unique_starting_index=44 config_type=initial n_minim_iter=20 stress="0.05694791174810274 -0.004336489652915047 0.006025430226204823 -0.004336489652915047 0.06301155061108349 0.019839515194133902 0.006025430226204823 0.019839515194133902 0.01616365594163674" pbc="T T T"
Si       0.93737255       0.26726562       7.98698477
Si       1.29658827       1.75136326       2.86883920
Si       2.18138749       3.27325329       3.86942442
Si       4.03877731       2.63292182       3.43268755
Si       5.30884233       3.13842759       9.39476082
Si       4.96701835      -0.20998072       8.28247345
Si       2.76643770       4.71670373      -1.42835758
Si       0.73791587       4.88988553      -1.50275469
Si       3.00734522       0.12469211       7.90104521
Si       5.41884577       1.15345576       3.37046015
Si       1.85341458      -1.33747337       7.12415313
Si       3.79882501      -1.72326839       7.58343637
12
Lattice="5.1385733282687225 0.9948104076550102 1.152767736605809 -0.33907663995117776 6.543315700916183 -3.266753545541947 1.3263220661644763 -3.116671463101565 10.057483064760902" Properties=species:S:1:pos:R:3 unique_starting_index=44 config_type=initial n_minim_iter=21 stress="0.033648657361176455 -0.0106107123981568 0.0005959046002610907 -0.0106107123981568 0.034767960301482013 0.012525122806439443 0.0005959046002610907 0.012525122806439443 0.0014816774697249666" pbc="T T T"
Si       0.89950900       0.24355259       7.93393975
Si       1.27444554       1.74125083       2.83188389
Si       2.18418177       3.28095543       3.79372490
Si       4.05909122       2.66219171       3.39860907
Si       5.27300458       3.12026935       9.28093351
Si       4.92175158      -0.23011069       8.22692377
Si       2.78544668       4.72637764      -1.44254630
Si       0.75860512       4.90446128      -1.50206807
Si       2.97317336       0.11491895       7.83374026
Si       5.39853562       1.14945745       3.32441035
Si       1.81047072      -1.36355567       7.08037107
Si       3.75805793      -1.74056003       7.52245207
