22
Lattice="5.226104568525025 -0.9333124898513903 0.7680024052137325 1.5838688513596617 5.0761010659876895 1.1779099362245267 2.6806950234098745 1.6382526285928312 17.643983744704485" Properties=species:S:1:pos:R:3 unique_starting_index=40 config_type=initial n_minim_iter=1 energy=-3600.745165688707 free_energy=-3600.745165688707 pbc="T T T"
Si       8.48526249       1.70019817      16.05012433
Si       2.85742000       1.18685828       5.23493679
Si       5.35767213       1.17793013       8.26734828
Si       5.15506053       3.20646068      15.66721974
Si       5.00399606       2.52194856      17.55159511
Si       4.95386872       6.20275544       9.75154342
Si       5.36250795       1.36342993       3.04990681
Si       5.25275387       3.50925141      11.97367359
Si       3.80409026       1.48653753       1.13455220
Si       5.80657030       4.35597652      17.33244975
Si       4.51254858       1.64982385      12.16537745
Si       4.55217050       2.87684840      13.76259479
Si       1.93382944       2.26469888       1.35642949
Si       1.33036623       1.21831831       8.83060377
Si       4.58867972       1.29723636      15.98093338
Si       6.15065054       4.87074978      10.70235278
Si       3.17855840       3.11978787       5.71726733
Si       3.69525247       6.83855748       8.21889819
Si       4.63652571       2.02810936       4.82103049
Si       5.02117150       1.62497375      10.21512889
Si       6.82180819       2.72603234      16.71288560
Si       4.10887645       1.66402897       6.74845434
22
Lattice="5.225497138814377 -0.9344740811758547 0.7698138378926928 1.5819769932178573 5.069368422051352 1.1764498475619198 2.6853004374718052 1.6296708566650484 17.63923340086393" Properties=species:S:1:pos:R:3 unique_starting_index=40 config_type=initial n_minim_iter=2 stress="-0.006070613452985315 -0.0006113709669302299 -0.0005193678092037031 -0.0006113709669302299 -0.005304585252989568 0.0008152801660193933 -0.0005193678092037031 0.0008152801660193933 -0.005351757040132586" pbc="T T T"
Si       8.48791706       1.68996142      16.04773362
Si       2.85809657       1.18297992       5.23423040
Si       5.35895341       1.17186290       8.26630349
Si       5.15801718       3.19588045      15.66332982
Si       5.00767190       2.51148673      17.54749638
Si       4.95354857       6.19074559       9.74824250
Si       5.36180291       1.35893164       3.05042471
Si       5.25400621       3.49910511      11.97084621
Si       3.80301235       1.48321515       1.13504409
Si       5.80923652       4.34349038      17.32795052
Si       4.51492456       1.64266669      12.16312815
Si       4.55470492       2.86733545      13.75913770
Si       1.93288155       2.26094529       1.35590614
Si       1.33240769       1.21355021       8.82815571
Si       4.59241582       1.28859370      15.97749821
Si       6.15109546       4.85944340      10.69963467
Si       3.17844223       3.11271887       5.71561533
Si       3.69469314       6.82683207       8.21543202
Si       4.63618938       2.02250849       4.82052923
Si       5.02295411       1.61794830      10.21307858
Si       6.82465634       2.71479585      16.70935617
Si       4.10928405       1.65843206       6.74709416
22
Lattice="5.230884335182991 -0.9361630149658917 0.773187192155031 1.5825172033603456 5.067376124848534 1.1754736668429517 2.695245653754949 1.6197948727046756 17.652256561396005" Properties=species:S:1:pos:R:3 unique_starting_index=40 config_type=initial n_minim_iter=3 stress="0.01019282426256855 -0.004810150894157984 0.0025206353289920474 -0.004810150894157984 -0.0020054171565783946 -0.004398636468816523 0.0025206353289920474 -0.004398636468816523 0.007582383603177423" pbc="T T T"
Si       8.50223388       1.67942283      16.06222717
Si       2.86275810       1.17983199       5.23928488
Si       5.36794601       1.16591122       8.27383046
Si       5.16947393       3.18633743      15.67519770
Si       5.01923066       2.50057447      17.56150288
Si       4.96053176       6.18341964       9.75407156
Si       5.36778902       1.35578179       3.05452936
Si       5.26285025       3.49041163      11.98007534
Si       3.80660585       1.48177010       1.13698865
Si       5.82088362       4.33322627      17.34082984
Si       4.52397380       1.63563255      12.17391957
Si       4.56461693       2.85845499      13.76951992
Si       1.93435678       2.25928973       1.35654660
Si       1.33691767       1.20848442       8.83465712
Si       4.60340153       1.27826583      15.99058554
Si       6.16056667       4.85130696      10.70737198
Si       3.18273508       3.10715968       5.71948219
Si       3.70023741       6.82065088       8.21930399
Si       4.64188135       2.01847638       4.82506330
Si       5.03222053       1.61131974      10.22127678
Si       6.83751764       2.70348837      16.72278074
Si       4.11504117       1.65361252       6.75238925
22
Lattice="5.226138921536197 -0.9315258796243486 0.7737989525451144 1.5864780556583662 5.072525205297048 1.1765790360821353 2.698716344447714 1.6278136607239682 17.645766380315802" Properties=species:S:1:pos:R:3 unique_starting_index=40 config_type=initial n_minim_iter=4 stress="-0.000929059441214013 0.001869832953050815 0.0017427484652353358 0.001869832953050815 7.461212195324542e-05 -0.0022129124591089163 0.0017427484652353358 -0.0022129124591089163 0.0007152229290440801" pbc="T T T"
Si       8.50080128       1.69316063      16.05795176
Si       2.86293500       1.18614539       5.24001534
Si       5.36908577       1.17345959       8.27111679
Si       5.17406847       3.19832688      15.67035387
Si       5.02127000       2.51057184      17.55725277
Si       4.96453040       6.19498213       9.75149755
Si       5.36603341       1.36313184       3.05537152
Si       5.26385045       3.49931901      11.97709718
Si       3.80518373       1.48854928       1.13791140
Si       5.82378042       4.34852084      17.33615910
Si       4.52430453       1.64564288      12.17298400
Si       4.56821508       2.86764138      13.76537872
Si       1.93445806       2.26299613       1.35673102
Si       1.33769608       1.21280107       8.83173394
Si       4.60425156       1.28514976      15.98575330
Si       6.16421043       4.86264011      10.70429039
Si       3.18355524       3.10963555       5.71827249
Si       3.70721277       6.83159480       8.21761448
Si       4.64088148       2.02572289       4.82458627
Si       5.03407652       1.62062450      10.21665627
Si       6.83788734       2.71427539      16.71697584
Si       4.11316851       1.66036302       6.74921488
22
Lattice="5.229582687001249 -0.93555517972129 0.7687062202254124 1.5817260252230982 5.071828660008364 1.1807288562656766 2.6859523650961887 1.6448749781814005 17.639782048382596" Properties=species:S:1:pos:R:3 unique_starting_index=40 config_type=initial n_minim_iter=5 stress="0.0030715083519012648 -0.0019024166726868074 -0.004101030069118747 -0.0019024166726868074 -0.00467987731759066 0.003090951060126693 -0.004101030069118747 0.003090951060126693 -0.00031790721046781617" pbc="T T T"
Si       8.49349233       1.70304731      16.04875077
Si       2.85935258       1.18942221       5.23838610
Si       5.36591323       1.17742854       8.26429048
Si       5.16356271       3.21052855      15.66509579
Si       5.00927730       2.52524186      17.55151586
Si       4.95470014       6.20068592       9.75069477
Si       5.36585444       1.36173448       3.05255697
Si       5.25440297       3.50701327      11.97294308
Si       3.80469685       1.48784258       1.13612713
Si       5.80973046       4.36243383      17.33150563
Si       4.51592973       1.65517778      12.16917713
Si       4.55935277       2.87831834      13.76147321
Si       1.93182045       2.26255175       1.35710188
Si       1.33029286       1.22110184       8.82960080
Si       4.59378490       1.29811239      15.97901034
Si       6.15641045       4.86820525      10.70073713
Si       3.17664703       3.11079201       5.71702070
Si       3.69731842       6.83751696       8.21981725
Si       4.63808136       2.02667060       4.82167544
Si       5.02954173       1.62770733      10.21033570
Si       6.82619841       2.72519692      16.70908794
Si       4.10952024       1.66288129       6.74595314
22
Lattice="5.228336858825927 -0.9406632527647629 0.7728214747381436 1.577896975913219 5.075980748905957 1.1818112542261985 2.6984825863803543 1.645308009162342 17.634341167991327" Properties=species:S:1:pos:R:3 unique_starting_index=40 config_type=initial n_minim_iter=6 stress="-0.0034420979628107667 -0.005825777517612002 0.0028604954707054328 -0.005825777517612002 0.0037985576125741274 0.000910328987143064 0.0028604954707054328 0.000910328987143064 -0.0028107623959776327" pbc="T T T"
Si       8.50337091       1.69914505      16.04974601
Si       2.86059112       1.18847090       5.23962520
Si       5.37020569       1.17488403       8.26259986
Si       5.17301191       3.21017151      15.66296313
Si       5.02018652       2.52486991      17.54948439
Si       4.95624129       6.20390814       9.74947950
Si       5.36499518       1.35980551       3.05684360
Si       5.25870722       3.50729159      11.97160637
Si       3.80188461       1.48932317       1.13876226
Si       5.81697468       4.36327306      17.32928710
Si       4.52146842       1.65367854      12.17016568
Si       4.56844511       2.87816311      13.76096937
Si       1.92904980       2.26358118       1.35768919
Si       1.33563701       1.22122780       8.82772152
Si       4.60361340       1.29651073      15.97675431
Si       6.16018183       4.86896460      10.69989825
Si       3.17446011       3.10933894       5.71635113
Si       3.69753873       6.84379993       8.21976982
Si       4.63805607       2.02566377       4.82314531
Si       5.03679075       1.62670820      10.20857775
Si       6.83303315       2.72205782      16.70727349
Si       4.11307199       1.65978821       6.74711776
22
Lattice="5.229605028348752 -0.9343182816107848 0.7736366918919372 1.5841831008595655 5.071777472162076 1.179730094657625 2.701897608425127 1.6379307041847064 17.638827256055325" Properties=species:S:1:pos:R:3 unique_starting_index=40 config_type=initial n_minim_iter=7 stress="-0.0013492661508916438 0.00012671835093511113 -0.0010886032048770884 0.00012671835093511113 -0.003268573816633977 -0.0021103033338519673 -0.0010886032048770884 -0.0021103033338519673 -0.001447455834234939" pbc="T T T"
Si       8.51108496       1.69900077      16.05515580
Si       2.86198905       1.18687435       5.24149412
Si       5.37526744       1.17545695       8.26195203
Si       5.18036477       3.20425857      15.66657989
Si       5.02540023       2.51915547      17.55505994
Si       4.96626041       6.19800911       9.74817389
Si       5.36912933       1.36363116       3.05834171
Si       5.26465414       3.50399402      11.97256187
Si       3.80466487       1.49457715       1.13853856
Si       5.82341873       4.35607422      17.33226859
Si       4.52399152       1.65042752      12.17537773
Si       4.57621160       2.87319103      13.76539420
Si       1.93117817       2.26277157       1.35625842
Si       1.33706030       1.21666719       8.83041003
Si       4.60672005       1.29301169      15.98194379
Si       6.17003817       4.86571595      10.69896385
Si       3.17608685       3.10404177       5.71576344
Si       3.70726874       6.83859872       8.21923632
Si       4.64226655       2.02676518       4.82310578
Si       5.04349759       1.62618458      10.20931063
Si       6.83758826       2.71735409      16.71069380
Si       4.11823354       1.65743798       6.74860992
22
Lattice="5.232470643120562 -0.9314937829971254 0.7799573654525138 1.58764164147737 5.070478886217533 1.1888898331419713 2.727951999134839 1.660428478631856 17.650110328351715" Properties=species:S:1:pos:R:3 unique_starting_index=40 config_type=initial n_minim_iter=8 stress="-0.0006740236985138335 0.0016155993694484975 0.004723292289473316 0.0016155993694484975 -0.0050217117782105445 0.004883791025083434 0.004723292289473316 0.004883791025083434 0.0005615849888718484" pbc="T T T"
Si       8.53834050       1.72178127      16.07592477
Si       2.86966050       1.19006535       5.24860167
Si       5.39140822       1.18581870       8.27216190
Si       5.20571333       3.22282962      15.68371756
Si       5.05131358       2.54103823      17.57220686
Si       4.98453166       6.20755068       9.76498655
Si       5.37594019       1.36907971       3.06978274
Si       5.28332497       3.51866086      11.98687790
Si       3.80809254       1.49944460       1.14744007
Si       5.84896348       4.37671475      17.34957450
Si       4.54162664       1.66594219      12.18845666
Si       4.60124782       2.89041213      13.78151407
Si       1.93259890       2.26405181       1.36148398
Si       1.34957323       1.22779892       8.83584418
Si       4.63108560       1.31504571      15.99685351
Si       6.19004866       4.87889300      10.71464308
Si       3.18217640       3.10804412       5.72609408
Si       3.72252201       6.84854748       8.23697992
Si       4.64996183       2.03330828       4.83354379
Si       5.06285788       1.64005406      10.22052606
Si       6.86337073       2.73756981      16.72875746
Si       4.13039798       1.66481081       6.75673607
22
Lattice="5.2320045814490825 -0.9385855821095147 0.7764518551024122 1.5810811913900678 5.071984204479448 1.1821509029925068 2.7144006819404978 1.644050599528102 17.625131534444183" Properties=species:S:1:pos:R:3 unique_starting_index=40 config_type=initial n_minim_iter=9 stress="-0.0013654810759770727 0.00028172703937291287 -6.967282775088463e-05 0.00028172703937291287 0.0005539323121245666 8.063186045255539e-05 -6.967282775088463e-05 8.063186045255539e-05 -0.004742516311434804" pbc="T T T"
Si       8.52656256       1.70369954      16.05356358
Si       2.86302749       1.17432627       5.23929744
Si       5.38867610       1.17228102       8.25456635
Si       5.19252326       3.20481553      15.66041152
Si       5.03398774       2.52159194      17.54950407
Si       4.97363641       6.19822730       9.74206297
Si       5.37135501       1.36428826       3.06436847
Si       5.26877149       3.50609363      11.96271329
Si       3.80442831       1.50281065       1.14529808
Si       5.82746038       4.35866439      17.31539866
Si       4.52788668       1.65177298      12.17043705
Si       4.59698269       2.87621582      13.76280570
Si       1.92503429       2.26397354       1.35454658
Si       1.34143870       1.22039047       8.82091168
Si       4.61922124       1.29956858      15.97830144
Si       6.18004026       4.86933801      10.68777807
Si       3.16532416       3.09770829       5.71535823
Si       3.71173795       6.84994701       8.22129883
Si       4.63993052       2.02691411       4.82273818
Si       5.05988053       1.62800569      10.20140058
Si       6.84737959       2.71543017      16.70135439
Si       4.12488678       1.65303377       6.73911276
22
Lattice="5.224674818268232 -0.9399251217891933 0.7762624673564933 1.5768901602034453 5.070839440797853 1.1850183951784046 2.7057661550792558 1.647212618424539 17.65493765673906" Properties=species:S:1:pos:R:3 unique_starting_index=40 config_type=initial n_minim_iter=10 stress="-0.01228808730844551 -0.0006308763088773114 -0.0021830103291224155 -0.0006308763088773114 4.44468210939052e-05 0.0011152291137539875 -0.0021830103291224155 0.0011152291137539875 0.00941728930300161" pbc="T T T"
Si       8.51102633       1.70658830      16.08204415
Si       2.85703647       1.16781562       5.24775608
Si       5.37954821       1.17281394       8.26382704
Si       5.18177759       3.20670309      15.68925422
Si       5.02161152       2.52312687      17.58238856
Si       4.96430502       6.19745841       9.75727419
Si       5.36198535       1.36458291       3.07020307
Si       5.25561565       3.50644316      11.98054629
Si       3.79670073       1.50657924       1.14764102
Si       5.81115229       4.35916941      17.34063286
Si       4.51619151       1.65375763      12.18991620
Si       4.59164449       2.87712264      13.78705601
Si       1.91878584       2.26462753       1.35563960
Si       1.33886407       1.22157161       8.83538357
Si       4.60835655       1.30177372      16.00826295
Si       6.16804454       4.86918886      10.70279804
Si       3.15199465       3.09312219       5.72671673
Si       3.70580605       6.85429308       8.23698108
Si       4.62757997       2.02721903       4.83010619
Si       5.05357601       1.62895968      10.21810756
Si       6.83204075       2.71509765      16.73017332
Si       4.11755336       1.65139471       6.74694146
22
Lattice="5.23275256761592 -0.9383906800632005 0.7775491085681444 1.581273530154341 5.071993054837272 1.1853665151755985 2.7210582826900187 1.6543197749708607 17.620542194529683" Properties=species:S:1:pos:R:3 unique_starting_index=40 config_type=initial n_minim_iter=11 stress="-0.0027904364474691324 0.0017313118705490375 0.00019329974598809914 0.0017313118705490375 0.00213846662604905 0.0017608012280754786 0.00019329974598809914 0.0017608012280754786 -0.0026486634694098854" pbc="T T T"
Si       8.53567208       1.71773042      16.05849805
Si       2.86438984       1.15944691       5.23916973
Si       5.39404437       1.17843722       8.24446039
Si       5.20256551       3.21509539      15.66567468
Si       5.04056215       2.52957767      17.55563720
Si       4.98253213       6.20216254       9.73934984
Si       5.37095925       1.36966116       3.07032025
Si       5.26913318       3.51222747      11.95673255
Si       3.80050735       1.51645206       1.14921839
Si       5.82806924       4.36526362      17.30336808
Si       4.52797247       1.66071631      12.16652280
Si       4.61637764       2.88229498      13.76384943
Si       1.91922968       2.26816729       1.35266774
Si       1.35041647       1.22474854       8.81714823
Si       4.62522548       1.30831648      15.98416294
Si       6.18616407       4.87446819      10.68193434
Si       3.15014567       3.08835205       5.72090175
Si       3.72444924       6.86652579       8.22569543
Si       4.63128780       2.03208222       4.82300515
Si       5.07405686       1.63434672      10.20113037
Si       6.85251738       2.72018337      16.70359145
Si       4.12981709       1.65219459       6.73148304
22
Lattice="5.23886275759811 -0.9402867555354689 0.7814720818639348 1.5808666523691959 5.066668894406935 1.187750958895342 2.737251169486872 1.6558389305205459 17.61960770461224" Properties=species:S:1:pos:R:3 unique_starting_index=40 config_type=initial n_minim_iter=12 stress="-0.002229165858835344 -0.001318557698383163 0.0025250867114044537 -0.001318557698383163 0.0017957035640388142 0.00040726033950406137 0.0025250867114044537 0.00040726033950406137 -7.890879271718229e-05" pbc="T T T"
Si       8.56800837       1.72079198      16.06839175
Si       2.87199661       1.13271612       5.24200769
Si       5.41415448       1.17736385       8.24387431
Si       5.21952679       3.21814535      15.67823627
Si       5.06103574       2.52237904      17.56965379
Si       4.99592935       6.19740046       9.73569153
Si       5.37280985       1.37142191       3.07879191
Si       5.27770839       3.51306583      11.94999892
Si       3.79615451       1.53293766       1.15489433
Si       5.83904194       4.36452235      17.28971431
Si       4.53375597       1.66219658      12.16163226
Si       4.64688213       2.87470009      13.76929535
Si       1.91132509       2.27433632       1.35108182
Si       1.36471995       1.22906246       8.80714305
Si       4.63853931       1.30785900      15.99697421
Si       6.20134188       4.86666582      10.68098391
Si       3.12466130       3.06207720       5.73150381
Si       3.74509787       6.88095207       8.22777057
Si       4.61965090       2.03617473       4.81734728
Si       5.10085564       1.62808940      10.20383357
Si       6.87392214       2.70941299      16.71997308
Si       4.14553045       1.64037547       6.73093661
22
Lattice="5.236749624854284 -0.9376195171459403 0.7795469019795991 1.583396116641945 5.070353694104766 1.1853347982001667 2.729051354644113 1.6514644384380748 17.624174649946724" Properties=species:S:1:pos:R:3 unique_starting_index=40 config_type=initial n_minim_iter=13 stress="-0.0002605864455581195 -9.840719231184116e-05 0.0008000441060641867 -9.840719231184116e-05 0.0021395305120741836 0.001274929917360818 0.0008000441060641867 0.001274929917360818 0.0013338065811462178" pbc="T T T"
Si       8.55789899       1.72156995      16.06490918
Si       2.87390406       1.12816614       5.24414853
Si       5.40994567       1.17944323       8.24734799
Si       5.21766626       3.21681781      15.68413805
Si       5.05476634       2.51972540      17.57160346
Si       4.99562799       6.20084977       9.73559850
Si       5.36964316       1.37374668       3.07293639
Si       5.27192691       3.51375691      11.95083838
Si       3.79464093       1.54043941       1.15300912
Si       5.83277221       4.36419982      17.29287915
Si       4.52736218       1.66480430      12.16085147
Si       4.64103071       2.87017685      13.76957063
Si       1.91044743       2.27981283       1.34937370
Si       1.36349857       1.22815680       8.80803053
Si       4.63139552       1.30644978      16.00079020
Si       6.19895647       4.87127730      10.68154443
Si       3.11683080       3.05994516       5.73180162
Si       3.74150077       6.88698980       8.22523380
Si       4.61004550       2.04297113       4.81333484
Si       5.09732355       1.62277460      10.20365519
Si       6.86689714       2.70730057      16.72603595
Si       4.14728737       1.63857697       6.72954474
22
Lattice="5.235110418958462 -0.9341784964154184 0.7764410800071739 1.586277527305508 5.07272075539006 1.1832032393895953 2.7187912882717566 1.6499500499667628 17.622417832325514" Properties=species:S:1:pos:R:3 unique_starting_index=40 config_type=initial n_minim_iter=14 stress="0.003750532715559111 0.0009370331596230431 -0.0012849682707972265 0.0009370331596230431 0.003219355313932029 -0.0001492039327299261 -0.0012849682707972265 -0.0001492039327299261 0.003886928886898452" pbc="T T T"
Si       8.54914478       1.72393775      16.05283613
Si       2.87483228       1.12813962       5.24578501
Si       5.40194522       1.18394314       8.24688239
Si       5.20902570       3.21393437      15.67758482
Si       5.04420525       2.52275951      17.56636818
Si       4.99365695       6.20513044       9.73298662
Si       5.36571639       1.37554534       3.06507218
Si       5.26696672       3.51721890      11.95019092
Si       3.79665193       1.54305487       1.15227110
Si       5.82600159       4.36841569      17.29386819
Si       4.52086264       1.66750018      12.15581562
Si       4.63041302       2.86870795      13.76577160
Si       1.91268302       2.28319308       1.34683900
Si       1.36233322       1.22649380       8.80996616
Si       4.62254411       1.30887481      15.99398351
Si       6.19472795       4.87487427      10.68032590
Si       3.11529126       3.06144294       5.72919881
Si       3.73759376       6.88659071       8.22012793
Si       4.60559425       2.05026641       4.80637553
Si       5.08994206       1.62089792      10.20161025
Si       6.86214756       2.70902749      16.72350584
Si       4.14289237       1.64122967       6.72520231
22
Lattice="5.233764211581009 -0.9327377588095045 0.7737227467965765 1.5866347694361467 5.07161704597059 1.182008023794848 2.709561156977155 1.6490546121459964 17.620062633708237" Properties=species:S:1:pos:R:3 unique_starting_index=40 config_type=initial n_minim_iter=15 stress="0.004708678889377139 0.0013462180325316488 -0.0017083702839303845 0.0013462180325316488 0.0037014969249418057 -0.0012724685971138485 -0.0017083702839303845 -0.0012724685971138485 0.0038522700189095372" pbc="T T T"
Si       8.53835493       1.72452904      16.04254949
Si       2.87239747       1.12520632       5.24559997
Si       5.39778771       1.18418659       8.24637603
Si       5.20301055       3.21096849      15.67161826
Si       5.03724902       2.52753147      17.56185658
Si       4.98863628       6.20558201       9.72955937
Si       5.36135070       1.37496899       3.05900799
Si       5.26151324       3.51852940      11.95008837
Si       3.79783552       1.54134030       1.15311246
Si       5.81768566       4.36820494      17.29211368
Si       4.51414295       1.66785353      12.15141471
Si       4.62215258       2.86653162      13.76137802
Si       1.91284015       2.28424225       1.34493012
Si       1.35825789       1.22590969       8.81028800
Si       4.61490952       1.30723773      15.98738585
Si       6.18933649       4.87230098      10.67871982
Si       3.11101282       3.06123356       5.72706147
Si       3.73288567       6.88142494       8.21666532
Si       4.60300455       2.05424401       4.79892592
Si       5.08353166       1.62022821      10.20140732
Si       6.85286288       2.71071524      16.72127532
Si       4.13813555       1.64258804       6.72324335
22
Lattice="5.231443111148549 -0.9326566297384692 0.7710903114945045 1.5851233227710773 5.0697543910295995 1.1817414467521759 2.7017788237001725 1.6519307505728302 17.608109188417473" Properties=species:S:1:pos:R:3 unique_starting_index=40 config_type=initial n_minim_iter=16 stress="0.002754887120770663 0.0004636711284319139 -0.0008502086354072151 0.0004636711284319139 0.0010179674130955795 -2.5152995973732817e-05 -0.0008502086354072151 -2.5152995973732817e-05 0.0012809934079987273" pbc="T T T"
Si       8.52858591       1.72679606      16.02683778
Si       2.87061962       1.12073974       5.24117935
Si       5.39278196       1.18450732       8.23977920
Si       5.19739632       3.21187499      15.65694827
Si       5.02697446       2.53127028      17.54939088
Si       4.98391888       6.20627488       9.72147066
Si       5.35593696       1.37390584       3.05190952
Si       5.25468104       3.52087820      11.94482050
Si       3.79773249       1.54095816       1.15596572
Si       5.80954540       4.37044788      17.28018098
Si       4.50618985       1.67019259      12.14152514
Si       4.61795132       2.86603020      13.75025416
Si       1.90862188       2.28700494       1.34418910
Si       1.35433357       1.22688457       8.80678340
Si       4.60712123       1.30936445      15.97431791
Si       6.18342683       4.87068278      10.67093132
Si       3.09982224       3.05728792       5.72260815
Si       3.72837552       6.87782518       8.21059144
Si       4.59386517       2.05735673       4.79156893
Si       5.07942586       1.62123266      10.19609286
Si       6.84599154       2.71533038      16.71137101
Si       4.13683292       1.64396058       6.71847800
22
Lattice="5.23079637518851 -0.9343303692941457 0.7709329268176451 1.5833612367662397 5.070000858540887 1.1813938903759373 2.7005232102954357 1.6507929739618339 17.605827246414297" Properties=species:S:1:pos:R:3 unique_starting_index=40 config_type=initial n_minim_iter=17 stress="0.0005392712533040136 -0.0007407777962411886 -8.781399757916768e-05 -0.0007407777962411886 -3.872401871168071e-05 0.0010880281999761379 -8.781399757916768e-05 0.0010880281999761379 -0.0006558449634217044" pbc="T T T"
Si       8.52825618       1.72462353      16.02302042
Si       2.87122220       1.11427205       5.24021646
Si       5.39412839       1.18192626       8.23956994
Si       5.19729174       3.21017659      15.65291008
Si       5.02574567       2.53092475      17.54754729
Si       4.98200297       6.20626160       9.71921236
Si       5.35104123       1.37238620       3.04991922
Si       5.25252378       3.52062612      11.94543173
Si       3.79506124       1.54197498       1.15755851
Si       5.80872062       4.36763070      17.27930364
Si       4.50270158       1.66897587      12.13887963
Si       4.61955297       2.86313606      13.74923985
Si       1.90574233       2.29035707       1.34338257
Si       1.35451096       1.22585885       8.80804377
Si       4.60544310       1.30860159      15.97183597
Si       6.18195702       4.86906560      10.66887657
Si       3.08938260       3.05171991       5.72109269
Si       3.72670240       6.87469785       8.20958722
Si       4.58635839       2.05866424       4.78806691
Si       5.08067492       1.61928942      10.19554051
Si       6.84512534       2.71600671      16.71268542
Si       4.13724688       1.64505683       6.71410113
22
Lattice="5.227773511159267 -0.9338596166640599 0.7707529526289637 1.583221413885119 5.070600155084606 1.1796749300194347 2.6984831739444477 1.6466858851337973 17.60103640140327" Properties=species:S:1:pos:R:3 unique_starting_index=40 config_type=initial n_minim_iter=18 stress="-0.0025651266670522936 -0.0006136593929477562 0.0008006090654773464 -0.0006136593929477562 -0.002947145673910186 0.0008105432207108789 0.0008006090654773464 0.0008105432207108789 -0.0030477342407781425" pbc="T T T"
Si       8.52563495       1.72342013      16.01706683
Si       2.86943733       1.10466468       5.23813698
Si       5.39305424       1.17955605       8.23685548
Si       5.19726122       3.20698890      15.64921553
Si       5.02316597       2.52808074      17.54182072
Si       4.98259262       6.20573674       9.71341493
Si       5.34273409       1.37296630       3.04836230
Si       5.24921642       3.51765109      11.94327778
Si       3.78991743       1.54381374       1.16011129
Si       5.80783407       4.36728153      17.27511709
Si       4.49806791       1.66897786      12.13397856
Si       4.62089540       2.85851688      13.74623028
Si       1.90303625       2.29483628       1.34122429
Si       1.35542492       1.22315040       8.80815941
Si       4.60226201       1.30618216      15.96772985
Si       6.17980270       4.86906153      10.66380986
Si       3.07599742       3.04636161       5.71605780
Si       3.72658226       6.86736550       8.20847006
Si       4.57848230       2.06144628       4.78091131