16
Lattice="6.682752006529147 -1.4487059250859406 -0.8183571538380476 -0.516896898794881 5.436186477689556 -0.5918014737233497 0.13849000902713213 0.4571109688929629 9.669235654345627" Properties=species:S:1:pos:R:3 unique_starting_index=30 config_type=initial n_minim_iter=1 energy=-2623.328139971405 free_energy=-2623.328139971405 pbc="T T T"
Si       3.39612560       2.52730722       5.05969411
Si       2.90821951       1.91728430       3.19938292
Si       1.23985854       2.61143797       2.31654967
Si       5.06448657       1.83315355       5.94252735
Si       3.68322801       2.34717466       7.33511396
Si       2.62111711       2.09741686       0.92396306
Si       4.11936051       2.04109422      -0.41517082
Si       2.18498461       2.40349731       8.67424785
Si       1.54429933       2.90724771       4.31742835
Si       4.76004579       1.53734381       3.94164868
Si       6.60470474       1.94001122       4.63263794
Si      -0.30035962       2.50458030       3.62643909
Si       1.12275935       1.07956761       3.60584042
Si       5.18158576       3.36502391       4.65323661
Si       3.01603547       3.68467587      -0.74160626
Si       3.28830965       0.75991565       9.00068329
16
Lattice="6.6808921275449675 -1.4473629039179028 -0.8176160890191386 -0.5155704839018648 5.435875745974429 -0.5899800871588774 0.14004868275088975 0.4602806740825296 9.66716124692438" Properties=species:S:1:pos:R:3 unique_starting_index=30 config_type=initial n_minim_iter=2 stress="-0.003776788472923216 0.0013947452564144946 0.00014159808644770365 0.0013947452564144946 -0.0016778342428175196 -0.0008578119999557946 0.00014159808644770365 -0.0008578119999557946 -0.0017425530114445417" pbc="T T T"
Si       3.39676087       2.52974372       5.05994497
Si       2.90860946       1.91904979       3.19962010
Si       1.24047849       2.61239567       2.31708164
Si       5.06489184       1.83639784       5.94248343
Si       3.68415008       2.35045779       7.33466858
Si       2.62122024       2.09833573       0.92489649
Si       4.11889735       2.04208664      -0.41383325
Si       2.18647297       2.40670687       8.67339832
Si       1.54538638       2.90905789       4.31770334
Si       4.75998395       1.53973563       3.94186173
Si       6.60445403       1.94305497       4.63314530
Si      -0.29908370       2.50573854       3.62641978
Si       1.12331258       1.08104371       3.60545090
Si       5.18205775       3.36774980       4.65411417
Si       3.01628842       3.68526837      -0.73980162
Si       3.28908191       0.76352515       8.99936669
16
Lattice="6.682604474571949 -1.4478268632571942 -0.817528292247708 -0.5157278105374584 5.436665084877721 -0.5884351140722823 0.14087968995987815 0.4632251136788968 9.667666892017488" Properties=species:S:1:pos:R:3 unique_starting_index=30 config_type=initial n_minim_iter=3 stress="0.0023771427389649657 0.0017219805963299886 0.0006622132627879025 0.0017219805963299886 0.0031517115812410186 0.0010303712439561927 0.0006622132627879025 0.0010303712439561927 0.0017417020686118709" pbc="T T T"
Si       3.39800155       2.53167445       5.06129432
Si       2.90975480       1.92038889       3.20040917
Si       1.24081441       2.61345789       2.31803870
Si       5.06694195       1.83860545       5.94366479
Si       3.68576824       2.35309370       7.33579139
Si       2.62198812       2.09896964       0.92591209
Si       4.11996629       2.04246796      -0.41300665
Si       2.18779006       2.40959538       8.67471014
Si       1.54623010       2.91088803       4.31899149
Si       4.76152625       1.54117531       3.94271199
Si       6.60653777       1.94470688       4.63434234
Si      -0.29878141       2.50735645       3.62736115
Si       1.12389344       1.08233747       3.60592487
Si       5.18386291       3.36972587       4.65577862
Si       3.01716381       3.68590197      -0.73854977
Si       3.29059255       0.76616137       9.00025326
16
Lattice="6.683800222195953 -1.4510937237764174 -0.8179187163846037 -0.5186712442330766 5.434309473102713 -0.5861272721585429 0.14047820502345953 0.46667570163357625 9.664515346503977" Properties=species:S:1:pos:R:3 unique_starting_index=30 config_type=initial n_minim_iter=4 stress="0.0023381820407215345 -0.0021139699397920743 0.00012142015984773203 -0.0021139699397920743 -0.003635780499732624 0.0031355931245769216 0.00012142015984773203 0.0031355931245769216 -0.001959681626828969" pbc="T T T"
Si       3.39644586       2.53050194       5.06091522
Si       2.90916132       1.91938951       3.19955414
Si       1.23869855       2.61224498       2.31813677
Si       5.06690863       1.83764647       5.94233259
Si       3.68469856       2.35301689       7.33356215
Si       2.62090862       2.09687456       0.92690721
Si       4.11896485       2.03945771      -0.41262160
Si       2.18664233       2.41043374       8.67309096
Si       1.54487193       2.91033685       4.31905412
Si       4.76073525       1.53955460       3.94141523
Si       6.60546573       1.94166140       4.63296972
Si      -0.29985854       2.50823005       3.62749964
Si       1.12331392       1.08285018       3.60493673
Si       5.18229327       3.36704127       4.65553263
Si       3.01570307       3.68293253      -0.73719885
Si       3.28990412       0.76695892       8.99766820
16
Lattice="6.679261605205787 -1.4538216641271717 -0.8179500794489651 -0.5202428817347672 5.436662855278502 -0.587895678125627 0.13940376773971538 0.46352737391729276 9.663977176256392" Properties=species:S:1:pos:R:3 unique_starting_index=30 config_type=initial n_minim_iter=5 stress="-0.0023944416256961288 -0.0023113419425327096 -8.962175796183098e-05 -0.0023113419425327096 0.0029975806261714143 0.0007746986666408348 -8.962175796183098e-05 0.0007746986666408348 -0.0023653282809206937" pbc="T T T"
Si       3.39177165       2.52778003       5.06071746
Si       2.90665084       1.91858853       3.19741396
Si       1.23488074       2.61155634       2.31648186
Si       5.06354175       1.83481222       5.94164956
Si       3.68053434       2.35031646       7.33064810
Si       2.61788815       2.09605211       0.92748332
Si       4.11455903       2.03956528      -0.41470285
Si       2.18386346       2.40680328       8.67283427
Si       1.54283789       2.90905475       4.31891204
Si       4.75558461       1.53731381       3.93921938
Si       6.59839641       1.93729010       4.63050573
Si      -0.29997391       2.50907846       3.62762568
Si       1.12160804       1.08174466       3.60431869
Si       5.17681445       3.36462390       4.65381273
Si       3.01296048       3.68490929      -0.73940430
Si       3.28546201       0.76145927       8.99753572
16
Lattice="6.6797733770827215 -1.4514813327836837 -0.8180749302717271 -0.5192636518831938 5.433340305267308 -0.5893308498679141 0.13924401896692915 0.461049418559435 9.667140602851015" Properties=species:S:1:pos:R:3 unique_starting_index=30 config_type=initial n_minim_iter=6 stress="-0.0003270046655405913 0.0008608354712246595 -0.001182810844793803 0.0008608354712246595 -0.0029872671521357004 0.0004911090664471508 -0.001182810844793803 0.0004911090664471508 0.001897029473112966" pbc="T T T"
Si       3.39233032       2.52514975       5.06244120
Si       2.90742343       1.91775864       3.19729362
Si       1.23467019       2.60944952       2.31629051
Si       5.06508356       1.83345888       5.94344431
Si       3.68113862       2.34805401       7.33165486
Si       2.61861512       2.09485438       0.92807997
Si       4.11487937       2.03955754      -0.41594164
Si       2.18487437       2.40335085       8.67567646
Si       1.54392489       2.90639088       4.32024438
Si       4.75582886       1.53651751       3.93949044
Si       6.59907073       1.93579884       4.63098128
Si      -0.29931699       2.50710956       3.62875355
Si       1.12170882       1.08049052       3.60531340
Si       5.17804493       3.36241788       4.65442142
Si       3.01450441       3.68399562      -0.74102472
Si       3.28524934       0.75891277       9.00075954
16
Lattice="6.682471473514306 -1.4523083875027438 -0.8129513400382724 -0.5212057972821172 5.432190033582373 -0.5922509209284512 0.14472322900727339 0.4555679243510817 9.661055814655587" Properties=species:S:1:pos:R:3 unique_starting_index=30 config_type=initial n_minim_iter=7 stress="0.0025937466379579626 3.8742184039182605e-05 0.0053758614730290396 3.8742184039182605e-05 -0.0022922925167113 -0.0025813207314417863 0.0053758614730290396 -0.0025813207314417863 -0.002957348247874123" pbc="T T T"
Si       3.39653314       2.51900629       5.06151195
Si       2.90945576       1.91644328       3.19434161
Si       1.23444974       2.60661121       2.31342769
Si       5.07153916       1.82883836       5.94242587
Si       3.68563453       2.34290682       7.32649611
Si       2.62035437       2.09254275       0.92935744
Si       4.11386118       2.03845865      -0.41551509
Si       2.19212773       2.39699092       8.67136864
Si       1.54781436       2.90261518       4.31818946
Si       4.75817455       1.53283439       3.93766409
Si       6.60369584       1.93003683       4.63014606
Si      -0.29770693       2.50541274       3.62570749
Si       1.12380830       1.07762705       3.60326677
Si       5.18218060       3.35782252       4.65258678
Si       3.01522707       3.68403869      -0.74210759
Si       3.29076184       0.75141088       8.99796115
16
Lattice="6.682609510923176 -1.456718719590591 -0.819013655917746 -0.5243219193895214 5.431845839014419 -0.5920878909476006 0.13493286846839514 0.45440306725799995 9.657238213835997" Properties=species:S:1:pos:R:3 unique_starting_index=30 config_type=initial n_minim_iter=8 stress="0.0018112286936877982 0.0010004463206335365 -0.0018782458273052536 0.0010004463206335365 -0.00013334030838546158 -0.001456088054065367 -0.0018782458273052536 -0.001456088054065367 -0.004231465709458269" pbc="T T T"
Si       3.39097825       2.51118013       5.05991357
Si       2.90224221       1.91835006       3.18622310
Si       1.22713130       2.60384741       2.30964255
Si       5.06608916       1.82568278       5.93649412
Si       3.67408878       2.34055897       7.31619793
Si       2.61913168       2.08897122       0.92993873
Si       4.10685259       2.03580184      -0.42215512
Si       2.18636787       2.39372835       8.66829179
Si       1.54497667       2.90047654       4.31785276
Si       4.74824379       1.52905365       3.92828390
Si       6.59538607       1.92259717       4.62037310
Si      -0.30216561       2.50693302       3.62576357
Si       1.11895271       1.07559400       3.60082045
Si       5.17426775       3.35393619       4.64531622
Si       3.01444630       3.68509662      -0.74831173
Si       3.27877416       0.74443357       8.99444840
16
Lattice="6.679190401495653 -1.4604195530978776 -0.8185141092395279 -0.527248144006759 5.431078249957222 -0.5918392173013763 0.13640370605382665 0.4555735924970933 9.663920461903643" Properties=species:S:1:pos:R:3 unique_starting_index=30 config_type=initial n_minim_iter=9 stress="-0.0033010167076725407 -0.001636648853790575 0.002361027565695907 -0.001636648853790575 -0.001094593868715382 -0.0003038263199720435 0.002361027565695907 -0.0003038263199720435 0.0032970354950643457" pbc="T T T"
Si       3.38941725       2.50740027       5.06567832
Si       2.89892872       1.91883202       3.18788881
Si       1.22394003       2.60249195       2.31117865
Si       5.06440593       1.82374034       5.94238848
Si       3.67085595       2.33959936       7.32014368
Si       2.61749001       2.08663293       0.93342346
Si       4.10093823       2.03308440      -0.42212007
Si       2.18740774       2.39314789       8.67568721
Si       1.54457071       2.89948095       4.32266790
Si       4.74377525       1.52675134       3.93089924
Si       6.59058867       1.91850150       4.62474873
Si      -0.30224271       2.50773079       3.62881841
Si       1.11821946       1.07526719       3.60367251
Si       5.17012650       3.35096510       4.64989462
Si       3.01102522       3.68435362      -0.74921957
Si       3.27732074       0.74187867       9.00278671
16
Lattice="6.6847579610078895 -1.4668279362787628 -0.8265001848556115 -0.5320272433974654 5.430841010429104 -0.5901345786736688 0.12206841021708609 0.4550225147111513 9.644829360511041" Properties=species:S:1:pos:R:3 unique_starting_index=30 config_type=initial n_minim_iter=10 stress="-0.0017006709836072445 0.0009436886021281795 0.0012164841579751823 0.0009436886021281795 0.0005560457585071244 -0.002970193596570465 0.0012164841579751823 -0.002970193596570465 -0.0013255442671258931" pbc="T T T"
Si       3.38590786       2.49065960       5.05446980
Si       2.88889127       1.92837599       3.17372480
Si       1.21024578       2.59889998       2.30090881
Si       5.06455335       1.82013560       5.92728578
Si       3.65392475       2.33868940       7.28770846
Si       2.62087437       2.08034619       0.94048614
Si       4.08942089       2.02910036      -0.43179633
Si       2.18537824       2.38993523       8.65999093
Si       1.54184458       2.89559558       4.31694308
Si       4.73295454       1.52344001       3.91125152
Si       6.58106156       1.91053029       4.60645636
Si      -0.30626243       2.50850530       3.62173823
Si       1.11089058       1.07599616       3.59540918
Si       5.16390854       3.34303943       4.63278541
Si       3.01353045       3.69245392      -0.76102453
Si       3.26126868       0.72658167       8.98921913
16
Lattice="6.690187540471799 -1.4889502478302226 -0.8499296281138656 -0.5460513225793815 5.430960069856576 -0.5714263175511622 0.08747842231994664 0.48040281830740417 9.605702568253998" Properties=species:S:1:pos:R:3 unique_starting_index=30 config_type=initial n_minim_iter=11 stress="-0.002790398166795231 0.0010763282280566151 0.001980547152768113 0.0010763282280566151 0.004083160555342677 -0.002623213388551811 0.001980547152768113 -0.002623213388551811 0.0006906086295581494" pbc="T T T"
Si       3.36868416       2.46746844       5.03576117
Si       2.86293048       1.95494420       3.14858546
Si       1.17425996       2.60195517       2.27977492
Si       5.05735468       1.82045747       5.90457170
Si       3.60791106       2.35499714       7.22113676
Si       2.62370358       2.06741550       0.96320986
Si       4.05107747       2.01690139      -0.45128411
Si       2.18053717       2.40551125       8.63563073
Si       1.52430756       2.90199369       4.31478145
Si       4.70730708       1.52041895       3.86956517
Si       6.55256762       1.90230440       4.57060495
Si      -0.32095297       2.52010824       3.61374167
Si       1.09278269       1.08425692       3.58138326
Si       5.13883195       3.33815572       4.60296336
Si       3.01297059       3.70410794      -0.77892874
Si       3.21864405       0.71830470       8.96327536
16
Lattice="6.692453792590673 -1.4922272476383105 -0.8555474414000658 -0.5474268294880711 5.4324058262180595 -0.5660808236100788 0.07891273405688536 0.48757027477525156 9.590890151431815" Properties=species:S:1:pos:R:3 unique_starting_index=30 config_type=initial n_minim_iter=12 stress="-0.005699776975754103 0.0013145265691681422 -0.0013865894800272184 0.0013145265691681422 0.003510733176333157 -0.0026030820504715974 -0.0013865894800272184 -0.0026030820504715974 0.0020458311317616534" pbc="T T T"
Si       3.36641628       2.46573663       5.02892873
Si       2.85752341       1.96201222       3.14033316
Si       1.16801772       2.60456816       2.27321423
Si       5.05592198       1.82318070       5.89604766
Si       3.59864571       2.36136987       7.20075210
Si       2.62529399       2.06637898       0.96850979
Si       4.04493243       2.01579056      -0.45519412
Si       2.17900727       2.41195829       8.62445601
Si       1.52029270       2.90496981       4.31136546
Si       4.70364699       1.52277904       3.85789642
Si       6.54914275       1.90416711       4.55901181
Si      -0.32520305       2.52358174       3.61025008
Si       1.08987479       1.08833990       3.57601806
Si       5.13406491       3.33940895       4.59324383
Si       3.01451875       3.70832202      -0.78212796
Si       3.20942095       0.71942683       8.95138984
16
Lattice="6.706409989245598 -1.4942033444844744 -0.8814366379951457 -0.5381928189212072 5.451783696039645 -0.5217592841640433 0.04078347631421579 0.5515755340189863 9.470852186339775" Properties=species:S:1:pos:R:3 unique_starting_index=30 config_type=initial n_minim_iter=13 stress="-0.0018339059476448478 0.00029982422915989827 -0.013783055220608477 0.00029982422915989827 0.013397617765154992 0.002024920627098824 -0.013783055220608477 0.002024920627098824 0.000679300518862232" pbc="T T T"
Si       3.36153440       2.50529081       4.97202610
Si       2.84746625       2.00386508       3.09563016
Si       1.15331481       2.64553619       2.23722897
Si       5.05568584       1.86361969       5.83042729
Si       3.56676140       2.42802359       7.08004764
Si       2.64223925       2.08113229       0.98760863
Si       4.04751796       2.02186408      -0.45559861
Si       2.16148269       2.48729181       8.52325487
Si       1.50267881       2.94593791       4.27402742
Si       4.70632184       1.56321798       3.79362885
Si       6.55229102       1.95976405       4.49195017
Si      -0.34329037       2.54939184       3.57570609
Si       1.08548042       1.12490876       3.53579899
Si       5.12352023       3.38424713       4.53185727
Si       3.03072641       3.72245858      -0.77471476
Si       3.17827424       0.78669730       8.84237102
16
Lattice="6.714331066176542 -1.4843435640485092 -0.8937554669074892 -0.525157370850957 5.457769158634815 -0.4953087723629317 0.023428901223091523 0.5900625439427427 9.399705958047713" Properties=species:S:1:pos:R:3 unique_starting_index=30 config_type=initial n_minim_iter=14 stress="0.0006624862308851406 0.00013587718045565575 -0.015745895904969772 0.00013587718045565575 0.010790396842380402 0.002694212433380541 -0.015745895904969772 0.002694212433380541 -0.011462628042855333" pbc="T T T"
Si       3.36701603       2.53536363       4.94540452
Si       2.84558657       2.02812451       3.06523720
Si       1.14765171       2.67374987       2.21832393
Si       5.06495088       1.88973827       5.79231779
Si       3.55380169       2.47200808       7.01397757
Si       2.65880091       2.09148006       0.99666415
Si       4.05732479       2.02866597      -0.45399129
Si       2.15527781       2.53482217       8.46463301
Si       1.49697076       2.96890615       4.24868130
Si       4.71563184       1.59458198       3.76196042
Si       6.56091483       2.00103625       4.45385134
Si      -0.34831223       2.56245189       3.55679038
Si       1.08873972       1.14782170       3.51269335
Si       5.12386287       3.41566644       4.49794837
Si       3.04516443       3.73253885      -0.76934243
Si       3.16743817       0.83094929       8.77998415
16
Lattice="6.703468021255169 -1.4560112004016443 -0.8976661930497795 -0.49765586881966417 5.459865372915397 -0.47233657755861336 0.026957608279222996 0.6309080265841819 9.38843398850299" Properties=species:S:1:pos:R:3 unique_starting_index=30 config_type=initial n_minim_iter=15 stress="0.004435446370785264 -0.001935380652864364 -0.009690216057489766 -0.001935380652864364 0.002513594017087364 0.0024497440284704493 -0.009690216057489766 0.0024497440284704493 -0.00018295113538326305" pbc="T T T"
Si       3.37365013       2.58611958       4.94622110
Si       2.85911963       2.04864262       3.07221012
Si       1.15996890       2.70618247       2.22129242
Si       5.07280086       1.92857973       5.79713880
Si       3.56076829       2.52316057       7.01584260
Si       2.67200147       2.11160163       1.00258862
Si       4.07486399       2.04191048      -0.44431575
Si       2.15790577       2.59285172       8.46274697
Si       1.50771111       2.99455566       4.24510216
Si       4.72505865       1.64020654       3.77332905
Si       6.58010878       2.05971092       4.45309617
Si      -0.34733902       2.57505128       3.56533505
Si       1.10450109       1.17469503       3.50976503
Si       5.12826867       3.46006717       4.50866619
Si       3.05574387       3.74171640      -0.75669937
Si       3.17702589       0.89304580       8.77513059
16
Lattice="6.697521211361506 -1.443247534726918 -0.8970541177404243 -0.48463077156892587 5.463878259774666 -0.46117681130720156 0.03114952828589103 0.6503511834236698 9.374891010526316" Properties=species:S:1:pos:R:3 unique_starting_index=30 config_type=initial n_minim_iter=16 stress="0.006913070075160506 0.0025704606093163744 -0.007760796207445019 0.0025704606093163744 0.001665884913242478 0.003056127653527368 -0.007760796207445019 0.003056127653527368 -0.0021272732939982874" pbc="T T T"
Si       3.37371895       2.60876757       4.94839699
Si       2.87032102       2.06221434       3.06826309
Si       1.16569103       2.72323604       2.22448097
Si       5.07834894       1.94774587       5.79217911
Si       3.56570856       2.54791284       7.00787771
Si       2.67833141       2.12306907       1.00878237
Si       4.07976794       2.04620490      -0.43774196
Si       2.16427203       2.62477701       8.45440204
Si       1.51346561       3.00912834       4.23680631
Si       4.73057436       1.66185357       3.77985377
Si       6.58461534       2.08733842       4.45013880
Si      -0.34057537       2.58364349       3.56652129
Si       1.10890319       1.18503142       3.50435826
Si       5.13513678       3.48595049       4.51230182
Si       3.05868610       3.74634358      -0.75143577
Si       3.18535387       0.92463833       8.76809585
16
Lattice="6.696161044030384 -1.4424116254481778 -0.8925579012624912 -0.483309545351878 5.468177728658052 -0.4611592106222777 0.03895708623254511 0.6522800270551284 9.381871991772899" Properties=species:S:1:pos:R:3 unique_starting_index=30 config_type=initial n_minim_iter=17 stress="0.003321488238448958 0.0006959948832697995 -0.0029551816549761275 0.0006959948832697995 -0.0009492081567882312 0.0009903066784672492 -0.0029551816549761275 0.0009903066784672492 0.004438283846842956" pbc="T T T"
Si       3.37636353       2.61561781       4.95681236
Si       2.87544506       2.06242832       3.07134252
Si       1.16852298       2.73237831       2.23179546
Si       5.08328561       1.94566783       5.79635942
Si       3.57256319       2.55095610       7.01841144
Si       2.67924540       2.12709003       1.00974344
Si       4.08145153       2.05133742      -0.43492534
Si       2.17035706       2.62670871       8.46308022
Si       1.51681740       3.01228270       4.23162919
Si       4.73499118       1.66576343       3.79652569
Si       6.58580251       2.09115211       4.45870429
Si      -0.33399392       2.58689402       3.56945059
Si       1.11630978       1.18553024       3.50501497
Si       5.13549880       3.49251589       4.52313991
Si       3.05960438       3.74598647      -0.75055381
Si       3.19220420       0.93205966       8.77870869
16
Lattice="6.694221384109184 -1.4435090155264836 -0.8924081123229626 -0.4851431313167919 5.462345734392052 -0.45963530069464303 0.03755794315902496 0.6528722764203099 9.368569470633163" Properties=species:S:1:pos:R:3 unique_starting_index=30 config_type=initial n_minim_iter=18 stress="-0.003955069633684934 0.000899234565027101 -0.0023044117195972274 0.000899234565027101 0.0015235588026940206 0.00017893514798074798 -0.0023044117195972274 0.00017893514798074798 -0.006246821441959363" pbc="T T T"
Si       3.37106813       2.61055145       4.95257923
Si       2.87556806       2.06115754       3.06394682
Si       1.16481983       2.73528642       2.22921337
Si       5.08181636       1.93642257       5.78731269
Si       3.56706738       2.54771524       7.00426977
Si       2.67956881       2.12399376       1.01225628
Si       4.07914757       2.04834459      -0.43516949
Si       2.16748862       2.62336441       8.45169555
Si       1.51989560       3.01069175       4.22309608
Si       4.72674060       1.66101724       3.79342998
Si       6.58097347       2.08736481       4.45091173
Si      -0.33433727       2.58434419       3.56561433
Si       1.11826668       1.18359402       3.49704452
Si       5.12836952       3.48811498       4.51948153
Si       3.05870125       3.74392614      -0.75445434
Si       3.18793495       0.92778286       8.77098040
16
Lattice="6.69188069645887 -1.4417822933356348 -0.8863388530324756 -0.48726687970726157 5.451533848181037 -0.46639777792960646 0.045443632797278345 0.6418889284293625 9.38012861616421" Properties=species:S:1:pos:R:3 unique_starting_index=30 config_type=initial n_minim_iter=19 stress="-0.00043731861021543316 0.00028967093361933983 0.0007838820445082372 0.00028967093361933983 0.0004908123795509478 -0.0011529366260939825 0.0007838820445082372 -0.0011529366260939825 -0.001429327748099897" pbc="T T T"
Si       3.37070945       2.59815037       4.96132740
Si       2.87934800       2.05349011       3.06606459
Si       1.16893905       2.73031562       2.23255780
Si       5.08111840       1.92132487       5.79483418
Si       3.57162196       2.53285884       7.01691847
Si       2.67843549       2.11878164       1.01047351
Si       4.08017099       2.04370477      -0.43449394
Si       2.16988646       2.60793571       8.46188593
Si       1.52343195       3.00340795       4.22455641
Si       4.72662550       1.64823254       3.80283557
Si       6.58045409       2.07700160       4.45762412
Si      -0.33039664       2.57463888       3.56976786
Si       1.12102573       1.17703389       3.49735992
Si       5.12903172       3.47460659       4.53003207
Si       3.05669976       3.73958111      -0.75974105
Si       3.19335769       0.91205937       8.78713304
16
Lattice="6.68848599258232 -1.4506917396133785 -0.8815129767902394 -0.49359271559949935 5.459024772429173 -0.47078642251542124 0.051974590997691514 0.636427944683326 9.391659446010415" Properties=species:S:1:pos:R:3 unique_starting_index=30 config_type=initial n_minim_iter=20 stress="-0.00041929486228271763 -0.0015185083136476317 0.002161885665449967 -0.0015185083136476317 0.002524737848180136 -0.0007364907478437494 0.002161885665449967 -0.0007364907478437494 0.0027949851958487945" pbc="T T T"
Si       3.36574961       2.58698987       4.97241432
Si       2.88111826       2.05777111       3.06694572
Si       1.16844887       2.73554251       2.23481445
Si       5.07841899       1.90921847       5.80454560
Si       3.56958377       2.52653424       7.02785083
Si       2.67728410       2.11822674       1.01150921
Si       4.07351187       2.04258437      -0.43600939
Si       2.17335599       2.60217661       8.47536944
Si       1.52443100       3.00444468       4.22810680
Si       4.72243686       1.64031630       3.81125324
Si       6.57609203       2.07143580       4.46486783
Si      -0.32922416       2.57332518       3.57449222
Si       1.12275706       1.18063290       3.49573661
Si       5.12411081       3.46412808       4.54362343
Si       3.05437769       3.73988046      -0.76910198
Si       3.19249018       0.90488051       8.80846202
16
Lattice="6.686459594389775 -1.4586654535198187 -0.8735732059810105 -0.5005417169120866 5.46050641231968 -0.47272565906795605 0.06256282120171582 0.6341033014920837 9.393223841211665" Properties=species:S:1:pos:R:3 unique_starting_index=30 config_type=initial n_minim_iter=21 stress="0.0033456423836119072 -0.0019361730348799147 0.004187300843209381 -0.0019361730348799147 0.0008388474967505892 -0.0001296939062271951 0.004187300843209381 -0.0001296939062271951 0.001980111392419232" pbc="T T T"
Si       3.36424859       2.57066310       4.97949018
Si       2.88423210       2.06528116       3.06743480
Si       1.17112691       2.74132101       2.23643167
Si       5.07735378       1.89462325       5.81049331
Si       3.57255650       2.51888531       7.03074740
Si       2.67592420       2.11705895       1.01617757
Si       4.07112700       2.03916572      -0.43506399
Si       2.17735369       2.59677854       8.48198896
Si       1.52583680       3.00524914       4.22820370
Si       4.72264390       1.63069512       3.81872127
Si       6.57637352       2.06376366       4.47058762
Si      -0.32789282       2.57218060       3.57633736
Si       1.12822266       1.18136384       3.48924428
Si       5.12025804       3.45458042       4.55768070
Si       3.05388768       3.73435198      -0.77782563
Si       3.19459302       0.90159228       8.82475061
