22
Lattice="5.230591733529805 -0.353621039856346 -1.6010430895332086 -1.4777219977132197 10.151918059304872 -1.0758861887142768 -4.8393408576025765 -4.053611660541984 11.619920252496897" Properties=species:S:1:pos:R:3 unique_starting_index=18 config_type=initial n_minim_iter=1 energy=-3591.172163785022 free_energy=-3591.172163785022 pbc="T T T"
Si       1.44816201       8.65124260       0.02778624
Si      -1.64085057      -0.83334871       6.25672552
Si      -3.89169334      -2.22377120      10.37162225
Si      -0.32713739      -1.51777841       9.37664874
Si      -4.85896455       1.17488952      10.93287133
Si       4.00624692       2.06501744      -0.14790936
Si       2.39437957       0.55791368      -0.02240647
Si      -1.25659969       2.43032415       8.88160032
Si      -1.97467012      -2.55788291       9.88673164
Si      -2.81659056       1.76452771       6.69699215
Si       0.58684623       0.95700971       4.03156198
Si      -2.42132852       4.10156536       6.44865168
Si      -3.47492816      -2.01116367       6.77830833
Si       0.11675529       7.17187374      -0.22761637
Si       1.04555214       2.81359661       4.66821073
Si       1.64037602       6.82249246      -1.49123333
Si      -0.54145546      -1.03675537       4.30028308
Si       1.81912747      -3.35820088       6.94590675
Si       0.24198828       2.62303232       2.83649117
Si      -2.96893599       3.15962597       8.12703556
Si      -0.98791361       4.19368026       3.00296922
Si      -1.87951174      -1.82733827       7.99661942
22
Lattice="5.233392876567672 -0.3527368334242656 -1.598280939533959 -1.4789463113355756 10.159951202716641 -1.0828253490877087 -4.839112785787673 -4.064794294166588 11.613793820144444" Properties=species:S:1:pos:R:3 unique_starting_index=18 config_type=initial n_minim_iter=2 stress="0.010327878813780965 -0.0002180959400368153 -0.0009456288526682336 -0.0002180959400368153 0.006320923643414554 -0.002782539701729031 -0.0009456288526682336 -0.002782539701729031 0.0035732600542845738" pbc="T T T"
Si       1.45003969       8.65824923       0.02188986
Si      -1.64043193      -0.83863569       6.25303639
Si      -3.89154646      -2.23287287      10.36516176
Si      -0.32448559      -1.52542001       9.37143550
Si      -4.85890917       1.16777484      10.92368351
Si       4.00845951       2.06624884      -0.14824526
Si       2.39603443       0.55816423      -0.02188063
Si      -1.25538875       2.42578494       8.87338221
Si      -1.97216639      -2.56623581       9.88187818
Si      -2.81676237       1.76144869       6.69046946
Si       0.58787398       0.95490670       4.02839062
Si      -2.42023231       4.10048264       6.43999579
Si      -3.47476711      -2.01734775       6.77491481
Si       0.11649153       7.17618920      -0.23289656
Si       1.04722169       2.81171982       4.66345183
Si       1.64072059       6.82862520      -1.49461253
Si      -0.54011847      -1.04009779       4.29758844
Si       1.82175204      -3.36525292       6.94405148
Si       0.24378390       2.62153445       2.83242670
Si      -2.96879152       3.15558108       8.11960280
Si      -0.98859575       4.19571357       2.99798124
Si      -1.87899321      -1.83478199       7.99177072
22
Lattice="5.229205778358007 -0.3523725068844448 -1.5958070395885808 -1.4779197473152323 10.157359378803658 -1.083411395013452 -4.832842159060279 -4.064977739187186 11.604631968748595" Properties=species:S:1:pos:R:3 unique_starting_index=18 config_type=initial n_minim_iter=3 stress="-0.0013732894826467689 -0.0004460302308189759 -0.000634812307462473 -0.0004460302308189759 -0.001631982706822684 -0.0030109340532479293 -0.000634812307462473 -0.0030109340532479293 -0.00564240595976408" pbc="T T T"
Si       1.44981484       8.65652133       0.02127705
Si      -1.63794742      -0.83923993       6.24843284
Si      -3.88635978      -2.23349789      10.35685315
Si      -0.32181584      -1.52586560       9.36474205
Si      -4.85265741       1.16613529      10.91465036
Si       4.00541821       2.06556350      -0.14738387
Si       2.39444446       0.55797976      -0.02119821
Si      -1.25259497       2.42430742       8.86623741
Si      -1.96778565      -2.56620159       9.87482270
Si      -2.81329099       1.76054651       6.68461892
Si       0.58812984       0.95433538       4.02554367
Si      -2.41643685       4.09893319       6.43398248
Si      -3.47032919      -2.01749956       6.76980716
Si       0.11632757       7.17374823      -0.23361802
Si       1.04769050       2.81015548       4.66015577
Si       1.63916952       6.82713911      -1.49378958
Si      -0.53834406      -1.03991829       4.29413379
Si       1.82181003      -3.36476716       6.93970687
Si       0.24477399       2.61983782       2.82990210
Si      -2.96466501       3.15372899       8.11331298
Si      -0.98750868       4.19489537       2.99532636
Si      -1.87610281      -1.83546777       7.98550441
22
Lattice="5.226556938923604 -0.3526861863536361 -1.5949460685112602 -1.4765660612247575 10.157590545176076 -1.078917236868219 -4.8272094769222536 -4.0595237659318135 11.606779964668352" Properties=species:S:1:pos:R:3 unique_starting_index=18 config_type=initial n_minim_iter=4 stress="-0.0033653144730832704 0.0008488391516637023 0.0007413499047913376 0.0008488391516637023 0.0039345167510696595 0.0019682942630339876 0.0007413499047913376 0.0019682942630339876 -0.00044828423392772075" pbc="T T T"
Si       1.45103014       8.65813260       0.02641947
Si      -1.63545380      -0.83627636       6.25094636
Si      -3.88150494      -2.22859910      10.35957591
Si      -0.31813572      -1.52068252       9.36870448
Si      -4.84665521       1.17115212      10.91946272
Si       4.00387568       2.06581861      -0.14482602
Si       2.39375101       0.55812675      -0.01977580
Si      -1.24901882       2.42933953       8.87156253
Si      -1.96304618      -2.56073739       9.87823508
Si      -2.80981706       1.76412152       6.68758359
Si       0.58897451       0.95674601       4.02840545
Si      -2.41240684       4.10265865       6.43853690
Si      -3.46647779      -2.01426480       6.77148958
Si       0.11670211       7.17406808      -0.22970817
Si       1.04947902       2.81279143       4.66479272
Si       1.63880848       6.82728042      -1.49032838
Si      -0.53617606      -1.03720290       4.29514962
Si       1.82284659      -3.36077674       6.94207015
Si       0.24622486       2.62106642       2.83248518
Si      -2.96035141       3.15850003       8.11902861
Si      -0.98586233       4.19727273       2.99906890
Si      -1.87304445      -1.83191899       7.98785856
22
Lattice="5.2288655109369016 -0.3529747157101068 -1.5949332479340217 -1.4792292935329872 10.14289641477538 -1.0804036301595836 -4.826814343803668 -4.053385388456467 11.612869449380566" Properties=species:S:1:pos:R:3 unique_starting_index=18 config_type=initial n_minim_iter=5 stress="0.0006516248232690719 0.0003721696138799946 0.0006461776558926678 0.0003721696138799946 -0.005625495856160529 0.0006690218148263933 0.0006461776558926678 0.0006690218148263933 0.003073178210911991" pbc="T T T"
Si       1.45132639       8.64578583       0.02579723
Si      -1.63557020      -0.83545630       6.25467570
Si      -3.88150679      -2.22554860      10.36479638
Si      -0.31564854      -1.51843350       9.37399161
Si      -4.84727829       1.16869177      10.92514483
Si       4.00517002       2.06151700      -0.14417405
Si       2.39511365       0.55654360      -0.01888455
Si      -1.24893695       2.42539441       8.87598956
Si      -1.96094433      -2.55650097       9.88409392
Si      -2.81050418       1.76172415       6.69038007
Si       0.58888640       0.95507725       4.03076112
Si      -2.41300852       4.09634518       6.44158989
Si      -3.46632863      -2.01091651       6.77555664
Si       0.11482463       7.16324324      -0.22993993
Si       1.05042176       2.80793487       4.66768480
Si       1.63848375       6.81710228      -1.49165657
Si      -0.53457928      -1.03491516       4.29670151
Si       1.82478527      -3.35618600       6.94665237
Si       0.24629373       2.61651253       2.83337057
Si      -2.96126317       3.15443424       8.12330670
Si      -0.98661240       4.19117771       3.00066143
Si      -1.87252803      -1.83010197       7.99211989
22
Lattice="5.230039352572312 -0.35506979905310626 -1.5932036963084573 -1.4856832403519908 10.136921174917601 -1.0846386589654498 -4.824505024646958 -4.053156484983212 11.60605443865142" Properties=species:S:1:pos:R:3 unique_starting_index=18 config_type=initial n_minim_iter=6 stress="0.0014928135793559596 -0.003792435367273511 -0.00045493420200185924 -0.003792435367273511 -0.0016985282753234708 0.002917497188279563 -0.00045493420200185924 0.002917497188279563 -0.0033937390968628444" pbc="T T T"
Si       1.44918418       8.64021269       0.02062013
Si      -1.63645825      -0.83771159       6.25129494
Si      -3.88053709      -2.22753141      10.35736714
Si      -0.31182427      -1.52005013       9.36740447
Si      -4.84819924       1.16158666      10.91683806
Si       4.00416639       2.05617137      -0.14418729
Si       2.39618024       0.55387650      -0.01772004
Si      -1.25095175       2.42004039       8.86752937
Si      -1.95780745      -2.55658642       9.87899129
Si      -2.81157185       1.75893447       6.68373186
Si       0.58612956       0.95199500       4.02728450
Si      -2.41534670       4.09057133       6.43523919
Si      -3.46464716      -2.01015104       6.77300299
Si       0.10903939       7.15912753      -0.23221318
Si       1.04904539       2.80338518       4.66304750
Si       1.63540250       6.81220832      -1.49454864
Si      -0.53119381      -1.03337845       4.29158807
Si       1.82565184      -3.35740012       6.94409854
Si       0.24450898       2.61229054       2.82871793
Si      -2.96390182       3.15150962       8.11565489
Si      -0.98895010       4.18717129       2.99712979
Si      -1.87149521      -1.83333745       7.98693421
22
Lattice="5.227655316939221 -0.3512288298360951 -1.5925223255324283 -1.4806398166851886 10.13305700608329 -1.0934057732279272 -4.8227352659686025 -4.063204178665977 11.611629006596104" Properties=species:S:1:pos:R:3 unique_starting_index=18 config_type=initial n_minim_iter=7 stress="-0.0018125654597291876 0.0016232900536948297 -0.0012820166048218091 0.0016232900536948297 -0.0016414171047509387 -0.0015160781081849848 -0.0012820166048218091 -0.0015160781081849848 0.0005425193376762359" pbc="T T T"
Si       1.45403642       8.63815792       0.01316474
Si      -1.63609644      -0.84363311       6.25372262
Si      -3.87840605      -2.23741725      10.36085528
Si      -0.30960882      -1.52624692       9.37070442
Si      -4.84413669       1.14814103      10.91838029
Si       4.00331175       2.05647987      -0.14486180
Si       2.39606350       0.55435175      -0.01722493
Si      -1.24858743       2.41129974       8.86721952
Si      -1.95655555      -2.56371614       9.88386230
Si      -2.80861708       1.75148821       6.68318167
Si       0.58544079       0.94837759       4.02750571
Si      -2.41130070       4.08213262       6.43323184
Si      -3.46304017      -2.01617396       6.77659433
Si       0.11164593       7.15682920      -0.23779052
Si       1.05038208       2.79928388       4.66206530
Si       1.63787860       6.81167201      -1.50044624
Si      -0.52936248      -1.03526843       4.29206353
Si       1.82330554      -3.36058136       6.94950822
Si       0.24570128       2.60880207       2.82674738
Si      -2.96046192       3.14294976       8.11498668
Si      -0.98595736       4.18235691       2.99475546
Si      -1.87015943      -1.84091169       7.99033834
22
Lattice="5.227095984790451 -0.3518420920515195 -1.5881954676536794 -1.4841922020322875 10.127322123440967 -1.0974647803422277 -4.813394971338082 -4.062951053485249 11.607441291830725" Properties=species:S:1:pos:R:3 unique_starting_index=18 config_type=initial n_minim_iter=8 stress="0.0006024304924014079 0.0007529292138794176 0.004330730236121749 0.0007529292138794176 -0.001963697005128455 -0.001056477747799967 0.004330730236121749 -0.001056477747799967 -0.0011537142493106476" pbc="T T T"
Si       1.45358585       8.63289376       0.01067812
Si      -1.63242117      -0.84514001       6.25221248
Si      -3.87011906      -2.23893474      10.35659687
Si      -0.30056827      -1.52676424       9.36911287
Si      -4.83657564       1.14387570      10.91350280
Si       4.00290088       2.05319549      -0.14167303
Si       2.39706549       0.55322901      -0.01550421
Si      -1.24327869       2.40746520       8.86365029
Si      -1.94906265      -2.56399864       9.88241583
Si      -2.80398361       1.74855286       6.67873784
Si       0.58615388       0.94575137       4.02671942
Si      -2.40717227       4.07765797       6.42924274
Si      -3.45802524      -2.01576975       6.77415004
Si       0.10938943       7.15202054      -0.24004035
Si       1.05248839       2.79674867       4.66086784
Si       1.63504187       6.80777144      -1.50091870
Si      -0.52399101      -1.03387380       4.28945648
Si       1.82821433      -3.36077696       6.95182453
Si       0.24706453       2.60579531       2.82529232
Si      -2.95587710       3.14037026       8.11104449
Si      -0.98463690       4.17886676       2.99286539
Si      -1.86282924      -1.84285625       7.98890458
22
Lattice="5.227640112400003 -0.3545977150462654 -1.5936809274937995 -1.4889822193814877 10.121125937711584 -1.0974562395354674 -4.821248460339593 -4.058496246201803 11.615279863579081" Properties=species:S:1:pos:R:3 unique_starting_index=18 config_type=initial n_minim_iter=9 stress="-0.0014137107224042745 -0.0015104665285212249 -0.0013472338799555407 -0.0015104665285212249 -0.0012325033074564698 -0.001469704282806322 -0.0013472338799555407 -0.001469704282806322 0.0005934362477412725" pbc="T T T"
Si       1.44973169       8.62625462       0.00682590
Si      -1.63922428      -0.84501176       6.25581094
Si      -3.87802606      -2.23713857      10.36274664
Si      -0.30703656      -1.52490043       9.37119992
Si      -4.84683289       1.14316720      10.92183108
Si       4.00066572       2.04799202      -0.14474854
Si       2.39744272       0.55126331      -0.01810557
Si      -1.25415414       2.40574935       8.86587251
Si      -1.95735738      -2.56148821       9.88746197
Si      -2.81099971       1.74792349       6.68163698
Si       0.57839561       0.94316187       4.02637449
Si      -2.41458395       4.07492635       6.43235648
Si      -3.46308484      -2.01262253       6.78016999
Si       0.10481176       7.14641659      -0.24147407
Si       1.04494961       2.79463623       4.65975660
Si       1.63173383       6.80259910      -1.50340173
Si      -0.52489980      -1.03072940       4.28849606
Si       1.82122757      -3.36011517       6.95332448
Si       0.24266194       2.60275086       2.82513790
Si      -2.96558935       3.14023161       8.11640322
Si      -0.98976924       4.17607453       2.99486559
Si      -1.86760807      -1.84286983       7.99374745
22
Lattice="5.2304747908319085 -0.3538787620242911 -1.5958640366797736 -1.4867588879806255 10.112796629953193 -1.0917623922747455 -4.8294418066389495 -4.051134660425331 11.613119162903208" Properties=species:S:1:pos:R:3 unique_starting_index=18 config_type=initial n_minim_iter=10 stress="0.0030279530672349684 0.0031102475462669115 -0.002019357025778707 0.0031102475462669115 -0.0018437418018081159 0.0015297326141636182 -0.002019357025778707 0.0015297326141636182 -0.0038236415173574737" pbc="T T T"
Si       1.45385389       8.62023140       0.00878540
Si      -1.64442152      -0.84258387       6.25528049
Si      -3.88527693      -2.23222542      10.36152722
Si      -0.31052377      -1.51796635       9.36840688
Si      -4.85341487       1.14455937      10.92354649
Si       4.00287846       2.04618109      -0.14422207
Si       2.39991052       0.55141810      -0.01935717
Si      -1.25884892       2.40815644       8.86513616
Si      -1.96331760      -2.55478360       9.88507741
Si      -2.81568564       1.75042709       6.68177727
Si       0.57390324       0.94321598       4.02507932
Si      -2.41629264       4.07393678       6.43409690
Si      -3.46868320      -2.00841250       6.78017536
Si       0.10682110       7.14119216      -0.23864652
Si       1.04335401       2.79540309       4.65901253
Si       1.63415875       6.79781602      -1.49996719
Si      -0.52473649      -1.02549326       4.28482636
Si       1.81660877      -3.35383847       6.95063744
Si       0.24235373       2.60163240       2.82576385
Si      -2.97011714       3.14166629       8.11732582
Si      -0.99030959       4.17409496       2.99758591
Si      -1.87060492      -1.83963549       7.99315881
22
Lattice="5.227431029632944 -0.35992254341572333 -1.5982462403829212 -1.4982092293184703 10.106864336683927 -1.0939479152834122 -4.821586709293984 -4.042903193460159 11.629750860023522" Properties=species:S:1:pos:R:3 unique_starting_index=18 config_type=initial n_minim_iter=11 stress="0.00043452044403798556 -0.0006673741039191659 -0.00042117507752917414 -0.0006673741039191659 -0.0003013249253670498 -0.0004270797873425694 -0.00042117507752917414 -0.0004270797873425694 0.0006679443431772036" pbc="T T T"
Si       1.44454147       8.61134777       0.00544465
Si      -1.64507616      -0.84169499       6.26469755
Si      -3.88106711      -2.22763522      10.37700034
Si      -0.30737193      -1.51490477       9.38136359
Si      -4.85175377       1.14570732      10.94112058
Si       3.99769441       2.03776092      -0.14235592
Si       2.39987087       0.54795797      -0.02016989
Si      -1.26206412       2.40757817       8.87653303
Si      -1.95903523      -2.54977434       9.89849380
Si      -2.81787793       1.75479888       6.69060019
Si       0.56668597       0.93928440       4.02945922
Si      -2.41786046       4.07243803       6.44272818
Si      -3.46511353      -2.00251940       6.79140195
Si       0.09862745       7.13609030      -0.24066628
Si       1.03820438       2.79248764       4.66423851
Si       1.62360250       6.79167526      -1.50128553
Si      -0.51885505      -1.01990840       4.28649015
Si       1.81721643      -3.35370661       6.96229790
Si       0.23949137       2.59808048       2.82971168
Si      -2.97328522       3.14283691       8.12754100
Si      -0.99446672       4.17176279       3.00316612
Si      -1.86457852      -1.83927285       8.00630068
22
Lattice="5.224650086924939 -0.36392874516249374 -1.600429509232485 -1.5035680637727462 10.109265430161322 -1.0906167928902717 -4.816648318160134 -4.035525141886115 11.641551646548477" Properties=species:S:1:pos:R:3 unique_starting_index=18 config_type=initial n_minim_iter=12 stress="0.000915947936401634 -0.00012575293823621268 -0.0003427973998952167 -0.00012575293823621268 0.00074678629444698 0.0002236544860145041 -0.0003427973998952167 0.0002236544860145041 0.0014200203740570255" pbc="T T T"
Si       1.44121521       8.61159739       0.00609878
Si      -1.64653231      -0.84013352       6.27248435
Si      -3.87824339      -2.22192092      10.39021584
Si      -0.30645354      -1.50910779       9.39227641
Si      -4.84963293       1.15230204      10.95775736
Si       3.99421089       2.03396686      -0.13952745
Si       2.40077746       0.54672197      -0.02165777
Si      -1.26311216       2.41315448       8.88746963
Si      -1.95701669      -2.54329709       9.90858338
Si      -2.81887140       1.76223276       6.69942744
Si       0.55964819       0.93965226       4.03351131
Si      -2.41597750       4.07685093       6.45220140
Si      -3.46154547      -1.99734504       6.80230110
Si       0.09327327       7.13603475      -0.23910842
Si       1.03272325       2.79564543       4.66916066
Si       1.61837718       6.79236131      -1.50006610
Si      -0.51349175      -1.01320703       4.28642616
Si       1.81676052      -3.35199039       6.96971936
Si       0.23762087       2.60057485       2.83510336
Si      -2.97528120       3.14900367       8.13721857
Si      -0.99437628       4.17256584       3.01043898
Si      -1.86158559      -1.83755268       8.01325487
22
Lattice="5.222561443897434 -0.3690724262808228 -1.5992876006130452 -1.5137826306295135 10.126791047516479 -1.096403830628187 -4.805344313675087 -4.04150601995316 11.652178823584057" Properties=species:S:1:pos:R:3 unique_starting_index=18 config_type=initial n_minim_iter=13 stress="0.0006004051364024755 0.00014934660561937197 0.00020971017504572856 0.00014934660561937197 0.001680840315789136 0.0007546415860874679 0.00020971017504572856 0.0007546415860874679 0.001709237277218018" pbc="T T T"
Si       1.43593920       8.62143542      -0.00188035
Si      -1.64540656      -0.84554017       6.27822155
Si      -3.86982625      -2.22648573      10.40361525
Si      -0.30033446      -1.51246726       9.40379881
Si      -4.84312651       1.15408052      10.97141599
Si       3.99050642       2.03126795      -0.13694452
Si       2.40326795       0.54502957      -0.02351794
Si      -1.26428959       2.41570908       8.89232692
Si      -1.95125787      -2.54725648       9.91826192
Si      -2.81986668       1.76887628       6.70352297
Si       0.55262097       0.94163230       4.03706417
Si      -2.41553138       4.07892396       6.45683121
Si      -3.45584260      -1.99948870       6.81351511
Si       0.08587809       7.14488075      -0.24295082
Si       1.03163723       2.79764093       4.67179580
Si       1.61161893       6.80336014      -1.50620160
Si      -0.50432661      -1.00966553       4.28464985
Si       1.82099779      -3.36206539       6.98100615
Si       0.23780809       2.60320843       2.83732288
Si      -2.97371118       3.15344012       8.14221016
Si      -0.99405276       4.17701836       3.01455703
Si      -1.85141794      -1.84432505       8.01745689
22
Lattice="5.220485305658474 -0.3734896136726238 -1.5937269564636183 -1.5252757068887428 10.148519878609852 -1.1089217772615192 -4.790617351849711 -4.0575410495684485 11.646016655986049" Properties=species:S:1:pos:R:3 unique_starting_index=18 config_type=initial n_minim_iter=14 stress="0.000590324038296496 0.0002122558308988522 0.0005875682959957872 0.0002122558308988522 0.002235156222557619 0.00041248319152622793 0.0005875682959957872 0.00041248319152622793 0.00026349814685973247" pbc="T T T"
Si       1.43068295       8.63207409      -0.01839078
Si      -1.64280834      -0.85687188       6.27266741
Si      -3.86047506      -2.23939869      10.40358979
Si      -0.29141752      -1.52329776       9.40237422
Si      -4.83362180       1.14673609      10.96701161
Si       3.98674750       2.02878751      -0.13515244
Si       2.40674718       0.54260210      -0.02547430
Si      -1.26236693       2.41222345       8.88085049
Si      -1.94126699      -2.55822369       9.91178966
Si      -2.82046304       1.77015859       6.69260231
Si       0.54499180       0.94457701       4.03429405
Si      -2.41203679       4.07708419       6.44668056
Si      -3.45012129      -2.00773764       6.81569679
Si       0.07875361       7.15721167      -0.25338637
Si       1.03034306       2.79495842       4.66479806
Si       1.60367331       6.81834475      -1.51572180
Si      -0.49277389      -1.00823521       4.27535277
Si       1.82925341      -3.37748282       6.98475365
Si       0.23800479       2.60534195       2.83213724
Si      -2.97168157       3.15411185       8.13424738
Si      -0.99124719       4.17856763       3.01132086
Si      -1.83776580      -1.86050291       8.01167228
22
Lattice="5.219353239738147 -0.3732492900210279 -1.5927877612490795 -1.525569355209641 10.163918836188067 -1.1152198634885193 -4.788825918891334 -4.070592641431811 11.64512219181399" Properties=species:S:1:pos:R:3 unique_starting_index=18 config_type=initial n_minim_iter=15 stress="0.000261836280799041 0.0005505338924214736 0.0006418641489750924 0.0005505338924214736 0.0028855307069431354 0.0007009174681028608 0.0006418641489750924 0.0007009174681028608 -0.0006314229302601281" pbc="T T T"
Si       1.43290832       8.64148486      -0.02914822
Si      -1.64401180      -0.86507990       6.26953547
Si      -3.86015817      -2.24949596      10.40710153
Si      -0.28959933      -1.52920093       9.40248480
Si      -4.83146511       1.14111913      10.96825621
Si       3.98556277       2.03072663      -0.13640322
Si       2.40895894       0.54239881      -0.02809669
Si      -1.26101173       2.41081562       8.87647065
Si      -1.94212088      -2.56597853       9.91064908
Si      -2.82284988       1.77049876       6.68831827
Si       0.53852026       0.94767043       4.03269325
Si      -2.40997815       4.07563861       6.44319123
Si      -3.45142302      -2.01504281       6.81923380
Si       0.07687963       7.16628932      -0.26057609
Si       1.02976821       2.79677577       4.66317760
Si       1.60362024       6.83029147      -1.52146746
Si      -0.48866804      -1.00769532       4.27045009
Si       1.83009682      -3.38534187       6.98590603
Si       0.23869542       2.60623544       2.82652283
Si      -2.97205179       3.15464161       8.12985987
Si      -0.98885438       4.18133054       3.01094928
Si      -1.83439243      -1.87284019       8.01010627
22
Lattice="5.218449708508936 -0.3704450917128502 -1.5940003649675465 -1.5207447058092747 10.1625280363645 -1.1185802949989572 -4.791495480514575 -4.075974735222825 11.65075903481129" Properties=species:S:1:pos:R:3 unique_starting_index=18 config_type=initial n_minim_iter=16 stress="0.0003230651795693257 0.000478996792423574 0.0006720910754680479 0.000478996792423574 0.0018673245631184332 0.000419074325940839 0.0006720910754680479 0.000419074325940839 -0.0006604809380287708" pbc="T T T"
Si       1.43905210       8.63597136      -0.03915472
Si      -1.64688898      -0.87295776       6.27032158
Si      -3.86339854      -2.25486260      10.41854122
Si      -0.29101765      -1.53026726       9.40873935
Si      -4.83099723       1.13394826      10.97833405
Si       3.98519099       2.03207319      -0.13931008
Si       2.41138646       0.54161463      -0.03140735
Si      -1.26243503       2.40875948       8.87715317
Si      -1.94424020      -2.56549416       9.91638367
Si      -2.82475474       1.76720809       6.69011093
Si       0.53036864       0.95207437       4.03365592
Si      -2.40632395       4.06871931       6.44464882
Si      -3.45614360      -2.01825309       6.82695096
Si       0.07962387       7.16647317      -0.26587460
Si       1.02719718       2.79993681       4.66522450
Si       1.60722516       6.83168281      -1.52522710
Si      -0.48654306      -1.00427294       4.26798447
Si       1.82727444      -3.38460090       6.98901457
Si       0.24146431       2.60304353       2.82255087
Si      -2.97064934       3.14993846       8.13188516
Si      -0.98496768       4.17805257       3.01488179
Si      -1.83320508      -1.88113945       8.01109252
22
Lattice="5.219138955557955 -0.3634444595741223 -1.596301451618618 -1.508382851895994 10.151526390008183 -1.1210641826279752 -4.801547045259369 -4.081267948456317 11.655598348019932" Properties=species:S:1:pos:R:3 unique_starting_index=18 config_type=initial n_minim_iter=17 stress="0.0003517869512386451 1.5975709713755384e-05 0.0002679996000758234 1.5975709713755384e-05 0.00024028718499125221 -3.5366158796748584e-05 0.0002679996000758234 -3.5366158796748584e-05 -0.0003247556886114559" pbc="T T T"
Si       1.45366968       8.62293811      -0.05168098
Si      -1.65254247      -0.88470520       6.27067545
Si      -3.86956315      -2.26223794      10.43028413
Si      -0.29733464      -1.53026352       9.41499421
Si      -4.83363740       1.12159875      10.98979265
Si       3.98802066       2.03626581      -0.14373558
Si       2.41497491       0.54063558      -0.03552902
Si      -1.26179541       2.40241189       8.87749450
Si      -1.95265347      -2.56087998       9.92046466
Si      -2.83027288       1.76028952       6.68979000
Si       0.52007089       0.95892095       4.03441234
Si      -2.40191992       4.05574049       6.44458862
Si      -3.46580990      -2.02048922       6.83382077
Si       0.08751088       7.16175114      -0.27122820
Si       1.02620070       2.80303171       4.66448979
Si       1.61741946       6.82799333      -1.52824770
Si      -0.48722300      -0.99976122       4.26505592
Si       1.82023039      -3.37920706       6.99280410
Si       0.24960768       2.59647663       2.82012197
Si      -2.97348678       3.14287727       8.13280667
Si      -0.97893515       4.17077131       3.02037935
Si      -1.83550049      -1.88994141       8.00830352
22
Lattice="5.224306233807937 -0.3497196032877977 -1.5988238750605686 -1.4844176464730252 10.14298283695952 -1.124835643071102 -4.823799708226311 -4.096897151532201 11.655026244477682" Properties=species:S:1:pos:R:3 unique_starting_index=18 config_type=initial n_minim_iter=18 stress="0.0014044675245047785 0.00010195342753604908 -0.0008284968686456506 0.00010195342753604908 -0.0009332258362619841 -0.0010648518473320777 -0.0008284968686456506 -0.0010648518473320777 0.0003656273655652877" pbc="T T T"
Si       1.48610430       8.61383520      -0.07225585
Si      -1.66222955      -0.90594518       6.26342303
Si      -3.88600313      -2.27910135      10.44159297
Si      -0.30996194      -1.53321582       9.41818328
Si      -4.84140377       1.10054001      11.00039250
Si       4.00024978       2.04980253      -0.14750884
Si       2.42336930       0.54189788      -0.04527523
Si      -1.26466572       2.39246754       8.86903523
Si      -1.96777216      -2.55897900       9.91867131
Si      -2.84166889       1.74877530       6.68460355
Si       0.50450968       0.96932387       4.03382831
Si      -2.39752435       4.03620266       6.43740932
Si      -3.48422915      -2.02585887       6.83751674
Si       0.10444424       7.15899713      -0.27834367
Si       1.02988374       2.81608326       4.65852324
Si       1.63932085       6.82832122      -1.53203628
Si      -0.49175479      -0.99527329       4.25940019