10
Lattice="2.913066958314679 7.976492445811585e-17 1.3264843451586531e-11 -1.337764042099085e-16 4.8856013459240275 1.489210589170633e-14 -9.202223497454305e-11 -5.320913926239132e-14 20.208827425140118" Properties=species:S:1:pos:R:3 unique_starting_index=45 config_type=initial n_minim_iter=16 energy=-1642.2791709228122 free_energy=-1642.2791709228122 pbc="T T T"
Si       2.18478310       2.22163438      17.93286331
Si       0.72828386       2.66396697      17.93286331
Si       0.72828386       4.66443505      17.93286331
Si       2.18478310       0.22116630      17.93286331
Si       2.18477630       4.66429497       7.63841229
Si       0.72829066       0.22130638       7.63841229
Si       0.72829066       2.22149429       7.63841229
Si       2.18477630       2.66410705       7.63841229
Si       0.72825550       3.66420101      12.74645629
Si       2.18481146       1.22140034      12.74645629
