24
Lattice="5.547318507839828 0.07474180478476893 0.1549208923491799 5.298480560409012 8.913287631195619 6.240561208877312 4.850506082551575 10.573699423711266 22.264680273692296" Properties=species:S:1:pos:R:3 unique_starting_index=5 config_type=initial n_minim_iter=1 energy=-4662.740728189861 free_energy=-4662.740728189861 pbc="T T T"
Si       6.47790792       9.80885026      13.65756678
Si       9.21839723       9.75287860      15.00259559
Si       6.47102200       9.12026313      14.24343861
Si       9.22528315      10.44146573      14.41672376
Si      18.24226412      19.04405072      27.18788821
Si      -2.54595897       0.51767814       1.47227416
Si       7.08057847      13.74155241      24.84747747
Si       8.61572668       5.82017644       3.81268491
Si       2.99850607       7.51368567       5.81426804
Si      12.69779908      12.04804319      22.84589433
Si       9.24429561       9.15641071      14.32186886
Si       6.45200954      10.40531815      14.33829352
Si       8.00565463      11.69554979      23.11546271
Si       7.69065052       7.86617907       5.54469966
Si      12.67347691      11.53381023      23.58406675
Si       3.02282824       8.02791863       5.07609563
Si       3.12940651       3.18525991       2.59248963
Si      12.56689864      16.37646895      26.06767275
Si       2.20103320       7.25574990       6.16517507
Si      13.49527195      12.30597896      22.49498731
Si       6.44442798       9.71540703      14.92573108
Si       9.25187717       9.84632183      13.73443130
Si       2.61127078       5.24228553       4.36922972
Si      13.08503437      14.31944332      24.29093266
24
Lattice="5.54786906563893 0.07485695865963814 0.15481722702060893 5.299089594167747 8.91281666354286 6.240259676318511 4.850820764386154 10.57306669595581 22.263916412012538" Properties=species:S:1:pos:R:3 unique_starting_index=5 config_type=initial n_minim_iter=2 stress="0.003923930430693479 -8.817292939248532e-05 0.0005775821212282642 -8.817292939248532e-05 -0.003635339904542702 -0.003026643876920819 0.0005775821212282642 -0.003026643876920819 -0.00190499795293822" pbc="T T T"
Si       6.47853651       9.80834526      13.65704836
Si       9.21924291       9.75239506      15.00194496
Si       6.47161565       9.11979018      14.24292921
Si       9.22616378      10.44095014      14.41606410
Si      18.24400850      19.04317382      27.18671652
Si      -2.54622908       0.51756650       1.47227680
Si       7.08114461      13.74075531      24.84655474
Si       8.61663482       5.81998501       3.81243858
Si       2.99884875       7.51328854       5.81404165
Si      12.69893067      12.04745178      22.84495167
Si       9.24517875       9.15602887      14.32125884
Si       6.45260067      10.40471145      14.33773447
Si       8.00630645      11.69495395      23.11462412
Si       7.69147297       7.86578637       5.54436920
Si      12.67455638      11.53328335      23.58312926
Si       3.02322304       8.02745697       5.07586406
Si       3.12975131       3.18512032       2.59234164
Si      12.56802811      16.37561999      26.06665168
Si       2.20129878       7.25531611       6.16493569
Si      13.49648064      12.30542421      22.49405763
Si       6.44500887       9.71489657      14.92510233
Si       9.25277055       9.84584375      13.73389099
Si       2.61154607       5.24197583       4.36901316
Si      13.08623335      14.31876449      24.28998015
24
Lattice="5.5483186346317765 0.07519735435641364 0.1544438464148681 5.299610745240811 8.913836771456273 6.241026113286937 4.850293028234588 10.575996900159678 22.265047252905674" Properties=species:S:1:pos:R:3 unique_starting_index=5 config_type=initial n_minim_iter=3 stress="0.009464565185124835 0.00030983513413060685 0.00014615459934856918 0.00030983513413060685 0.005030598188360484 0.004159398508678537 0.00014615459934856918 0.004159398508678537 0.0020643755066542765" pbc="T T T"
Si       6.47874501       9.81039355      13.65797547
Si       9.21947740       9.75463748      15.00254174
Si       6.47171413       9.12187443      14.24386387
Si       9.22650828      10.44315660      14.41665335
Si      18.24473924      19.04750163      27.18798530
Si      -2.54651683       0.51752939       1.47253191
Si       7.08083048      13.74410222      24.84781641
Si       8.61739193       5.82092881       3.81270081
Si       2.99907711       7.51424361       5.81485527
Si      12.69914530      12.05078741      22.84566194
Si       9.24555115       9.15839848      14.32183913
Si       6.45267126      10.40663255      14.33867809
Si       8.00609358      11.69831037      23.11571411
Si       7.69212883       7.86672066       5.54480310
Si      12.67460006      11.53682669      23.58387109
Si       3.02362235       8.02820434       5.07664612
Si       3.13005145       3.18561080       2.59250728
Si      12.56817096      16.37942022      26.06800994
Si       2.20147328       7.25614952       6.16571296
Si      13.49674913      12.30888150      22.49480425
Si       6.44505480       9.71707407      14.92578295
Si       9.25316761       9.84795696      13.73473427
Si       2.61169295       5.24256194       4.36940755
Si      13.08652946      14.32246908      24.29110967
24
Lattice="5.547399989564137 0.07585308557127624 0.15356154261973815 5.298805970620532 8.913386768958002 6.24082731634366 4.84721007188274 10.576986928771973 22.26415353020556" Properties=species:S:1:pos:R:3 unique_starting_index=5 config_type=initial n_minim_iter=4 stress="-0.0005987054580322279 0.0015049702645607752 -0.0008998442636081244 0.0015049702645607752 -0.002322852310250354 0.0022461138602183606 -0.0008998442636081244 0.0022461138602183606 -0.0026346958398896516" pbc="T T T"
Si       6.47679702       9.81090472      13.65742104
Si       9.21661901       9.75532206      15.00112135
Si       6.46952857       9.12248976      14.24341126
Si       9.22388746      10.44373702      14.41513113
Si      18.23970682      19.04909453      27.18562934
Si      -2.54629079       0.51713226       1.47291305
Si       7.07741157      13.74499042      24.84647833
Si       8.61600446       5.82123637       3.81206406
Si       2.99841979       7.51402769       5.81503878
Si      12.69499624      12.05219910      22.84350361
Si       9.24302531       9.15961932      14.32054171
Si       6.45039073      10.40660746      14.33800068
Si       8.00261162      11.69989014      23.11448091
Si       7.69080441       7.86633664       5.54406148
Si      12.67006230      11.53870233      23.58182202
Si       3.02335373       8.02752445       5.07672037
Si       3.12959633       3.18565807       2.59215559
Si      12.56381971      16.38056871      26.06638680
Si       2.20099107       7.25564215       6.16581757
Si      13.49242496      12.31058464      22.49272482
Si       6.44274360       9.71768370      14.92455601
Si       9.25067243       9.84854309      13.73398638
Si       2.61102150       5.24215127       4.36909482
Si      13.08239454      14.32407551      24.28944757
24
Lattice="5.547305928979232 0.07506285906604428 0.15362691366853795 5.297530908857961 8.912677411463422 6.240777291387662 4.845794760556289 10.572373435115447 22.26957313542155" Properties=species:S:1:pos:R:3 unique_starting_index=5 config_type=initial n_minim_iter=5 stress="0.00043028890427927426 0.00044907815077429696 -0.0008942600045130591 0.00044907815077429696 0.0016159785582306792 -0.001567079779021195 -0.0008942600045130591 -0.001567079779021195 0.0010288331065597322" pbc="T T T"
Si       6.47551933       9.80838429      13.66004795
Si       9.21511227       9.75172942      15.00392939
Si       6.46834513       9.11954259      14.24670086
Si       9.22228647      10.44057111      14.41727648
Si      18.23693253      19.04315040      27.19067228
Si      -2.54630093       0.51696330       1.47330506
Si       7.07561973      13.73996574      24.85166022
Si       8.61501187       5.82014797       3.81231712
Si       2.99720930       7.51374542       5.81537863
Si      12.69342230      12.04636829      22.84859871
Si       9.24192158       9.15656206      14.32345577
Si       6.44871002      10.40355164      14.34052157
Si       8.00113730      11.69514252      23.12005204
Si       7.68949430       7.86497118       5.54392530
Si      12.66831104      11.53282902      23.58756263
Si       3.02232055       8.02728469       5.07641472
Si       3.12925961       3.18512927       2.59223619
Si      12.56137199      16.37498443      26.07174115
Si       2.20001785       7.25499404       6.16618135
Si      13.49061375      12.30511966      22.49779599
Si       6.44137911       9.71473524      14.92708168
Si       9.24925248       9.84537847      13.73689566
Si       2.61009190       5.24142477       4.36909511
Si      13.08053970      14.31868894      24.29488224
24
Lattice="5.547289628413216 0.07409759342267838 0.15468424404596307 5.297121029084073 8.911183240792933 6.2426730141020546 4.848117954084172 10.57191295079769 22.272171564812012" Properties=species:S:1:pos:R:3 unique_starting_index=5 config_type=initial n_minim_iter=6 stress="0.0004050254512347725 -0.000827948427686696 0.0004333377050694153 -0.000827948427686696 0.0005969919107357437 -0.000695150422700933 0.0004333377050694153 -0.000695150422700933 0.0007076090067594635" pbc="T T T"
Si       6.47635263       9.80708093      13.66260001
Si       9.21617599       9.75011285      15.00692882
Si       6.46945762       9.11837359      14.24926700
Si       9.22307099      10.43882020      14.42026183
Si      18.23860321      19.03983062      27.19665684
Si      -2.54607460       0.51736316       1.47287199
Si       7.07790173      13.73896484      24.85483364
Si       8.61462688       5.81822894       3.81469519
Si       2.99688664       7.51288081       5.81674034
Si      12.69564197      12.04431297      22.85278849
Si       9.24305096       9.15497154      14.32647784
Si       6.44947765      10.40222224      14.34305098
Si       8.00344523      11.69409173      23.12342514
Si       7.68908338       7.86310206       5.54610368
Si      12.67067557      11.53097565      23.59171501
Si       3.02185304       8.02621813       5.07781381
Si       3.12926241       3.18439656       2.59318641
Si      12.56326620      16.37279723      26.07634241
Si       2.19991932       7.25414602       6.16736208
Si      13.49260929      12.30304776      22.50216674
Si       6.44249074       9.71362305      14.92952030
Si       9.25003787       9.84357074      13.74000853
Si       2.60988800       5.24062463       4.37011811
Si      13.08264061      14.31656916      24.29941071
24
Lattice="5.547269943467074 0.07495652059425409 0.15518849292923592 5.299000039736812 8.911328839455512 6.244377159807638 4.851632157891477 10.572083980140338 22.27673069870003" Properties=species:S:1:pos:R:3 unique_starting_index=5 config_type=initial n_minim_iter=7 stress="0.00018798417854885827 0.0015039629876294827 0.0018035967170761773 0.0015039629876294827 0.0012976264369478397 -0.0009796309196859166 0.0018035967170761773 -0.0009796309196859166 0.00046467010062781704" pbc="T T T"
Si       6.47911159       9.80699507      13.66596824
Si       9.21879055       9.75137427      15.01032811
Si       6.47215860       9.11853502      14.25274930
Si       9.22574354      10.43983432      14.42354705
Si      18.24379924      19.04186651      27.20378873
Si      -2.54589710       0.51650283       1.47250762
Si       7.08225109      13.73939296      24.85922755
Si       8.61565105       5.81897638       3.81706880
Si       2.99808584       7.51311436       5.81792753
Si      12.69981630      12.04525498      22.85836882
Si       9.24576748       9.15563495      14.33024959
Si       6.45213466      10.40273439      14.34604676
Si       8.00737385      11.69459404      23.12857387
Si       7.69052829       7.86377530       5.54772249
Si      12.67459495      11.53201943      23.59695927
Si       3.02330719       8.02634991       5.07933708
Si       3.13036231       3.18459122       2.59416519
Si      12.56753983      16.37377812      26.08213117
Si       2.20147790       7.25331912       6.16865007
Si      13.49642425      12.30505022      22.50764628
Si       6.44524213       9.71420483      14.93284063
Si       9.25266001       9.84416451      13.74345572
Si       2.61037926       5.24038154       4.37129235
Si      13.08752288      14.31798780      24.30500400
24
Lattice="5.547347389529374 0.0739599802931705 0.15390955565195943 5.2960568953022475 8.909258176336257 6.244557474070284 4.844607198874106 10.57066904247863 22.279563406296877" Properties=species:S:1:pos:R:3 unique_starting_index=5 config_type=initial n_minim_iter=8 stress="0.0003333957060593296 -0.00042516564826349207 -0.0003859072160473672 -0.00042516564826349207 0.0007642430140834817 -0.0006531498917459365 -0.0003859072160473672 -0.0006531498917459365 0.00032783795798035806" pbc="T T T"
Si       6.47437007       9.80462473      13.66721245
Si       9.21364142       9.74926247      15.01081798
Si       6.46739461       9.11643365      14.25407171
Si       9.22061687      10.43745355      14.42395872
Si      18.23443638      19.03724638      27.20495638
Si      -2.54642489       0.51664082       1.47307406
Si       7.07422771      13.73737000      24.86151850
Si       8.61378377       5.81651720       3.81651194
Si       2.99512130       7.51180202       5.81830597
Si      12.69289018      12.04208517      22.85972446
Si       9.24106300       9.15308284      14.33097664
Si       6.44694849      10.40080436      14.34705379
Si       8.00019153      11.69243461      23.13090153
Si       7.68781996       7.86145259       5.54712890
Si      12.66739871      11.52894578      23.59808081
Si       3.02061277       8.02494142       5.07994962
Si       3.12948968       3.18355484       2.59412755
Si      12.55852180      16.37033236      26.08390289
Si       2.19870499       7.25162028       6.16935805
Si      13.48930649      12.30226692      22.50867239
Si       6.44010950       9.71240875      14.93410228
Si       9.24790198       9.84147845      13.74392815
Si       2.60795258       5.23909984       4.37168038
Si      13.08005890      14.31478736      24.30635006
24
Lattice="5.547364658109086 0.0738045004036678 0.154398069746793 5.296270773082838 8.905455331277935 6.250057350086925 4.845892612956691 10.56870745515495 22.294618735983903" Properties=species:S:1:pos:R:3 unique_starting_index=5 config_type=initial n_minim_iter=9 stress="0.00019070374285700943 0.00017707448432655363 -9.950556608513315e-06 0.00017707448432655363 -0.0004166779623333234 -0.00016791743090929318 -9.950556608513315e-06 -0.00016791743090929318 0.0018257470484930739" pbc="T T T"
Si       6.47491848       9.80091568      13.67755986
Si       9.21460956       9.74705161      15.02151430
Si       6.46796618       9.11326210      14.26495676
Si       9.22156187      10.43470518      14.43411740
Si      18.23570946      19.03183878      27.22559538
Si      -2.54618141       0.51612851       1.47347878
Si       7.07616565      13.73471658      24.87766869
Si       8.61336240       5.81325070       3.82140546
Si       2.99460716       7.50824821       5.82260086
Si      12.69492088      12.03971908      22.87647330
Si       9.24172282       9.14997855      14.34221069
Si       6.44780522      10.39798874      14.35686347
Si       8.00221830      11.69031859      23.14667216
Si       7.68730975       7.85764870       5.55240200
Si      12.66884619      11.52622952      23.61462514
Si       3.02068186       8.02173777       5.08444901
Si       3.12958143       3.18175176       2.59684240
Si      12.55994661      16.36621553      26.10223176
Si       2.19874970       7.24775268       6.17375475
Si      13.49077835      12.30021461      22.52531941
Si       6.44085373       9.71002355      14.94475719
Si       9.24867431       9.83794374      13.75431697
Si       2.60678372       5.23643310       4.37515422
Si      13.08274433      14.31153418      24.32391994
24
Lattice="5.547383255609991 0.07345038463739813 0.15461919603821028 5.2959825629705435 8.905723561830001 6.249417670247152 4.846207592998842 10.569518256967578 22.291141505739603" Properties=species:S:1:pos:R:3 unique_starting_index=5 config_type=initial n_minim_iter=10 stress="0.00019423061592826015 -0.00018755789351775832 0.00011072376401122888 -0.00018755789351775832 0.001118293307870387 -0.0003155891507618307 0.00011072376401122888 -0.0003155891507618307 -0.0009461194299156036" pbc="T T T"
Si       6.47487758       9.80118962      13.67577488
Si       9.21469583       9.74750259      15.01940350
Si       6.46794746       9.11350770      14.26323162
Si       9.22162595      10.43518450      14.43194675
Si      18.23563261      19.03251884      27.22225329
Si      -2.54605919       0.51617337       1.47292508
Si       7.07647609      13.73575842      24.87359997
Si       8.61309732       5.81293378       3.82157840
Si       2.99421938       7.50839483       5.82170326
Si      12.69535403      12.04029737      22.87347511
Si       9.24166784       9.15010880      14.34058191
Si       6.44790557      10.39858340      14.35459646
Si       8.00272018      11.69100266      23.14311853
Si       7.68685323       7.85768954       5.55205984
Si      12.66924152      11.52648974      23.61124821
Si       3.02033189       8.02220246       5.08393016
Si       3.12947847       3.18151390       2.59677327
Si      12.56009494      16.36717830      26.09840511
Si       2.19844488       7.24783871       6.17278633
Si      13.49112853      12.30085349      22.52239204
Si       6.44091426       9.71063944      14.94253786
Si       9.24865915       9.83805276      13.75264051
Si       2.60618085       5.23638726       4.37450149
Si      13.08339256      14.31230495      24.32067689
24
Lattice="5.547271830896537 0.07321424002045117 0.15526855117760602 5.296111459494386 8.901816624656286 6.255447298471217 4.847841668543212 10.567826924186617 22.307162404071303" Properties=species:S:1:pos:R:3 unique_starting_index=5 config_type=initial n_minim_iter=11 stress="6.844965912503196e-05 9.353356636017305e-05 4.75550212418812e-05 9.353356636017305e-05 0.0001512704018409847 0.00022577534127885178 4.75550212418812e-05 0.00022577534127885178 0.00019745320898051645" pbc="T T T"
Si       6.47571688       9.79775819      13.68686839
Si       9.21550808       9.74509959      15.03100986
Si       6.46852368       9.11053464      14.27529759
Si       9.22270128      10.43232315      14.44258066
Si      18.23670024      19.02702615      27.24492528
Si      -2.54547528       0.51583164       1.47295297
Si       7.07797508      13.73300177      24.89127606
Si       8.61324988       5.80985602       3.82660219
Si       2.99420836       7.50479970       5.82654899
Si      12.69701660      12.03805809      22.89132926
Si       9.24187205       9.14722392      14.35277369
Si       6.44935291      10.39563386      14.36510456
Si       8.00482886      11.68830277      23.15985708
Si       7.68639610       7.85455502       5.55802118
Si      12.67114162      11.52376956      23.62889239
Si       3.02008334       8.01908823       5.08898587
Si       3.12946227       3.17911435       2.59996578
Si      12.56176269      16.36374344      26.11791247
Si       2.19817469       7.24431861       6.17796155
Si      13.49305027      12.29853918      22.53991671
Si       6.44190806       9.70853259      14.95361113
Si       9.24931690       9.83432520      13.76426712
Si       2.60485586       5.23356526       4.37798718
Si      13.08636910      14.30929253      24.33989107
24
Lattice="5.547193322074566 0.07276834204430556 0.1559715413134662 5.296036199019873 8.899280438286151 6.259344200624828 4.849483971846447 10.566579433159674 22.317097230266846" Properties=species:S:1:pos:R:3 unique_starting_index=5 config_type=initial n_minim_iter=12 stress="-2.4515300975915304e-05 0.00011204885580693103 4.444299111548304e-05 0.00011204885580693103 0.0001281435084673822 0.0004873384400639083 4.444299111548304e-05 0.0004873384400639083 -3.715904062305525e-05" pbc="T T T"
Si       6.47646748       9.79500875      13.69396500
Si       9.21624601       9.74361946      15.03844797
Si       6.46889254       9.10850154      14.28304452
Si       9.22382095      10.43012667      14.44936845
Si      18.23752073      19.02317691      27.25987676
Si      -2.54480723       0.51545131       1.47253621
Si       7.07903465      13.73072293      24.90203770
Si       8.61367884       5.80790528       3.83037528
Si       2.99410754       7.50228696       5.82946296
Si      12.69860596      12.03634126      22.90295001
Si       9.24257819       9.14489739      14.36088585
Si       6.45013530      10.39373082      14.37152712
Si       8.00639825      11.68670247      23.17048406
Si       7.68631524       7.85192575       5.56192891
Si      12.67312359      11.52155877      23.64018346
Si       3.01958990       8.01706945       5.09222952
Si       3.12921758       3.17712869       2.60241054
Si      12.56349591      16.36149953      26.13000243
Si       2.19784173       7.24208247       6.18103385
Si      13.49487176      12.29654575      22.55137912
Si       6.44239780       9.70731460      14.96052343
Si       9.25031569       9.83131361      13.77188954
Si       2.60358727       5.23236767       4.37993809
Si      13.08912623      14.30626055      24.35247488
24
Lattice="5.5471742767381835 0.0723417895131947 0.15676349567194348 5.29615265077873 8.89683260322138 6.263064186412031 4.85158753687709 10.565146617838968 22.326572639064313" Properties=species:S:1:pos:R:3 unique_starting_index=5 config_type=initial n_minim_iter=13 stress="-9.044210943841724e-05 0.0001288592717076159 3.865268444921094e-05 0.0001288592717076159 6.843041605587855e-05 0.0006867855907750985 3.865268444921094e-05 0.0006867855907750985 -0.0001287998501711722" pbc="T T T"
Si       6.47795967       9.79206448      13.70074370
Si       9.21695480       9.74225653      15.04565662
Si       6.47000728       9.10643753      14.29045800
Si       9.22490719      10.42788348      14.45594232
Si      18.23906456      19.01947927      27.27441625
Si      -2.54415010       0.51484174       1.47198408
Si       7.08063984      13.72872485      24.91256072
Si       8.61427462       5.80559616       3.83383961
Si       2.99421842       7.50002925       5.83241896
Si      12.70069605      12.03429176      22.91398137
Si       9.24362279       9.14240401      14.36888090
Si       6.45129167      10.39191700      14.37751942
Si       8.00832894      11.68504132      23.18056972
Si       7.68658552       7.84927969       5.56583060
Si      12.67557168      11.51902492      23.65107917
Si       3.01934279       8.01529609       5.09532115
Si       3.12873273       3.17558856       2.60530372
Si      12.56618173      16.35873245      26.14109660
Si       2.19772860       7.23996339       6.18384738
Si      13.49718586      12.29435762      22.56255294
Si       6.44337987       9.70609990      14.96730739
Si       9.25153459       9.82822111      13.77909293
Si       2.60247779       5.23113671       4.38128857
Si      13.09243667      14.30318430      24.36511175
24
Lattice="5.547212532966856 0.07240388412952646 0.1572236198779007 5.296768473090371 8.89599564534386 6.264832789482585 4.85348552919293 10.56531357431966 22.330093169266537" Properties=species:S:1:pos:R:3 unique_starting_index=5 config_type=initial n_minim_iter=14 stress="-9.143246494467739e-05 0.00012892218893419062 4.403092947369271e-05 0.00012892218893419062 -2.040356053445858e-06 0.0007310420493663505 4.403092947369271e-05 0.0007310420493663505 -0.00019706351229780626" pbc="T T T"
Si       6.47947182       9.79132420      13.70343026
Si       9.21799471       9.74238891      15.04871932
Si       6.47157075       9.10601528      14.29373462
Si       9.22589578      10.42769782      14.45841496
Si      18.24156761      19.01902334      27.28049831
Si      -2.54410107       0.51468976       1.47165127
Si       7.08251823      13.72872126      24.91648777
Si       8.61494830       5.80499184       3.83566181
Si       2.99499567       7.49941262       5.83379336
Si      12.70247087      12.03430049      22.91835622
Si       9.24499287       9.14199699      14.37248489
Si       6.45247366      10.39171611      14.37966469
Si       8.01023064      11.68522941      23.18465020
Si       7.68723589       7.84848369       5.56749937
Si      12.67749378      11.51908996      23.65567315
Si       3.01997275       8.01462315       5.09647643
Si       3.12855417       3.17449364       2.60680219
Si      12.56891237      16.35921947      26.14534739
Si       2.19825807       7.23896302       6.18497032
Si      13.49920846      12.29475008      22.56717926
Si       6.44458111       9.70622169      14.97024499
Si       9.25288543       9.82749141      13.78190458
Si       2.60240829       5.23077926       4.38202897
Si      13.09505825      14.30293384      24.37012061
24
Lattice="5.547203017213959 0.0726323354237869 0.15757362056659868 5.297489477969122 8.895567735565523 6.266139087313434 4.85523830204002 10.565498362611233 22.332836968757572" Properties=species:S:1:pos:R:3 unique_starting_index=5 config_type=initial n_minim_iter=15 stress="-9.723388673585978e-05 0.0001361416400361585 4.0659798948302954e-05 0.0001361416400361585 -4.292950611468391e-05 0.0006813890534020014 4.0659798948302954e-05 0.0006813890534020014 -0.00022008580859217465" pbc="T T T"
Si       6.48061882       9.79080694      13.70545275
Si       9.21931198       9.74289150      15.05109693
Si       6.47281669       9.10591168      14.29640820
Si       9.22711410      10.42778675      14.46014148
Si      18.24410182      19.01931593      27.28501785
Si      -2.54417102       0.51438250       1.47153182
Si       7.08417966      13.72905075      24.91952025
Si       8.61575114       5.80464769       3.83702943
Si       2.99578880       7.49916415       5.83470632
Si      12.70414200      12.03453429      22.92184335
Si       9.24650858       9.14206823      14.37527787
Si       6.45342222      10.39163021      14.38127181
Si       8.01193200      11.68528045      23.18757823
Si       7.68799880       7.84841798       5.56897145
Si      12.67898257      11.51933857      23.65919442
Si       3.02094823       8.01435986       5.09735525
Si       3.12850492       3.17375984       2.60814105
Si      12.57142588      16.35993860      26.14840863
Si       2.19909126       7.23833495       6.18573728
Si      13.50083953      12.29536348      22.57081240
Si       6.44555008       9.70663883      14.97246421
Si       9.25438071       9.82705961      13.78408546
Si       2.60251823       5.23053166       4.38256965
Si      13.09741257      14.30316678      24.37398003
24
Lattice="5.547134528148005 0.07298222788219787 0.1578679953198272 5.29828613625449 8.895231308722426 6.267421649649545 4.856929886431681 10.565199166739886 22.33645311015497" Properties=species:S:1:pos:R:3 unique_starting_index=5 config_type=initial n_minim_iter=16 stress="-0.0001092443294267719 0.0001307045320851755 -1.0501634480533649e-06 0.0001307045320851755 -3.434587681297346e-05 0.00046064606230225455 -1.0501634480533649e-06 0.00046064606230225455 -0.0001646059803976644" pbc="T T T"
Si       6.48196238       9.78977635      13.70785641
Si       9.22038817       9.74363636      15.05388634
Si       6.47419885       9.10580310      14.29975056
Si       9.22815170      10.42760961      14.46199219
Si      18.24679533      19.01957252      27.29002607
Si      -2.54444478       0.51384018       1.47171669
Si       7.08556689      13.72904017      24.92311617
Si       8.61678366       5.80437253       3.83862659
Si       2.99658987       7.49872097       5.83521215
Si      12.70576068      12.03469173      22.92653060
Si       9.24762967       9.14221870      14.37853034
Si       6.45472089      10.39119400      14.38321242
Si       8.01333469      11.68483265      23.19147186
Si       7.68901586       7.84858006       5.57027089
Si      12.68009834      11.51927498      23.66364834
Si       3.02225221       8.01413773       5.09809442
Si       3.12834020       3.17297220       2.60950872
Si      12.57401035      16.36044051      26.15223403
Si       2.20036112       7.23774329       6.18655917
Si      13.50198943      12.29566941      22.57518359
Si       6.44686426       9.70719115      14.97504861
Si       9.25548629       9.82622155      13.78669415
Si       2.60254519       5.23046334       4.38312941
Si      13.09980536      14.30294936      24.37861334
24
Lattice="5.54714680882685 0.07300375795153238 0.15804401501726634 5.29851416536519 8.894840976073933 6.268194033498434 4.85763345366387 10.56489912463348 22.338555837744078" Properties=species:S:1:pos:R:3 unique_starting_index=5 config_type=initial n_minim_iter=17 stress="-8.905940974329735e-05 0.00010987891054016262 -2.6878008392604583e-05 0.00010987891054016262 -5.126129223641097e-05 0.0003013631964072157 -2.6878008392604583e-05 0.0003013631964072157 -0.00010254350369223722" pbc="T T T"
Si       6.48236132       9.78892332      13.70920484
Si       9.22093311       9.74382054      15.05558905
Si       6.47453414       9.10556691      14.30172644
Si       9.22876029      10.42717695      14.46306745
Si      18.24800933      19.01915045      27.29300899
Si      -2.54471490       0.51359340       1.47178490
Si       7.08606562      13.72892160      24.92514893
Si       8.61722881       5.80382225       3.83964496
Si       2.99697131       7.49842709       5.83548997
Si      12.70632311      12.03431676      22.92930391
Si       9.24810946       9.14199894      14.38064239
Si       6.45518496      10.39074492      14.38415150
Si       8.01385172      11.68434691      23.19411818
Si       7.68944271       7.84839695       5.57067571
Si      12.68064942      11.51878296      23.66630815
Si       3.02264500       8.01396090       5.09848574
Si       3.12797923       3.17253899       2.61012892
Si      12.57531520      16.36020487      26.15466496
Si       2.20090239       7.23750010       6.18724035