22
Lattice="9.306008589340271 -3.1380372232421285 -1.128272725018001 -8.712112503678881 9.413441314875705 -1.8046939840150336 -4.957066580152424 -1.2308485886515028 11.714531570948237" Properties=species:S:1:pos:R:3 unique_starting_index=18 config_type=initial n_minim_iter=1 energy=-4253.740333314251 free_energy=-4253.740333314251 pbc="T T T"
Si      -1.10125824       6.16348527      -0.08871947
Si       1.16015315       0.13533726       9.49762827
Si      -4.17760481      -1.17477074       9.43652509
Si       0.81568767       0.39303758      10.53045755
Si      -8.45090999       4.11965870      10.71120850
Si       6.11902379       0.82695802      -1.42643327
Si       3.46814608       0.38168701      -1.79262522
Si      -1.60163368       0.12923166       9.02234625
Si      -1.79223973       0.03680002       9.92984933
Si      -8.33879472       2.82807172       5.21386191
Si       1.16105860      -0.17402937       3.12610804
Si      -6.15261910       4.70845537       5.57578616
Si      -4.10398996      -0.75095871       8.52926705
Si      -3.78858533       5.62504434      -0.13099193
Si       0.64384111       0.62985342       4.11254692
Si      -0.76832318       5.30260271      -0.26374761
Si      -1.65502614      -0.74484521       3.53212254
Si       5.49477367      -4.84171810       7.53640301
Si       0.83592209       0.76322658       3.14644349
Si      -5.84949373       3.73845680       5.69565771
Si      -5.78320699       4.19012073       4.78153424
Si      -1.30023086      -0.75676069       9.01217512
22
Lattice="9.305985051777338 -3.138113172361143 -1.1284070410084226 -8.712130954302939 9.413368135523212 -1.8044055614754613 -4.957064289256922 -1.230447076899496 11.714642049598321" Properties=species:S:1:pos:R:3 unique_starting_index=18 config_type=initial n_minim_iter=2 stress="-0.0010070667185905916 -0.000303924449056928 -0.00029496746743840573 -0.000303924449056928 -0.00022246733991492063 -0.00012232059171906717 -0.00029496746743840573 -0.00012232059171906717 -2.4815842863350887e-05" pbc="T T T"
Si      -1.10124428       6.16344632      -0.08856535
Si       1.16014616       0.13561198       9.49772363
Si      -4.17753303      -1.17445751       9.43663617
Si       0.81568768       0.39334120      10.53057078
Si      -8.45086200       4.12002242      10.71152028
Si       6.11900197       0.82690416      -1.42640378
Si       3.46807486       0.38160142      -1.79264482
Si      -1.60164796       0.12952401       9.02242915
Si      -1.79234804       0.03707661       9.92994316
Si      -8.33880610       2.82824338       5.21402245
Si       1.16097709      -0.17396455       3.12611541
Si      -6.15262069       4.70863162       5.57600950
Si      -4.10403783      -0.75065869       8.52937024
Si      -3.78861790       5.62499264      -0.13084322
Si       0.64376572       0.62993761       4.11260473
Si      -0.76835585       5.30256950      -0.26354891
Si      -1.65503332      -0.74476925       3.53217530
Si       5.49472362      -4.84143222       7.53638762
Si       0.83591540       0.76328220       3.14650072
Si      -5.84949914       3.73865630       5.69580970
Si      -5.78313565       4.19029792       4.78172774
Si      -1.30024193      -0.75644283       9.01223140
22
Lattice="9.306031735501543 -3.1381068711282074 -1.1284030252468034 -8.712170926906047 9.41335807132987 -1.8043929393345723 -4.957075564244331 -1.2304193865117057 11.714642323316864" Properties=species:S:1:pos:R:3 unique_starting_index=18 config_type=initial n_minim_iter=3 stress="7.491406075515858e-05 5.4986702146678566e-05 -3.983093386755429e-05 5.4986702146678566e-05 -7.72869152565167e-05 -3.328976217727414e-05 -3.983093386755429e-05 -3.328976217727414e-05 6.597570765293098e-05" pbc="T T T"
Si      -1.10123888       6.16344945      -0.08855154
Si       1.16016969       0.13564155       9.49773401
Si      -4.17753872      -1.17443687       9.43663780
Si       0.81571151       0.39337332      10.53058228
Si      -8.45088293       4.12004726      10.71153317
Si       6.11903605       0.82691135      -1.42639020
Si       3.46808831       0.38160071      -1.79264018
Si      -1.60164225       0.12954983       9.02243390
Si      -1.79234902       0.03710136       9.92994831
Si      -8.33884270       2.82824841       5.21402248
Si       1.16098353      -0.17395561       3.12611836
Si      -6.15263969       4.70864377       5.57601936
Si      -4.10405254      -0.75063830       8.52937147
Si      -3.78863341       5.62498917      -0.13083500
Si       0.64377248       0.62994882       4.11261129
Si      -0.76835383       5.30257249      -0.26353139
Si      -1.65503901      -0.74476526       3.53217639
Si       5.49475743      -4.84140171       7.53639411
Si       0.83592740       0.76329116       3.14650756
Si      -5.84951813       3.73866955       5.69581392
Si      -5.78314925       4.19030967       4.78173540
Si      -1.30023584      -0.75641583       9.01223415
22
Lattice="9.306002832708367 -3.138372728675828 -1.1282686042352725 -8.712301560914149 9.413733207334543 -1.8043038235757323 -4.956789935675964 -1.2300938420476766 11.714280095845497" Properties=species:S:1:pos:R:3 unique_starting_index=18 config_type=initial n_minim_iter=4 stress="-5.672835104661346e-05 -6.576955125822909e-05 0.00014443192769042444 -6.576955125822909e-05 0.00017685595857276951 7.126010370899885e-05 0.00014443192769042444 7.126010370899885e-05 -0.0003170918244605189" pbc="T T T"
Si      -1.10131959       6.16364340      -0.08844253
Si       1.16036236       0.13585720       9.49755319
Si      -4.17730712      -1.17420315       9.43636073
Si       0.81589702       0.39362165      10.53038077
Si      -8.45065682       4.12056122      10.71126999
Si       6.11894902       0.82681926      -1.42619417
Si       3.46803247       0.38152463      -1.79252842
Si      -1.60143092       0.12981998       9.02221997
Si      -1.79214269       0.03737518       9.92969973
Si      -8.33872713       2.82857651       5.21381668
Si       1.16104079      -0.17391096       3.12607171
Si      -6.15257091       4.70901275       5.57589150
Si      -4.10386324      -0.75036288       8.52911527
Si      -3.78872052       5.62519760      -0.13079514
Si       0.64382883       0.63004481       4.11255910
Si      -0.76844631       5.30274119      -0.26338065
Si      -1.65495549      -0.74470557       3.53206972
Si       5.49493622      -4.84141453       7.53627998
Si       0.83601107       0.76336890       3.14648823
Si      -5.84943635       3.73901422       5.69564149
Si      -5.78306515       4.19065344       4.78160885
Si      -1.30001705      -0.75617398       9.01201103
22
Lattice="9.306045793398921 -3.1385062125740717 -1.128412076541212 -8.712397284836655 9.413832884082167 -1.8041546569674547 -4.956816144618301 -1.2297995854987698 11.714778275704337" Properties=species:S:1:pos:R:3 unique_starting_index=18 config_type=initial n_minim_iter=5 stress="2.6854401808364627e-05 -8.657063329057484e-05 -5.3323001986629656e-05 -8.657063329057484e-05 0.00024371298433797285 -1.574300153805286e-05 -5.3323001986629656e-05 -1.574300153805286e-05 0.00018756667992695194" pbc="T T T"
Si      -1.10136687       6.16366496      -0.08834760
Si       1.16035417       0.13605432       9.49792669
Si      -4.17735074      -1.17401847       9.43680342
Si       0.81582124       0.39382718      10.53080817
Si      -8.45069342       4.12088198      10.71187469
Si       6.11892615       0.82675113      -1.42621083
Si       3.46804980       0.38147695      -1.79261183
Si      -1.60141731       0.13006827       9.02260597
Si      -1.79217295       0.03761108       9.93011050
Si      -8.33877094       2.82876511       5.21412671
Si       1.16104800      -0.17386644       3.12619347
Si      -6.15265916       4.70920619       5.57623769
Si      -4.10390621      -0.75008702       8.52951005
Si      -3.78881791       5.62523163      -0.13070628
Si       0.64379030       0.63009974       4.11275261
Si      -0.76851349       5.30277861      -0.26321821
Si      -1.65498342      -0.74466823       3.53224030
Si       5.49494386      -4.84126689       7.53656266
Si       0.83606923       0.76341207       3.14665138
Si      -5.84951916       3.73921733       5.69592827
Si      -5.78310198       4.19085760       4.78188864
Si      -1.30000621      -0.75592070       9.01239200
22
Lattice="9.305975219700768 -3.1383497938039056 -1.1283741625564334 -8.712299176689823 9.413459573714423 -1.8040965191483078 -4.956731715036554 -1.2296828732180698 11.714616966887757" Properties=species:S:1:pos:R:3 unique_starting_index=18 config_type=initial n_minim_iter=6 stress="8.851540720739768e-06 2.8407854725918078e-05 -2.6161878081803722e-05 2.8407854725918078e-05 -9.383543245302921e-05 -3.224294008647079e-05 -2.6161878081803722e-05 -3.224294008647079e-05 -8.154138109339391e-05" pbc="T T T"
Si      -1.10130758       6.16345336      -0.08830041
Si       1.16042288       0.13615576       9.49782567
Si      -4.17730039      -1.17394153       9.43668893
Si       0.81587352       0.39392401      10.53069566
Si      -8.45054244       4.12078743      10.71176173
Si       6.11888594       0.82676554      -1.42613461
Si       3.46802415       0.38148336      -1.79257290
Si      -1.60134245       0.13015588       9.02250029
Si      -1.79210444       0.03769578       9.92998579
Si      -8.33868302       2.82865827       5.21404740
Si       1.16107387      -0.17382512       3.12616605
Si      -6.15256888       4.70906279       5.57618238
Si      -4.10384096      -0.74998375       8.52940854
Si      -3.78877021       5.62501942      -0.13068510
Si       0.64380987       0.63010986       4.11272032
Si      -0.76847201       5.30260905      -0.26314202
Si      -1.65497100      -0.74463728       3.53219517
Si       5.49492484      -4.84097033       7.53650043
Si       0.83611744       0.76341353       3.14663753
Si      -5.84943873       3.73911521       5.69584831
Si      -5.78300896       4.19074368       4.78183149
Si      -1.29994676      -0.75579722       9.01228765
22
Lattice="9.30575886938027 -3.138425684598608 -1.128273276622828 -8.712211702837246 9.413369902034978 -1.8040016671355616 -4.9562670745064095 -1.2291287914668219 11.71482747904847" Properties=species:S:1:pos:R:3 unique_starting_index=18 config_type=initial n_minim_iter=7 stress="-0.00011652091326780601 5.389895945325328e-05 9.958572187608222e-05 5.389895945325328e-05 -2.442787638522902e-05 0.00011488554303804079 9.958572187608222e-05 0.00011488554303804079 0.00014731099431080087" pbc="T T T"
Si      -1.10128515       6.16338889      -0.08805278
Si       1.16075855       0.13656127       9.49817210
Si      -4.17699666      -1.17354082       9.43690557
Si       0.81616814       0.39440037      10.53108490
Si      -8.45002012       4.12125804      10.71206574
Si       6.11867667       0.82667409      -1.42593819
Si       3.46784743       0.38139211      -1.79253672
Si      -1.60104494       0.13061832       9.02275315
Si      -1.79178993       0.03815755       9.93024027
Si      -8.33838607       2.82887800       5.21408949
Si       1.16121156      -0.17371653       3.12630483
Si      -6.15230095       4.70929939       5.57638053
Si      -4.10345928      -0.74947705       8.52962712
Si      -3.78872501       5.62501343      -0.13057461
Si       0.64389193       0.63023491       4.11290120
Si      -0.76845453       5.30254889      -0.26286950
Si      -1.65486184      -0.74448100       3.53226220
Si       5.49506404      -4.84054839       7.53677266
Si       0.83623111       0.76350115       3.14681834
Si      -5.84916688       3.73936529       5.69598681
Si      -5.78274694       4.19101163       4.78196908
Si      -1.29966978      -0.75534765       9.01254503
22
Lattice="9.30589219331663 -3.138548075840406 -1.1283006400421314 -8.71240524798158 9.413497307806667 -1.8039455313485333 -4.9563427270500675 -1.2290592351330814 11.714746387480709" Properties=species:S:1:pos:R:3 unique_starting_index=18 config_type=initial n_minim_iter=8 stress="6.861777981176164e-05 -5.373410825017135e-05 -8.934288969964036e-05 -5.373410825017135e-05 2.800959266569762e-05 2.657591853932658e-05 -8.934288969964036e-05 2.657591853932658e-05 -6.010571293908864e-05" pbc="T T T"
Si      -1.10135583       6.16340195      -0.08803724
Si       1.16077748       0.13654491       9.49807656
Si      -4.17710081      -1.17350274       9.43686927
Si       0.81612546       0.39440335      10.53097898
Si      -8.45017361       4.12137012      10.71200815
Si       6.11871288       0.82659917      -1.42594041
Si       3.46785523       0.38134955      -1.79254220
Si      -1.60109280       0.13068188       9.02267362
Si      -1.79186137       0.03819580       9.93014190
Si      -8.33853556       2.82896870       5.21406833
Si       1.16125561      -0.17374684       3.12627676
Si      -6.15244381       4.70938383       5.57634682
Si      -4.10351572      -0.74936954       8.52961087
Si      -3.78883455       5.62508644      -0.13056900
Si       0.64385977       0.63020572       4.11285610
Si      -0.76850114       5.30255050      -0.26282496
Si      -1.65490551      -0.74446630       3.53225111
Si       5.49514737      -4.84057976       7.53670440
Si       0.83623395       0.76347300       3.14679437
Si      -5.84929026       3.73944047       5.69593898
Si      -5.78285387       4.19113166       4.78193597
Si      -1.29970714      -0.75530504       9.01248325
22
Lattice="9.305540367959326 -3.13840773610538 -1.1278034357568814 -8.71216492355759 9.413332159854821 -1.804596277202169 -4.955613390679519 -1.2292830729725033 11.71482954286161" Properties=species:S:1:pos:R:3 unique_starting_index=18 config_type=initial n_minim_iter=9 stress="-2.640664828753105e-05 1.5905344742024757e-05 3.655306271043887e-05 1.5905344742024757e-05 2.8150595863679524e-05 -8.253804518700307e-05 3.655306271043887e-05 -8.253804518700307e-05 2.081625737111625e-06" pbc="T T T"
Si      -1.10123901       6.16328315      -0.08819550
Si       1.16131565       0.13634926       9.49837035
Si      -4.17659571      -1.17369824       9.43698778
Si       0.81660912       0.39422937      10.53125440
Si      -8.44931162       4.12103124      10.71178715
Si       6.11841551       0.82665483      -1.42568172
Si       3.46760616       0.38141062      -1.79241250
Si      -1.60054581       0.13061750       9.02281181
Si      -1.79133359       0.03803592       9.93028621
Si      -8.33803728       2.82870922       5.21371410
Si       1.16147738      -0.17385004       3.12642846
Si      -6.15194288       4.70916351       5.57607423
Si      -4.10302207      -0.74944147       8.52974523
Si      -3.78868278       5.62503663      -0.13090204
Si       0.64403999       0.63008082       4.11297236
Si      -0.76839516       5.30240083      -0.26289147
Si      -1.65473959      -0.74454454       3.53231250
Si       5.49528275      -4.84051786       7.53726696
Si       0.83640054       0.76336246       3.14691346
Si      -5.84878822       3.73920804       5.69568137
Si      -5.78234032       4.19105615       4.78167474
Si      -1.29918487      -0.75539976       9.01269937
22
Lattice="9.305478976014532 -3.1384005430312434 -1.1278309359522811 -8.712165195312002 9.413045301822931 -1.804378734333932 -4.95544398811841 -1.2288020190502102 11.714912482125024" Properties=species:S:1:pos:R:3 unique_starting_index=18 config_type=initial n_minim_iter=10 stress="1.418152329758822e-06 1.4407939497534979e-07 -2.5755886508108224e-05 1.4407939497534979e-07 -1.3631721507201934e-05 6.359944268162351e-05 -2.5755886508108224e-05 6.359944268162351e-05 -3.5787511889366574e-06" pbc="T T T"
Si      -1.10123700       6.16307815      -0.08799088
Si       1.16146864       0.13664090       9.49853930
Si      -4.17648333      -1.17327354       9.43707941
Si       0.81666867       0.39463270      10.53141176
Si      -8.44910046       4.12132405      10.71200579
Si       6.11832796       0.82652927      -1.42562201
Si       3.46751770       0.38132222      -1.79236817
Si      -1.60040829       0.13102126       9.02293361
Si      -1.79124220       0.03842248       9.93040688
Si      -8.33793934       2.82880439       5.21379384
Si       1.16156996      -0.17378819       3.12649229
Si      -6.15188910       4.70924959       5.57626180
Si      -4.10294105      -0.74902708       8.52989646
Si      -3.78868695       5.62492611      -0.13077479
Si       0.64408008       0.63018482       4.11305891
Si      -0.76838783       5.30216935      -0.26267340
Si      -1.65473042      -0.74439022       3.53233943
Si       5.49534178      -4.84007221       7.53722930
Si       0.83646044       0.76341902       3.14700600
Si      -5.84871051       3.73930484       5.69579545
Si      -5.78222994       4.19120763       4.78182677
Si      -1.29905010      -0.75499581       9.01282064
22
Lattice="9.305371150108074 -3.1383566184921348 -1.1274982170061096 -8.71217407450167 9.412950728360784 -1.8048558099356171 -4.955030576175921 -1.2289874119967685 11.714957597737843" Properties=species:S:1:pos:R:3 unique_starting_index=18 config_type=initial n_minim_iter=11 stress="2.7543399754016704e-05 -6.110764815824482e-05 4.743366630644566e-05 -6.110764815824482e-05 -6.070654773013239e-05 -3.670900447989896e-05 4.743366630644566e-05 -3.670900447989896e-05 3.1993579052133354e-05" pbc="T T T"
Si      -1.10120346       6.16292991      -0.08818482
Si       1.16178828       0.13641623       9.49871485
Si      -4.17615034      -1.17337703       9.43712671
Si       0.81694925       0.39442440      10.53156254
Si      -8.44863008       4.12106473      10.71182662
Si       6.11820372       0.82650127      -1.42546133
Si       3.46739042       0.38133442      -1.79227070
Si      -1.60011468       0.13091649       9.02302210
Si      -1.79095249       0.03827181       9.93048531
Si      -8.33770766       2.82862129       5.21355605
Si       1.16168818      -0.17391106       3.12658838
Si      -6.15172477       4.70907349       5.57609126
Si      -4.10266093      -0.74906856       8.53000387
Si      -3.78869854       5.62489842      -0.13105603
Si       0.64419437       0.63007440       4.11312314
Si      -0.76838215       5.30200362      -0.26275062
Si      -1.65462714      -0.74445420       3.53235871
Si       5.49557915      -4.84007735       7.53754191
Si       0.83660015       0.76331356       3.14706947
Si      -5.84850379       3.73911775       5.69558088
Si      -5.78204710       4.19112010       4.78163248
Si      -1.29877002      -0.75510423       9.01295712
22
Lattice="9.305231565006617 -3.1382458641060365 -1.1275107465321685 -8.711946934701839 9.412889390080549 -1.8048336754353902 -4.955009462000129 -1.2290530163336055 11.71495185827374" Properties=species:S:1:pos:R:3 unique_starting_index=18 config_type=initial n_minim_iter=12 stress="-5.8896337180481025e-05 0.0001082405998606233 -4.6899018095748064e-05 0.0001082405998606233 8.643806380085483e-05 -1.7005133001690855e-05 -4.6899018095748064e-05 -1.7005133001690855e-05 -2.2733428796857685e-05" pbc="T T T"
Si      -1.10107514       6.16293533      -0.08819871
Si       1.16177504       0.13642829       9.49870599
Si      -4.17614964      -1.17342623       9.43711787
Si       0.81692530       0.39445562      10.53154717
Si      -8.44846515       4.12097873      10.71182980
Si       6.11814400       0.82658456      -1.42545715
Si       3.46734973       0.38138466      -1.79226329
Si      -1.60010294       0.13093280       9.02302310
Si      -1.79094864       0.03827615       9.93047690
Si      -8.33759065       2.82849926       5.21356402
Si       1.16167287      -0.17391762       3.12658908
Si      -6.15160820       4.70902341       5.57612470
Si      -4.10264944      -0.74907791       8.53003336
Si      -3.78858535       5.62490217      -0.13106924
Si       0.64418408       0.63008076       4.11311647
Si      -0.76828437       5.30199077      -0.26272402
Si      -1.65463472      -0.74448341       3.53235528
Si       5.49545060      -4.83999270       7.53748899
Si       0.83662186       0.76332025       3.14706843
Si      -5.84839069       3.73905966       5.69556704
Si      -5.78193332       4.19109245       4.78164206
Si      -1.29878662      -0.75509624       9.01296433
22
Lattice="9.305265377335633 -3.1382960049944963 -1.1273927219513336 -8.71211822666093 9.412720880737345 -1.8049096167151875 -4.9547865690319775 -1.228818519760118 11.71500652266879" Properties=species:S:1:pos:R:3 unique_starting_index=18 config_type=initial n_minim_iter=13 stress="6.309377624966192e-06 -6.515594997454807e-06 2.2306687229448902e-08 -6.515594997454807e-06 -3.0418240775407047e-05 9.466251731045389e-06 2.2306687229448902e-08 9.466251731045389e-06 2.5408184424124733e-05" pbc="T T T"
Si      -1.10108144       6.16269767      -0.08823464
Si       1.16195625       0.13646043       9.49885867
Si      -4.17603444      -1.17322836       9.43712846
Si       0.81709989       0.39457647      10.53169871
Si      -8.44826837       4.12107068      10.71184993
Si       6.11809469       0.82644141      -1.42531671
Si       3.46729615       0.38131710      -1.79219106
Si      -1.59994034       0.13113416       9.02313835
Si      -1.79077374       0.03846704       9.93057911
Si      -8.33755290       2.82851020       5.21352365
Si       1.16173286      -0.17396737       3.12666729
Si      -6.15159200       4.70903409       5.57624489
Si      -4.10254031      -0.74876346       8.53014770
Si      -3.78868795       5.62483821      -0.13115221
Si       0.64421390       0.63005007       4.11317824
Si      -0.76831362       5.30172105      -0.26263069
Si      -1.65458778      -0.74440567       3.53235846
Si       5.49566060      -4.83974931       7.53751629
Si       0.83672566       0.76326712       3.14713515
Si      -5.84830333       3.73909326       5.69552181
Si      -5.78191445       4.19116464       4.78166462
Si      -1.29864404      -0.75488478       9.01310028
22
Lattice="9.30525978654189 -3.1383298237493724 -1.1272615482109993 -8.712189642172088 9.412717670244959 -1.8050409209751888 -4.954619649987819 -1.2288053669167118 11.714923295735069" Properties=species:S:1:pos:R:3 unique_starting_index=18 config_type=initial n_minim_iter=14 stress="-8.871651907640678e-07 1.0501612881010233e-05 1.951739901078122e-06 1.0501612881010233e-05 -1.4813185316473937e-05 -1.9935838276645643e-05 1.951739901078122e-06 -1.9935838276645643e-05 2.432241078787345e-05" pbc="T T T"
Si      -1.10104972       6.16252339      -0.08844928
Si       1.16210561       0.13634528       9.49887996
Si      -4.17588894      -1.17327629       9.43702574
Si       0.81726400       0.39460295      10.53169862
Si      -8.44808742       4.12102188      10.71165386
Si       6.11801221       0.82639856      -1.42513493
Si       3.46718621       0.38133914      -1.79211016
Si      -1.59982257       0.13126528       9.02311231
Si      -1.79066439       0.03849812       9.93055949
Si      -8.33747880       2.82844107       5.21344740
Si       1.16183414      -0.17406407       3.12672791
Si      -6.15158703       4.70900617       5.57632238
Si      -4.10248942      -0.74849683       8.53014504
Si      -3.78866114       5.62487061      -0.13132676
Si       0.64427112       0.62993553       4.11317077
Si      -0.76831713       5.30144978      -0.26260954
Si      -1.65458507      -0.74438512       3.53232466
Si       5.49573797      -4.83957875       7.53741151
Si       0.83684280       0.76315639       3.14714435
Si      -5.84823142       3.73906120       5.69533701
Si      -5.78190437       4.19127951       4.78160114
Si      -1.29856980      -0.75477764       9.01312363
22
Lattice="9.305352049929043 -3.13846417102224 -1.1272621643964833 -8.71237416800134 9.412793565548135 -1.8049416489546521 -4.954592288083935 -1.2285899907829934 11.714815152302172" Properties=species:S:1:pos:R:3 unique_starting_index=18 config_type=initial n_minim_iter=15 stress="4.243240942516746e-06 5.565885924813251e-06 -1.552272203883635e-06 5.565885924813251e-06 -1.3142908640259655e-05 -3.983719530950171e-06 -1.552272203883635e-06 -3.983719530950171e-06 2.5484479443190425e-05" pbc="T T T"
Si      -1.10097708       6.16235638      -0.08858607
Si       1.16214574       0.13633436       9.49885880
Si      -4.17580312      -1.17318825       9.43691682
Si       0.81724474       0.39475301      10.53163818
Si      -8.44812117       4.12117684      10.71150088
Si       6.11792142       0.82629049      -1.42497157
Si       3.46712792       0.38132800      -1.79204271
Si      -1.59982294       0.13155701       9.02305163
Si      -1.79065481       0.03869197       9.93051497
Si      -8.33755094       2.82850943       5.21348249
Si       1.16190511      -0.17414713       3.12676618
Si      -6.15172487       4.70910630       5.57652212
Si      -4.10257051      -0.74804640       8.53013595
Si      -3.78868859       5.62494948      -0.13138911
Si       0.64430519       0.62985566       4.11314415
Si      -0.76829766       5.30119987      -0.26246447
Si      -1.65454770      -0.74424575       3.53227919
Si       5.49581040      -4.83930110       7.53712031
Si       0.83688802       0.76305671       3.14713403
Si      -5.84829305       3.73914744       5.69523714
Si      -5.78202918       4.19158166       4.78163122
Si      -1.29859958      -0.75450975       9.01309228
22
Lattice="9.305524459908721 -3.1386385530176484 -1.1273774153833813 -8.71260684625915 9.412957721693951 -1.8047154952156923 -4.954741998166366 -1.2283647311144859 11.714717697763838" Properties=species:S:1:pos:R:3 unique_starting_index=18 config_type=initial n_minim_iter=16 stress="7.878306125504565e-06 7.573124424122308e-07 -2.2030200978093284e-07 7.573124424122308e-07 5.683674349520437e-06 8.392363974737353e-06 -2.2030200978093284e-07 8.392363974737353e-06 2.077599997664817e-05" pbc="T T T"
Si      -1.10097150       6.16223629      -0.08869594
Si       1.16209375       0.13636970       9.49881188
Si      -4.17588849      -1.17310213       9.43685100
Si       0.81711235       0.39490407      10.53152701
Si      -8.44828628       4.12139165      10.71141618
Si       6.11790074       0.82619638      -1.42487360
Si       3.46717883       0.38128994      -1.79202993
Si      -1.59998672       0.13180538       9.02296086
Si      -1.79075404       0.03891889       9.93041929
Si      -8.33773593       2.82862850       5.21360474
Si       1.16191897      -0.17422975       3.12675746
Si      -6.15192249       4.70924988       5.57672413
Si      -4.10281826      -0.74767309       8.53016791
Si      -3.78872629       5.62508245      -0.13136964
Si       0.64434059       0.62983571       4.11310816
Si      -0.76837072       5.30104303      -0.26227557
Si      -1.65463578      -0.74411255       3.53221018
Si       5.49584844      -4.83908023       7.53674276
Si       0.83686761       0.76299049       3.14708797
Si      -5.84841795       3.73927625       5.69524375
Si      -5.78227197       4.19197569       4.78169968
Si      -1.29877288      -0.75425641       9.01298571
22
Lattice="9.305781836703547 -3.1387390877862726 -1.1275545697550609 -8.712869304460451 9.41301508444291 -1.804497002305741 -4.955078986903621 -1.22829543099271 11.714605920591458" Properties=species:S:1:pos:R:3 unique_starting_index=18 config_type=initial n_minim_iter=17 stress="6.2043203821385175e-06 3.5197737230597876e-06 9.755503892619085e-06 3.5197737230597876e-06 1.3835600439667186e-05 -2.49148527856609e-06 9.755503892619085e-06 -2.49148527856609e-06 4.604968986022255e-06" pbc="T T T"
Si      -1.10095691       6.16212937      -0.08891115
Si       1.16185569       0.13622525       9.49867203
Si      -4.17611441      -1.17314405       9.43684947
Si       0.81690269       0.39497411      10.53132684
Si      -8.44869565       4.12139306      10.71130357
Si       6.11797619       0.82610854      -1.42482343
Si       3.46727035       0.38126870      -1.79211238
Si      -1.60023212       0.13191365       9.02280154
Si      -1.79096586       0.03898994       9.93023206
Si      -8.33804179       2.82863878       5.21374404
Si       1.16186598      -0.17434704       3.12671269
Si      -6.15221306       4.70921633       5.57687721
Si      -4.10319787      -0.74741396       8.53030144
Si      -3.78877721       5.62513299      -0.13144585
Si       0.64433114       0.62975721       4.11300793
Si      -0.76842906       5.30077207      -0.26211321
Si      -1.65476804      -0.74399264       3.53225723
Si       5.49583072      -4.83890839       7.53627533
Si       0.83683745       0.76287006       3.14698686
Si      -5.84861619       3.73924981       5.69522017
Si      -5.78270718       4.19227302       4.78171317
Si      -1.29905073      -0.75410731       9.01279749
22
Lattice="9.306140316478741 -3.1388359235916448 -1.1278740159707914 -8.713207266031352 9.412975682589154 -1.8041099125256168 -4.955604754165269 -1.228122970847395 11.714575785740962" Properties=species:S:1:pos:R:3 unique_starting_index=18 config_type=initial n_minim_iter=18 stress="1.4430809111858533e-05 -1.8647858133818645e-06 1.5693190795239674e-06 -1.8647858133818645e-06 1.5898278484380215e-05 2.8193524469192172e-05 1.5693190795239674e-06 2.8193524469192172e-05 -8.001356213594419e-06" pbc="T T T"
Si      -1.10098116       6.16188695      -0.08902854
Si       1.16151257       0.13612073       9.49853712
Si      -4.17646635      -1.17311997       9.43694401
Si       0.81661096       0.39505622      10.53114874
Si      -8.44932795       4.12144575      10.71131968
Si       6.11812227       0.82598717      -1.42482955
Si       3.46742934       0.38123045      -1.79227086
Si      -1.60060206       0.13212089       9.02264191
Si      -1.79129002       0.03910010       9.93011308
Si      -8.33846650       2.82869203       5.21401824
Si       1.16176959      -0.17444611       3.12665393
Si      -6.15264757       4.70919216       5.57720510
Si      -4.10372643      -0.74706266       8.53056666
Si      -3.78890257       5.62521392      -0.13146593
Si       0.64424772       0.62970935       4.11289705
Si      -0.76857211       5.30046004      -0.26183393