12
Lattice="5.883909941591515 1.5332883248168196 -1.7053558619278448 0.415613578069208 8.018236287633995 0.46158626334802755 -2.886267274374305 -2.235843891234467 11.416037658731051" Properties=species:S:1:pos:R:3 unique_starting_index=44 config_type=initial n_minim_iter=1 energy=-2129.511318754488 free_energy=-2129.511318754488 pbc="T T T"
Si      -1.42512598       1.86894342       9.36203317
Si      -0.47757552       4.61211987       3.92814878
Si      -1.62692561       4.49778547      10.11395604
Si       3.23070897       3.47866575       7.49281838
Si       3.97798605       6.09743176       7.50746195
Si       4.03369439       3.45998567       6.72962892
Si       6.42441372       5.64133506      -2.92630845
Si       1.63205515       4.02045480      -1.05086266
Si      -2.17804929      -0.80083929       9.95833143
Si       5.69254858       4.07991592       1.98041661
Si      -2.49278060      -0.72587281       8.94100541
Si      -1.45581793      -0.80150566       9.17488046
12
Lattice="5.884155695367578 1.5334299408184833 -1.7048244135255242 0.41585308972199414 8.018045848096246 0.46137182588964915 -2.885807725616163 -2.2361132926771994 11.414424963537925" Properties=species:S:1:pos:R:3 unique_starting_index=44 config_type=initial n_minim_iter=2 stress="-0.0002870904935282092 -9.590469867088285e-05 -2.0726012303022836e-05 -9.590469867088285e-05 -0.0016215709633883792 -6.842731671285348e-05 -2.0726012303022836e-05 -6.842731671285348e-05 -0.0003053713471150497" pbc="T T T"
Si      -1.42470317       1.86853785       9.36049081
Si      -0.47726441       4.61195089       3.92750011
Si      -1.62644762       4.49745019      10.11236481
Si       3.23162256       3.47842015       7.49197324
Si       3.97870536       6.09722509       7.50668423
Si       4.03434535       3.45981340       6.72890217
Si       6.42498646       5.64129827      -2.92580640
Si       1.63211435       4.02037303      -1.05050451
Si      -2.17752033      -0.80090262       9.95708606
Si       5.69293464       4.08001165       1.98042547
Si      -2.49229704      -0.72603908       8.93956799
Si      -1.45555447      -0.80177616       9.17360843
12
Lattice="5.884234059364435 1.533519636988966 -1.704753349270471 0.41590932480804516 8.018324993701748 0.461356765317854 -2.8857592520168147 -2.236226135044976 11.414265259786092" Properties=species:S:1:pos:R:3 unique_starting_index=44 config_type=initial n_minim_iter=3 stress="-0.00022005909276421814 2.3006300499269227e-06 -5.861684921741626e-06 2.3006300499269227e-06 0.0002178929745878352 3.0584541379030226e-05 -5.861684921741626e-06 3.0584541379030226e-05 -0.00025387669527377095" pbc="T T T"
Si      -1.42463938       1.86856153       9.36033568
Si      -0.47720976       4.61210807       3.92744003
Si      -1.62637403       4.49758437      10.11221380
Si       3.23179101       3.47853690       7.49191021
Si       3.97885244       6.09744747       7.50663294
Si       4.03447876       3.45994027       6.72884733
Si       6.42512890       5.64151858      -2.92574148
Si       1.63214231       4.02051725      -1.05045102
Si      -2.17745498      -0.80093346       9.95697469
Si       5.69303710       4.08019917       1.98045132
Si      -2.49223950      -0.72608408       8.93941724
Si      -1.45552386      -0.80183681       9.17348460
12
Lattice="5.884732518362444 1.5335764987121294 -1.7047727062881428 0.41602019496248777 8.018260043013198 0.4612973054379247 -2.885848811839557 -2.236363372054783 11.414880623687445" Properties=species:S:1:pos:R:3 unique_starting_index=44 config_type=initial n_minim_iter=4 stress="0.00020032919213027627 1.46654088222029e-05 7.107246682758925e-05 1.46654088222029e-05 -1.8763920302879707e-05 -2.9562135032604062e-05 7.107246682758925e-05 -2.9562135032604062e-05 0.0003467289566742472" pbc="T T T"
Si      -1.42458067       1.86840724       9.36080341
Si      -0.47715202       4.61204581       3.92759311
Si      -1.62635445       4.49741757      10.11273483
Si       3.23228570       3.47845099       7.49234539
Si       3.97931489       6.09733885       7.50702621
Si       4.03495400       3.45986882       6.72918892
Si       6.42580385       5.64155469      -2.92589477
Si       1.63228266       4.02051876      -1.05047453
Si      -2.17748641      -0.80105501       9.95756613
Si       5.69353190       4.08024520       1.98062643
Si      -2.49228555      -0.72621297       8.93983527
Si      -1.45556447      -0.80198562       9.17396619
12
Lattice="5.884961788291505 1.5336254227329869 -1.7046444172784685 0.41607924183953704 8.018293105870466 0.4612101288532752 -2.8861902083763855 -2.2364068044152865 11.413257049236272" Properties=species:S:1:pos:R:3 unique_starting_index=44 config_type=initial n_minim_iter=5 stress="1.3581273441790787e-05 2.1456294339236123e-05 -2.19927837312703e-07 2.1456294339236123e-05 5.172869242668923e-06 1.7584761160911816e-05 -2.19927837312703e-07 1.7584761160911816e-05 -2.0579533430565857e-05" pbc="T T T"
Si      -1.42466999       1.86836351       9.35949811
Si      -0.47722551       4.61214035       3.92699594
Si      -1.62668035       4.49738351      10.11139488
Si       3.23243058       3.47850831       7.49119773
Si       3.97915834       6.09732939       7.50575371
Si       4.03496216       3.45989933       6.72795687
Si       6.42643868       5.64166060      -2.92567129
Si       1.63231714       4.02060172      -1.05032465
Si      -2.17779771      -0.80116580       9.95626881
Si       5.69347315       4.08047537       1.98029241
Si      -2.49245730      -0.72632008       8.93848325
Si      -1.45594764      -0.80213196       9.17259011
12
Lattice="5.884891323042554 1.5334307646376357 -1.7046384500439535 0.4156727920381627 8.018317844469733 0.46076081729654333 -2.8863566318998055 -2.23682017355475 11.41189676779561" Properties=species:S:1:pos:R:3 unique_starting_index=44 config_type=initial n_minim_iter=6 stress="-0.00021978913895953726 -7.689436022497868e-05 3.763749051429312e-05 -7.689436022497868e-05 3.055473489229654e-05 -0.00014634288958645337 3.763749051429312e-05 -0.00014634288958645337 8.359057987913756e-05" pbc="T T T"
Si      -1.42450858       1.86790778       9.35793872
Si      -0.47756939       4.61226400       3.92619323
Si      -1.62728151       4.49698282      10.10994061
Si       3.23219054       3.47791830       7.48982837
Si       3.97845096       6.09669712       7.50435247
Si       4.03468345       3.45929974       6.72651527
Si       6.42651754       5.64149193      -2.92559511
Si       1.63231251       4.02059169      -1.05021384
Si      -2.17821418      -0.80167781       9.95512231
Si       5.69261822       4.08057018       1.97992713
Si      -2.49269734      -0.72661834       8.93736900
Si      -1.45617557      -0.80247967       9.17139342
12
Lattice="5.885576750754908 1.5334273032006136 -1.7045639033156368 0.41583902372686893 8.018267913271696 0.4611185169336128 -2.887027667035871 -2.2362557520848 11.410745495256265" Properties=species:S:1:pos:R:3 unique_starting_index=44 config_type=initial n_minim_iter=7 stress="0.00018390246973545724 9.721912721929779e-05 -9.056352386930687e-05 9.721912721929779e-05 -2.1450501451029693e-05 7.1572037707804e-05 -9.056352386930687e-05 7.1572037707804e-05 -0.00011019562317427267" pbc="T T T"
Si      -1.42468744       1.86833138       9.35707575
Si      -0.47766420       4.61254807       3.92602430
Si      -1.62768565       4.49743233      10.10925418
Si       3.23243421       3.47823033       7.48914268
Si       3.97869585       6.09706431       7.50380675
Si       4.03500585       3.45960895       6.72583823
Si       6.42745861       5.64134309      -2.92517638
Si       1.63267711       4.02052342      -1.04991797
Si      -2.17881627      -0.80119454       9.95419612
Si       5.69293103       4.08094122       1.97990428
Si      -2.49328381      -0.72625455       8.93651217
Si      -1.45662978      -0.80203541       9.17051103
12
Lattice="5.885297566094935 1.5329744521052364 -1.7041785131948435 0.4152602889135647 8.018286331660864 0.4612312361726162 -2.8863049437021036 -2.23588251114081 11.409928534365042" Properties=species:S:1:pos:R:3 unique_starting_index=44 config_type=initial n_minim_iter=8 stress="-8.085801064183564e-05 -2.324212998291135e-05 0.00019643015184035904 -2.324212998291135e-05 -1.9250929865370518e-05 0.0001577265717630665 0.00019643015184035904 0.0001577265717630665 -3.428902747410497e-05" pbc="T T T"
Si      -1.42403939       1.86861274       9.35641843
Si      -0.47783774       4.61298454       3.92576593
Si      -1.62746230       4.49765266      10.10874271
Si       3.23264857       3.47791619       7.48884636
Si       3.97849135       6.09693871       7.50355920
Si       4.03502489       3.45930756       6.72560065
Si       6.42694565       5.64069253      -2.92462692
Si       1.63248134       4.02037288      -1.04974066
Si      -2.17833293      -0.80082163       9.95354525
Si       5.69201192       4.08100981       1.98039113
Si      -2.49290962      -0.72611582       8.93580444
Si      -1.45623532      -0.80188982       9.17001026
12
Lattice="5.885690223480235 1.5328294020821545 -1.7049563281416864 0.41472674815806215 8.018361693277628 0.4602549740369305 -2.887595093029894 -2.2370451840413272 11.410113090823296" Properties=species:S:1:pos:R:3 unique_starting_index=44 config_type=initial n_minim_iter=9 stress="0.00017702527807858697 1.3423642685754838e-05 -4.447845446530917e-05 1.3423642685754838e-05 1.850812243381821e-05 -0.0002573648683110714 -4.447845446530917e-05 -0.0002573648683110714 -0.00017699930694625612" pbc="T T T"
Si      -1.42500341       1.86775254       9.35595464
Si      -0.47860894       4.61307600       3.92505431
Si      -1.62884087       4.49655968      10.10805850
Si       3.23199212       3.47670871       7.48780200
Si       3.97750144       6.09584173       7.50211157
Si       4.03429712       3.45825640       6.72449770
Si       6.42738079       5.64053516      -2.92593162
Si       1.63259437       4.02042135      -1.05041743
Si      -2.17954278      -0.80185986       9.95356318
Si       5.69105776       4.08102848       1.97957638
Si      -2.49408958      -0.72715705       8.93575108
Si      -1.45741207      -0.80289668       9.17007062
12
Lattice="5.88529205999876 1.5321312330617665 -1.7058072153442991 0.4137932119168665 8.018403283766709 0.46068142532771367 -2.8886010820450196 -2.236144651351049 11.411558645226593" Properties=species:S:1:pos:R:3 unique_starting_index=44 config_type=initial n_minim_iter=10 stress="-0.00014241444161826387 4.5741910882047775e-05 -0.00014039581222948186 4.5741910882047775e-05 -2.22889053843867e-05 8.060660294167035e-05 -0.00014039581222948186 8.060660294167035e-05 0.00013201787258839895" pbc="T T T"
Si      -1.42599133       1.86847581       9.35711167
Si      -0.47957840       4.61408062       3.92561336
Si      -1.63027338       4.49726117      10.10948376
Si       3.23079912       3.47647173       7.48832444
Si       3.97569419       6.09549969       7.50270005
Si       4.03278222       3.45803060       6.72484823
Si       6.42690744       5.63952801      -2.92683326
Si       1.63238829       4.02020273      -1.05060701
Si      -2.18057102      -0.80125476       9.95485479
Si       5.68872823       4.08137351       1.97984408
Si      -2.49503951      -0.72667582       8.93679480
Si      -1.45856393      -0.80223896       9.17135308
12
Lattice="5.8855274250883705 1.5313990022201167 -1.705577986026155 0.41271434652816075 8.018493500653427 0.4603635747105066 -2.888115036857818 -2.2362306117280237 11.411062165999372" Properties=species:S:1:pos:R:3 unique_starting_index=44 config_type=initial n_minim_iter=11 stress="5.4417739725270944e-05 -5.754045708127888e-05 2.163538840784965e-05 -5.754045708127888e-05 1.5431267293630516e-06 -2.8094859582722458e-05 2.163538840784965e-05 -2.8094859582722458e-05 -5.351075020899223e-06" pbc="T T T"
Si      -1.42588367       1.86820231       9.35660849
Si      -0.48012856       4.61482930       3.92511981
Si      -1.63049204       4.49721179      10.10869414
Si       3.23115065       3.47546240       7.48795819
Si       3.97560636       6.09462196       7.50232186
Si       4.03287107       3.45706423       6.72454639
Si       6.42679692       5.63869472      -2.92677446
Si       1.63208932       4.02010731      -1.05074622
Si      -2.18024694      -0.80169645       9.95430847
Si       5.68759090       4.08130332       1.98032176
Si      -2.49481546      -0.72694634       8.93625173
Si      -1.45827909      -0.80231641       9.17108276
12
Lattice="5.885512095827514 1.5310687754776253 -1.7054945765117484 0.41226131543037886 8.01853370116557 0.46037046547661403 -2.887951340200876 -2.2360601948604732 11.410762925601897" Properties=species:S:1:pos:R:3 unique_starting_index=44 config_type=initial n_minim_iter=12 stress="-2.7773915824213513e-05 0.00010127331953586697 2.5545599996577687e-05 0.00010127331953586697 -1.5548272075066616e-05 1.5535584063735936e-05 2.5545599996577687e-05 1.5535584063735936e-05 5.241952495577611e-05" pbc="T T T"
Si      -1.42598509       1.86810897       9.35631733
Si      -0.48035677       4.61585896       3.92490853
Si      -1.63047104       4.49702683      10.10840611
Si       3.23115971       3.47489719       7.48780907
Si       3.97550777       6.09432338       7.50206905
Si       4.03282113       3.45663308       6.72439464
Si       6.42684003       5.63818745      -2.92669113
Si       1.63198054       4.02018245      -1.05069887
Si      -2.18018684      -0.80173636       9.95396933
Si       5.68619671       4.08177834       1.98086029
Si      -2.49455918      -0.72708771       8.93599449
Si      -1.45803347      -0.80210304       9.17080416
12
Lattice="5.885595888940488 1.5300434011708561 -1.7055266874110906 0.41079174969447424 8.018607102580454 0.460175458059761 -2.887975564120252 -2.23578085698061 11.409942935941345" Properties=species:S:1:pos:R:3 unique_starting_index=44 config_type=initial n_minim_iter=13 stress="0.00013163865560480813 -0.00035060367102580334 -0.0001468618686524971 -0.00035060367102580334 2.6364661609597115e-05 0.00011851728475652751 -0.0001468618686524971 0.00011851728475652751 4.005077637365277e-05" pbc="T T T"
Si      -1.42672036       1.86809234       9.35546766
Si      -0.48128716       4.61706132       3.92440844
Si      -1.63141393       4.49712702      10.10746380
Si       3.23044045       3.47390527       7.48708768
Si       3.97456740       6.09333759       7.50115062
Si       4.03234488       3.45565333       6.72361455
Si       6.42643325       5.63691791      -2.92669065
Si       1.63148463       4.02005608      -1.05065957
Si      -2.18038204      -0.80166551       9.95319443
Si       5.68444581       4.08152729       1.98101362
Si      -2.49450415      -0.72708771       8.93529821
Si      -1.45792339      -0.80229521       9.16996189
12
Lattice="5.8853371220504185 1.5305896670557673 -1.7050123856919217 0.4112997240775592 8.018629946621264 0.45930406545116725 -2.887066447613779 -2.237183640690931 11.408653759152683" Properties=species:S:1:pos:R:3 unique_starting_index=44 config_type=initial n_minim_iter=14 stress="-1.6519309170895654e-05 3.3230321566819944e-05 2.8911594583534174e-05 3.3230321566819944e-05 3.6880078061497925e-06 -1.322525690742236e-05 2.8911594583534174e-05 -1.322525690742236e-05 1.3106158942332489e-05" pbc="T T T"
Si      -1.42584445       1.86692799       9.35406621
Si      -0.48059880       4.61788712       3.92332609
Si      -1.63003274       4.49595723      10.10564058
Si       3.23100830       3.47297177       7.48613470
Si       3.97553943       6.09246059       7.49986666
Si       4.03305867       3.45503048       6.72269503
Si       6.42647916       5.63731157      -2.92636413
Si       1.63174594       4.02033239      -1.05076805
Si      -2.17943342      -0.80301869       9.95196485
Si       5.68330431       4.08249369       1.98138326
Si      -2.49341202      -0.72852251       8.93406111
Si      -1.45686771      -0.80364788       9.16875445
12
Lattice="5.885261875977432 1.530765742474466 -1.7047210424651076 0.41134225611994424 8.018657577002209 0.45858726432291813 -2.8866920308599533 -2.2381639273879346 11.407217392632484" Properties=species:S:1:pos:R:3 unique_starting_index=44 config_type=initial n_minim_iter=15 stress="0.00011613215154417408 -0.00010552618942990974 0.0001257439213002145 -0.00010552618942990974 1.5946460090808957e-05 1.1226990234548162e-05 0.0001257439213002145 1.1226990234548162e-05 -9.790883640372734e-05" pbc="T T T"
Si      -1.42550771       1.86582299       9.35272364
Si      -0.48031555       4.61903359       3.92229101
Si      -1.62959463       4.49493239      10.10381969
Si       3.23104130       3.47220004       7.48491787
Si       3.97578996       6.09147060       7.49841646
Si       4.03333257       3.45412542       6.72145327
Si       6.42639467       5.63748573      -2.92611256
Si       1.63194674       4.02029686      -1.05096985
Si      -2.17874140      -0.80386241       9.95068532
Si       5.68203331       4.08321540       1.98152728
Si      -2.49278762      -0.72949825       8.93253127
Si      -1.45627349      -0.80463364       9.16748203
12
Lattice="5.8848107936457446 1.5317110178241315 -1.7054895110971768 0.41227453768041605 8.018648830218883 0.4576694493154985 -2.887865525457781 -2.2397512931741557 11.407361517876328" Properties=species:S:1:pos:R:3 unique_starting_index=44 config_type=initial n_minim_iter=16 stress="-7.702500139366132e-05 -3.476605226844585e-05 -8.708247165684205e-05 -3.476605226844585e-05 7.583188514015688e-06 7.449486360913069e-06 -8.708247165684205e-05 7.449486360913069e-06 3.90852252754988e-05" pbc="T T T"
Si      -1.42615426       1.86420064       9.35226729
Si      -0.47987731       4.62027682       3.92157807
Si      -1.62984414       4.49349831      10.10319497
Si       3.23002168       3.47164443       7.48385178
Si       3.97512670       6.09101400       7.49697507
Si       4.03249308       3.45333351       6.72027113
Si       6.42650907       5.63863147      -2.92719009
Si       1.63262144       4.02035348      -1.05152767
Si      -2.17921742      -0.80538066       9.95065601
Si       5.68006707       4.08470940       1.98101751
Si      -2.49318103      -0.73113208       8.93219699
Si      -1.45692070      -0.80620462       9.16733094
12
Lattice="5.884958481625756 1.5331306919894 -1.7052900070839412 0.41393766737759535 8.018615361275565 0.4566125646081194 -2.887911709428074 -2.241773782836394 11.406159475130444" Properties=species:S:1:pos:R:3 unique_starting_index=44 config_type=initial n_minim_iter=17 stress="5.00058414841157e-05 -3.8503602950660754e-05 6.763956232903876e-05 -3.8503602950660754e-05 9.971212591218636e-07 2.9622449082435896e-05 6.763956232903876e-05 2.9622449082435896e-05 -9.952479472702147e-05" pbc="T T T"
Si      -1.42554257       1.86232828       9.35072395
Si      -0.47843024       4.62167836       3.92036068
Si      -1.62845455       4.49149479      10.10138522
Si       3.23100340       3.47124933       7.48249896
Si       3.97654859       6.09040983       7.49530867
Si       4.03321493       3.45255655       6.71912757
Si       6.42742281       5.64053421      -2.92729403
Si       1.63365527       4.02046856      -1.05175698
Si      -2.17865249      -0.80727452       9.94927456
Si       5.67934025       4.08675084       1.98110641
Si      -2.49285290      -0.73295383       8.93093927
Si      -1.45634856      -0.80840055       9.16625679
12
Lattice="5.884881246510247 1.5353547989894483 -1.7062195460906164 0.41642164805757786 8.018581081635599 0.45496522807690204 -2.8893727556873 -2.244989938024866 11.407234634514031" Properties=species:S:1:pos:R:3 unique_starting_index=44 config_type=initial n_minim_iter=18 stress="-4.6169179263233745e-05 2.0801978007902704e-05 -6.475458441539573e-05 2.0801978007902704e-05 5.345713912137542e-06 1.8737626064680367e-05 -6.475458441539573e-05 1.8737626064680367e-05 -3.7659333401757903e-06" pbc="T T T"
Si      -1.42564417       1.85917704       9.35091507
Si      -0.47666801       4.62322808       3.91941899
Si      -1.62759471       4.48864143      10.10083673
Si       3.23113341       3.47062262       7.48168818
Si       3.97743004       6.08967524       7.49389137
Si       4.03293619       3.45150033       6.71803243
Si       6.42880628       5.64325847      -2.92913863
Si       1.63491156       4.02060306      -1.05279007
Si      -2.17947248      -0.80992895       9.94967822
Si       5.67804985       4.08964139       1.98054303
Si      -2.49354632      -0.73573087       8.93165824
Si      -1.45682773      -0.81163850       9.16670258
12
Lattice="5.885105283142207 1.537172812301448 -1.705961410978897 0.41842429161623035 8.0185630375532 0.45318623455302315 -2.888767232506686 -2.248279595074165 11.407400813622136" Properties=species:S:1:pos:R:3 unique_starting_index=44 config_type=initial n_minim_iter=19 stress="-5.855326561613882e-07 4.96241982044682e-06 -1.22902490541307e-05 4.96241982044682e-06 2.783800411861418e-05 -2.6587642317426838e-05 -1.22902490541307e-05 -2.6587642317426838e-05 -3.2578299357231006e-05" pbc="T T T"
Si      -1.42409964       1.85579009       9.35007959
Si      -0.47427498       4.62476780       3.91816039
Si      -1.62525551       4.48569614      10.09951942
Si       3.23270903       3.46986888       7.48137368
Si       3.97989501       6.08829802       7.49271297
Si       4.03450043       3.45010687       6.71779139
Si       6.42990822       5.64558944      -2.92973834
Si       1.63566704       4.02064480      -1.05366463
Si      -2.17869883      -0.81273680       9.94953325
Si       5.67785803       4.09225577       1.98074304
Si      -2.49275894      -0.73895376       8.93162306
Si      -1.45599060      -0.81476370       9.16652928
12
Lattice="5.885145078111838 1.5388931661568157 -1.705418143323471 0.4204771798009687 8.018509214735188 0.4519753291502514 -2.887630026495628 -2.250806005635228 11.407739065311088" Properties=species:S:1:pos:R:3 unique_starting_index=44 config_type=initial n_minim_iter=20 stress="-2.4200632432558067e-05 5.378813168395735e-05 5.835627103396446e-05 5.378813168395735e-05 3.054093926379542e-05 -4.098753492099497e-06 5.835627103396446e-05 -4.098753492099497e-06 2.2319681511781e-05" pbc="T T T"
Si      -1.42199071       1.85321944       9.34976364
Si      -0.47136849       4.62682775       3.91732196
Si      -1.62252609       4.48308854      10.09860346
Si       3.23434498       3.46918906       7.48179520
Si       3.98275672       6.08749557       7.49262388
Si       4.03629928       3.44898143       6.71811899
Si       6.43070791       5.64769768      -2.92977153
Si       1.63627310       4.02077612      -1.05425880
Si      -2.17745261      -0.81517642       9.94981352
Si       5.67776640       4.09534656       1.98147752
Si      -2.49152082      -0.74136251       8.93163975
Si      -1.45500429      -0.81750342       9.16652869
12
Lattice="5.885325045595492 1.5400331511885121 -1.7053452480734903 0.42170849357245266 8.018495469896578 0.45078774758500556 -2.887525161531172 -2.2529281383425546 11.407504077765452" Properties=species:S:1:pos:R:3 unique_starting_index=44 config_type=initial n_minim_iter=21 stress="1.1859987784623217e-05 5.5546265514225664e-05 5.2825998758358565e-05 5.5546265514225664e-05 2.6837897291376093e-05 -1.3271262121522134e-05 5.2825998758358565e-05 -1.3271262121522134e-05 8.415103180354777e-06" pbc="T T T"
Si      -1.42121303       1.85082142       9.34893273
Si      -0.46898433       4.62942695       3.91625516
Si      -1.62134753       4.48097973      10.09760446
Si       3.23499173       3.46794939       7.48129053
Si       3.98407269       6.08629375       7.49129561
Si       4.03701093       3.44751708       6.71763345
Si       6.43129381       5.64885307      -2.93022282
Si       1.63657083       4.02066959      -1.05486030
Si      -2.17711386      -0.81742403       9.94950137
Si       5.67729817       4.09837222       1.98150400
Si      -2.49123612      -0.74325070       8.93124746
Si      -1.45485268      -0.81987793       9.16602278
