10
Lattice="5.312245914752007 0.41604001414564873 -3.514588791141652e-17 -2.0156098201405026 6.21328193750138 -5.248803809917291e-16 2.0180107777939456e-23 8.313195510570184e-16 9.840761623514553" Properties=species:S:1:pos:R:3 unique_starting_index=14 config_type=initial n_minim_iter=1 energy=-1628.6518801635673 free_energy=-1628.6518801635673 pbc="T T T"
Si       0.79042420       3.77108159       0.85788858
Si       2.50621189       2.85824036       0.85788858
Si       1.77507552       0.60791761       1.72679427
Si       1.52156057       6.02140434       1.72679427
Si       2.87704122       1.37062806       6.63440492
Si       0.41959487       5.25869389       6.63440492
Si       0.79592983       3.78234642       2.66297819
Si       2.50070626       2.84697553       2.66297819
Si      -1.37460372       4.12174816       6.16729121
Si       4.67123981       2.50757380       6.16729121
10
Lattice="5.312379099192692 0.41603553044343694 -3.5145509136805875e-17 -2.0157565706235117 6.21444352836988 -5.249785088719852e-16 2.0184838552256154e-23 8.312412807342597e-16 9.83983509677075" Properties=species:S:1:pos:R:3 unique_starting_index=14 config_type=initial n_minim_iter=2 stress="0.00017251419636908952 1.7552549132663072e-05 9.165779554471546e-18 1.7552549132663072e-05 0.00023111555490394015 2.720570022304509e-17 9.165779554471546e-18 2.720570022304509e-17 3.072894421436568e-05" pbc="T T T"
Si       0.79033894       3.77172910       0.85781859
Si       2.50628359       2.85874996       0.85781859
Si       1.77509993       0.60796440       1.72662222
Si       1.52152260       6.02251466       1.72662222
Si       2.87707158       1.37078832       6.63379598
Si       0.41955095       5.25969073       6.63379598
Si       0.79587794       3.78300223       2.66266909
Si       2.50074459       2.84747683       2.66266909
Si      -1.37473377       4.12247779       6.16675190
Si       4.67135629       2.50800127       6.16675190
10
Lattice="5.311520085428071 0.41581032224003756 -3.512648417853683e-17 -2.0157080400925755 6.21462223330217 -5.249936053348128e-16 2.0193138956878537e-23 8.310910368414683e-16 9.838056581267308" Properties=species:S:1:pos:R:3 unique_starting_index=14 config_type=initial n_minim_iter=3 stress="-0.00017745035886857651 -3.6657248794360217e-06 2.6506033517903068e-17 -3.6657248794360217e-06 1.5301225964504847e-05 -1.5336824425453348e-17 2.6506033517903068e-17 -1.5336824425453348e-17 -0.0004330310433827202" pbc="T T T"
Si       0.78991456       3.77166998       0.85770375
Si       2.50589748       2.85876258       0.85770375
Si       1.77476366       0.60779315       1.72628130
Si       1.52104838       6.02263940       1.72628130
Si       2.87648767       1.37055132       6.63264407
Si       0.41932437       5.25988123       6.63264407
Si       0.79555148       3.78295925       2.66200150
Si       2.50026056       2.84747330       2.66200150
Si      -1.37478210       4.12244984       6.16576510
Si       4.67059414       2.50798271       6.16576510
10
Lattice="5.31061293029731 0.41504959734696184 -3.506222031425574e-17 -2.016304681429823 6.215274521662886 -5.250487088327817e-16 2.0180181580486847e-23 8.313377869898196e-16 9.840977491734634" Properties=species:S:1:pos:R:3 unique_starting_index=14 config_type=initial n_minim_iter=4 stress="-0.00013420631569000137 -0.00015343727026361805 4.475147715992626e-17 -0.00015343727026361805 3.75489283296739e-05 -4.1418033796058377e-17 4.475147715992626e-17 -4.1418033796058377e-17 8.078984433771205e-05" pbc="T T T"
Si       0.78867200       3.77144009       0.85811973
Si       2.50563625       2.85888403       0.85811973
Si       1.77425584       0.60717275       1.72663900
Si       1.52005241       6.02315137       1.72663900
Si       2.87552324       1.36963025       6.63482339
Si       0.41878500       5.26069387       6.63482339
Si       0.79472937       3.78279924       2.66197808
Si       2.49957888       2.84752488       2.66197808
Si      -1.37555846       4.12221474       6.16819289
Si       4.66986670       2.50810937       6.16819289
10
Lattice="5.3112978561574105 0.4158616884408132 -3.51308234595629e-17 -2.0155606262041768 6.214583730662852 -5.249903527708139e-16 2.0182036540280613e-23 8.313029870613654e-16 9.84056554679524" Properties=species:S:1:pos:R:3 unique_starting_index=14 config_type=initial n_minim_iter=5 stress="-7.993945478469718e-06 6.148426432146978e-05 9.316836772577179e-17 6.148426432146978e-05 -3.3085468489437737e-06 8.40848685467833e-17 9.316836772577179e-17 8.40848685467833e-17 1.5256813434148277e-05" pbc="T T T"
Si       0.78929001       3.77127516       0.85812872
Si       2.50644721       2.85917026       0.85812872
Si       1.77455724       0.60739567       1.72653373
Si       1.52117999       6.02304975       1.72653373
Si       2.87601229       1.36988073       6.63459123
Si       0.41972494       5.26056469       6.63459123
Si       0.79541576       3.78264710       2.66163158
Si       2.50032147       2.84779832       2.66163158
Si      -1.37516325       4.12160065       6.16811227
Si       4.67090047       2.50884477       6.16811227
10
Lattice="5.312256644379554 0.4153008853714578 -3.508344840939535e-17 -2.016559666578363 6.214319759921827 -5.249680532608999e-16 2.0186091665860354e-23 8.312266457347404e-16 9.8396618546123" Properties=species:S:1:pos:R:3 unique_starting_index=14 config_type=initial n_minim_iter=6 stress="0.0003246606837963516 -0.00017960669402498845 4.783317182852587e-17 -0.00017960669402498845 -0.00019752633536815545 1.9708266789976253e-17 4.783317182852587e-17 1.9708266789976253e-17 -0.00016892027210249605" pbc="T T T"
Si       0.78914785       3.77083906       0.85816221
Si       2.50654913       2.85878159       0.85816221
Si       1.77491498       0.60736234       1.72632015
Si       1.52078199       6.02225830       1.72632015
Si       2.87646360       1.36942074       6.63401625
Si       0.41923338       5.26019990       6.63401625
Si       0.79523793       3.78220935       2.66082741
Si       2.50045905       2.84741129       2.66082741
Si      -1.37595521       4.12138837       6.16801400
Si       4.67165218       2.50823227       6.16801400
10
Lattice="5.311105505728549 0.41582373779044446 -3.5127617495853236e-17 -2.0155832215950573 6.215237363935184 -5.25045569849558e-16 2.0182366304412426e-23 8.312972382079004e-16 9.840497494610508" Properties=species:S:1:pos:R:3 unique_starting_index=14 config_type=initial n_minim_iter=7 stress="-9.217209866977432e-06 -5.8386849390501266e-05 -1.4832738642723972e-17 -5.8386849390501266e-05 -0.0001185886005326525 -5.970593953658273e-17 -1.4832738642723972e-17 -5.970593953658273e-17 -6.920621119049837e-05" pbc="T T T"
Si       0.78953806       3.77139600       0.85842001
Si       2.50598422       2.85966510       0.85842001
Si       1.77476928       0.60798415       1.72635236
Si       1.52075300       6.02307695       1.72635236
Si       2.87609158       1.36983276       6.63462529
Si       0.41943070       5.26122834       6.63462529
Si       0.79549672       3.78275117       2.65995700
Si       2.50002557       2.84830993       2.65995700
Si      -1.37550384       4.12200771       6.16951805
Si       4.67102612       2.50905339       6.16951805
10
Lattice="5.31142502263866 0.41656861171019205 -3.519054232886111e-17 -2.0148385370284676 6.215305008156879 -5.250512842486373e-16 2.0180000928367898e-23 8.313419337166789e-16 9.841026578707238" Properties=species:S:1:pos:R:3 unique_starting_index=14 config_type=initial n_minim_iter=8 stress="-7.0623790384184e-05 8.635074225806156e-05 -3.5492960065490507e-17 8.635074225806156e-05 0.00015604099772716708 -1.479706504138759e-16 -3.5492960065490507e-17 -1.479706504138759e-16 9.154210730236336e-05" pbc="T T T"
Si       0.79029221       3.77153989       0.85828510
Si       2.50629427       2.86033372       0.85828510
Si       1.77490011       0.60773287       1.72643147
Si       1.52168637       6.02414074       1.72643147
Si       2.87676749       1.37055072       6.63487222
Si       0.41981899       5.26132290       6.63487222
Si       0.79592652       3.78265452       2.65966451
Si       2.50065997       2.84921910       2.65966451
Si      -1.37496127       4.12222038       6.17058983
Si       4.67154775       2.50965324       6.17058983
