16
Lattice="6.929284529356666 0.7288669048185845 -0.5165459145123346 1.8485546426138382 7.7346262947380415 0.6042187104789029 1.6022221309371023 3.165476454790371 10.15826821258735" Properties=species:S:1:pos:R:3 unique_starting_index=30 config_type=initial n_minim_iter=1 energy=-2602.2029698905844 free_energy=-2602.2029698905844 pbc="T T T"
Si       5.29653341       7.88947441       5.61243913
Si       5.08352789       3.73949524       4.63350188
Si       3.65912035       4.73420997       3.31561038
Si       6.72094095       6.89475969       6.93033062
Si       5.97814971       5.00990249       7.90234382
Si       4.40191160       6.61906717       2.34359719
Si       5.10760513       4.93016242       0.21398313
Si       5.27245617       6.69880723      10.03195788
Si       2.97369886       5.31316605       5.15956690
Si       7.40636245       6.31580360       5.08637411
Si       8.71614047       7.61477829       4.30914776
Si       1.66392083       4.01419137       5.93679325
Si       3.12643851       3.37603422       4.68794131
Si       7.25362279       8.25293543       5.55799970
Si       5.97865912       7.73379274       1.79061261
Si       4.40140219       3.89517691       8.45532840
16
Lattice="7.056740238687823 0.7017168229339447 -0.47307908683148303 1.8730646617139848 7.6718732369739415 0.74403530881601 1.6683926921962107 3.3118684983313673 10.168718115994064" Properties=species:S:1:pos:R:3 unique_starting_index=30 config_type=initial n_minim_iter=2 stress="0.037297455861396996 -0.03164442003891056 0.013223111463520907 -0.03164442003891056 -0.008465729645814768 0.013603924422841316 0.013223111463520907 0.013603924422841316 -0.016387836242293452" pbc="T T T"
Si       5.41759787       7.89539676       5.73093290
Si       5.18059973       3.79006180       4.70874144
Si       3.73830845       4.75425405       3.38623036
Si       6.85988914       6.93120451       7.05344398
Si       6.10851325       5.09938301       8.01319121
Si       4.48968434       6.58607555       2.42648313
Si       5.18903212       4.87112493       0.29943543
Si       5.40916548       6.81433363      10.14023890
Si       3.03560678       5.33557062       5.26134938
Si       7.56259081       6.34988794       5.17832496
Si       8.88593795       7.61261361       4.45430575
Si       1.71225964       4.07284495       5.98536859
Si       3.20248383       3.42920759       4.74211066
Si       7.39571376       8.25625097       5.69756368
Si       6.08132815       7.68157849       1.94126302
Si       4.51686944       4.00388007       8.49841131
16
Lattice="7.189054830155807 0.8637260420159979 -0.4570470245097573 2.11663892903705 7.621213502802643 1.021866967855034 1.7693633837405836 3.671180949556273 10.311694526657648" Properties=species:S:1:pos:R:3 unique_starting_index=30 config_type=initial n_minim_iter=3 stress="0.022584738288352006 -0.003534831590081497 0.0049886096323426814 -0.003534831590081497 -0.02479165535877456 0.022649951178512137 0.0049886096323426814 0.022649951178512137 -0.01216455907713858" pbc="T T T"
Si       5.75804929       8.08357340       5.98496493
Si       5.31700785       4.07254709       4.89154954
Si       3.94212906       4.93447784       3.52854747
Si       7.13292808       7.22164265       7.34796700
Si       6.32033494       5.49736061       8.32865014
Si       4.75472221       6.65875989       2.54786433
Si       5.38438394       4.91094120       0.40763166
Si       5.69067320       7.24517929      10.46888281
Si       3.19877497       5.48639686       5.53128340
Si       7.87628217       6.66972363       5.34523107
Si       9.23871969       7.90313410       4.72728181
Si       1.83633745       4.25298639       6.14923266
Si       3.35832838       3.65090115       4.89847663
Si       7.71672876       8.50521935       5.97803784
Si       6.38035807       7.78057618       2.21604563
Si       4.69469907       4.37554432       8.66046884
16
Lattice="7.2356216247636285 0.8907237656370273 -0.4479527871376169 2.1522290814027247 7.730619842595177 1.0721306055078388 1.8007969967663038 3.7755631329891535 10.391920613972863" Properties=species:S:1:pos:R:3 unique_starting_index=30 config_type=initial n_minim_iter=4 stress="0.041188209523021345 -0.005575410992125012 -0.0058500423108142656 -0.005575410992125012 0.03559811920551826 -0.00312363966264963 -0.0058500423108142656 -0.00312363966264963 0.031534887760284756" pbc="T T T"
Si       5.85359615       8.20690793       6.04172478
Si       5.33505155       4.18999881       4.97437365
Si       4.00070248       5.05117374       3.55370127
Si       7.18794523       7.34573300       7.46239716
Si       6.37692236       5.64905163       8.49121838
Si       4.81172534       6.74785511       2.52488005
Si       5.41890649       4.97168165       0.39977988
Si       5.76974121       7.42522509      10.61631856
Si       3.22759144       5.57159573       5.64332130
Si       7.96105626       6.82531101       5.37277714
Si       9.32334586       8.07008964       4.80417236
Si       1.86530184       4.32681710       6.21192608
Si       3.40268948       3.74423666       4.96935060
Si       7.78595823       8.65267008       6.04674783
Si       6.43635517       7.90365241       2.27700612
Si       4.75229253       4.49325433       8.73909231
16
Lattice="7.164704384830483 0.879175223001025 -0.4160206325071907 2.1270115359793738 7.704634973627671 1.0865436339889865 1.819674487929135 3.780175424115418 10.31443606651076" Properties=species:S:1:pos:R:3 unique_starting_index=30 config_type=initial n_minim_iter=5 stress="0.005397308132755898 -0.018047998169085283 0.011320966390169464 -0.018047998169085283 0.01720550983332862 -0.0033374099439117504 0.011320966390169464 -0.0033374099439117504 0.006049625926709659" pbc="T T T"
Si       5.82793222       8.16946215       6.01241513
Si       5.28345819       4.19452347       4.97254394
Si       3.97990941       5.04695726       3.53509502
Si       7.13148100       7.31702836       7.44986405
Si       6.34119984       5.65185182       8.48987048
Si       4.77019057       6.71213380       2.49508859
Si       5.35807839       4.94176692       0.40484124
Si       5.75331201       7.42221870      10.58011783
Si       3.20696198       5.55180780       5.64122819
Si       7.90442843       6.81217782       5.34373088
Si       9.24499864       8.05120254       4.81114135
Si       1.86639177       4.31278308       6.17381772
Si       3.38902730       3.74552041       4.95432536
Si       7.72236311       8.61846522       6.03063371
Si       6.37081084       7.87193288       2.29654721
Si       4.74057957       4.49205274       8.68841186
16
Lattice="7.239199839601955 0.9013877313367095 -0.46830397501437093 2.179166922697617 7.600166673565668 1.1007383678124565 1.7484923577297744 3.8041902992411836 10.05443825359558" Properties=species:S:1:pos:R:3 unique_starting_index=30 config_type=initial n_minim_iter=6 stress="0.01138787898841176 -0.013772688573675024 0.012213873913679106 -0.013772688573675024 -0.023661544815297985 -0.002180159971931568 0.012213873913679106 -0.002180159971931568 -0.015577819053854554" pbc="T T T"
Si       5.90846736       8.05918390       5.82097928
Si       5.25839176       4.24656080       4.86589337
Si       4.04252744       5.03563806       3.40997016
Si       7.12433168       7.27010664       7.27690249
Si       6.34859205       5.71165212       8.35880072
Si       4.81826707       6.59409258       2.32807193
Si       5.42264754       4.87686683       0.32122710
Si       5.74421158       7.42887787      10.36564555
Si       3.19422869       5.51499677       5.58337853
Si       7.97263043       6.79074793       5.10349412
Si       9.33609102       8.03260465       4.65193993
Si       1.83076810       4.27314006       6.03493272
Si       3.39671121       3.76596650       4.83658209
Si       7.77014791       8.53977820       5.85029055
Si       6.44069015       7.79280636       2.23968444
Si       4.72616897       4.51293835       8.44718821
16
Lattice="7.212329204439406 0.9075684626176919 -0.4852405837457133 2.175851189282288 7.660218182978469 1.1644180973266063 1.7049522901238199 3.924873114642532 10.019193708744583" Properties=species:S:1:pos:R:3 unique_starting_index=30 config_type=initial n_minim_iter=7 stress="-0.0022973059046430826 -0.02130561463966349 0.006528931271478286 -0.02130561463966349 -0.02979617440357475 0.024009977539158074 0.006528931271478286 0.024009977539158074 -0.03124884319932111" pbc="T T T"
Si       5.88540138       8.14688546       5.82867395
Si       5.20773131       4.34577430       4.86969727
Si       4.03123899       5.10600107       3.41505406
Si       7.06189369       7.38665869       7.28331716
Si       6.29708889       5.85121428       8.37234987
Si       4.79604379       6.64144548       2.32602135
Si       5.40441217       4.91032720       0.32819884
Si       5.68872052       7.58233256      10.37017238
Si       3.16118725       5.60754381       5.61951502
Si       7.93194544       6.88511595       5.07885621
Si       9.29455788       8.14238370       4.66374930
Si       1.79857481       4.35027606       6.03462192
Si       3.36902445       3.84688146       4.83145945
Si       7.72410823       8.64577830       5.86691177
Si       6.40871974       7.86376941       2.28203825
Si       4.68441295       4.62889035       8.41633298
16
Lattice="7.22388934739872 1.0213128891540524 -0.42469723272026466 2.298087895771281 7.769863372016304 1.1435255789073275 1.840921627999122 3.941118399144989 9.942565594177236" Properties=species:S:1:pos:R:3 unique_starting_index=30 config_type=initial n_minim_iter=8 stress="0.013703491011445974 0.017207255636631395 0.0029602099098396013 0.017207255636631395 0.008724348739719124 0.0073161512181892365 0.0029602099098396013 0.0073161512181892365 -0.018997982133900904" pbc="T T T"
Si       6.06832518       8.23301506       5.77098084
Si       5.29457369       4.49927960       4.89041310
Si       4.15138777       5.19255240       3.39270974
Si       7.21151110       7.53974226       7.26868420
Si       6.45122638       6.00259215       8.40979693
Si       4.91167249       6.72970251       2.25159701
Si       5.48416074       5.03780926       0.31365374
Si       5.87873814       7.69448540      10.34774020
Si       3.28282958       5.70380737       5.64608672
Si       8.08006929       7.02848729       5.01530722
Si       9.46994766       8.35254709       4.66659272
Si       1.89295121       4.37974757       5.99480122
Si       3.45695711       3.93148418       4.80139929
Si       7.90594176       8.80081048       5.85999465
Si       6.52040858       8.01427654       2.29520647
Si       4.84249030       4.71801812       8.36618747
16
Lattice="7.170099502367122 0.9883155363220528 -0.4445360700147622 2.249497847995082 7.703157565579594 1.107379201275919 1.8014224433210557 3.8570694682795685 10.05330556683144" Properties=species:S:1:pos:R:3 unique_starting_index=30 config_type=initial n_minim_iter=9 stress="0.012677430882763447 0.012392644378341831 -0.00990103061599088 0.012392644378341831 -0.0026268041376496716 -0.0025631643220002135 -0.00990103061599088 -0.0025631643220002135 0.014134634707238792" pbc="T T T"
Si       5.99278334       8.09177133       5.77347653
Si       5.22823645       4.45677124       4.94267217
Si       4.10525820       5.11857848       3.39492470
Si       7.11576159       7.42996409       7.32122400
Si       6.37407302       5.91899655       8.51464421
Si       4.84694678       6.62954602       2.20150448
Si       5.42982106       4.98375458       0.26024391
Si       5.79119874       7.56478799      10.45590479
Si       3.22838050       5.64085727       5.72144798
Si       7.99263929       6.90768530       4.99470072
Si       9.37952159       8.23905495       4.66154605
Si       1.84149820       4.30948762       6.05460265
Si       3.41019587       3.87529362       4.83023848
Si       7.81082392       8.67324895       5.88591022
Si       6.42347022       7.91170944       2.27365569
Si       4.79754957       4.63683313       8.44249301
16
Lattice="7.093249985264041 0.9528172488110155 -0.3847178252037701 2.1834432798312213 7.764315820371908 1.0441680682528793 1.8587289222028762 3.776779717717817 9.988299866602707" Properties=species:S:1:pos:R:3 unique_starting_index=30 config_type=initial n_minim_iter=10 stress="0.010774460267231037 -0.005506796064047124 0.007878146333108129 -0.005506796064047124 0.04415658178480082 0.009841088924527208 0.007878146333108129 0.009841088924527208 0.01008009988462227" pbc="T T T"
Si       5.93635946       8.04425285       5.70566156
Si       5.19906272       4.44965994       4.94208855
Si       4.06170217       5.10257830       3.36669096
Si       7.07372001       7.39133449       7.28105915
Si       6.37512130       5.88200829       8.47499494
Si       4.76030088       6.61190450       2.17275517
Si       5.36018937       5.01784985       0.25150866
Si       5.77523282       7.47606294      10.39624145
Si       3.22306820       5.65373887       5.69228105
Si       7.91235398       6.84017392       4.95546906
Si       9.30066498       8.20790564       4.63684710
Si       1.83475721       4.28600714       6.01090301
Si       3.40360665       3.83832560       4.77784886
Si       7.73181554       8.65558719       5.86990125
Si       6.31730914       7.92038558       2.24632985
Si       4.81811305       4.57352721       8.40142026
16
Lattice="7.050078559518465 0.9236353207925978 -0.4546030933968594 2.1280511120769514 7.714264187538669 0.9036829074357196 1.740025577898159 3.6006947015755078 9.834560252121827" Properties=species:S:1:pos:R:3 unique_starting_index=30 config_type=initial n_minim_iter=11 stress="-0.014942104044273357 -0.0046124943790957895 -0.004952132872560723 -0.0046124943790957895 0.010466929661729713 0.001118844493869458 -0.004952132872560723 0.001118844493869458 -0.01926439495708411" pbc="T T T"
Si       5.80979843       7.88101863       5.49320244
Si       5.10835682       4.35757558       4.79043762
Si       3.98473347       5.00722836       3.24046257
Si       6.93342178       7.23136585       7.04317749
Si       6.24536217       5.72061419       8.23428063
Si       4.67279308       6.51798002       2.04935944
Si       5.31823916       4.99406555       0.13488452
Si       5.59991609       7.24452866      10.14875555
Si       3.13919119       5.54330715       5.52741655
Si       7.77896406       6.69528706       4.75622352
Si       9.17249063       8.05843530       4.39956859
Si       1.74566462       4.18015891       5.88407148
Si       3.31543807       3.73855283       4.64583437
Si       7.60271718       8.50004138       5.63780570
Si       6.21543198       7.82284551       2.06032031
Si       4.70272327       4.41574870       8.22331976
16
Lattice="7.019622848691845 0.922957160173401 -0.4038153831204134 2.1309816632121525 7.654703450018155 0.9186907737435739 1.8232210057831428 3.5639399852422318 9.998580187477332" Properties=species:S:1:pos:R:3 unique_starting_index=30 config_type=initial n_minim_iter=12 stress="-0.021846434181963113 0.002161664127229766 0.014655302012926584 0.002161664127229766 -0.04790539741989161 -0.008345493603451078 0.014655302012926584 -0.008345493603451078 -0.03248468353820836" pbc="T T T"
Si       5.83853628       7.79714325       5.60970476
Si       5.13528924       4.34445735       4.90375082
Si       3.99929722       4.96289695       3.31796640
Si       6.97452830       7.17870364       7.19548918
Si       6.31167430       5.69003642       8.37534643
Si       4.66215122       6.45156418       2.13810915
Si       5.31307764       4.97561097       0.16852475
Si       5.66074788       7.16598963      10.34493083
Si       3.19002776       5.49648258       5.61822818
Si       7.78379776       6.64511801       4.89522740
Si       9.17854365       7.99110489       4.53254833
Si       1.79528187       4.15049571       5.98090725
Si       3.33726025       3.71971590       4.74127774
Si       7.63656527       8.42188470       5.77217784
Si       6.20876523       7.76264102       2.12621743
Si       4.76506029       4.37895958       8.38723815
16
Lattice="6.981656341587113 0.8924582458006357 -0.468797137353621 2.0804779695201296 7.69086163744888 0.9607859717856848 1.7099830836126977 3.6375485389959916 10.165979668854945" Properties=species:S:1:pos:R:3 unique_starting_index=30 config_type=initial n_minim_iter=13 stress="-0.02013018760871121 -0.0017993300919056504 0.0016263416949154849 -0.0017993300919056504 -0.027694217290273854 0.0015379231386361953 0.0016263416949154849 0.0015379231386361953 -0.0002525729578747946" pbc="T T T"
Si       5.71759846       7.82548856       5.68688640
Si       5.05451894       4.39537986       4.97108210
Si       3.91245807       4.97410162       3.37250575
Si       6.85965932       7.24676680       7.28546275
Si       6.18538315       5.73361740       8.44983022
Si       4.58673424       6.48725103       2.20813829
Si       5.25466875       4.97635399       0.14696816
Si       5.51744865       7.24451443      10.51100034
Si       3.11027669       5.54620302       5.68943432
Si       7.66184070       6.67466541       4.96853418
Si       9.04228506       8.00418858       4.58066404
Si       1.72983233       4.21667984       6.07730447
Si       3.24687826       3.75443074       4.81308903
Si       7.52523913       8.46643768       5.84487947
Si       6.13043183       7.79807950       2.14043805
Si       4.64168556       4.42278892       8.51753046
16
Lattice="7.021064180601636 0.902642032053333 -0.4767080658644345 2.09992591807793 7.714670754136284 0.9710051070748101 1.7062532101725132 3.6684115138056566 10.13042490660041" Properties=species:S:1:pos:R:3 unique_starting_index=30 config_type=initial n_minim_iter=14 stress="-1.8168371565221445e-05 0.0037473004222679175 -0.004987849600723992 0.0037473004222679175 0.01196026525456618 0.007337566842345104 -0.004987849600723992 0.007337566842345104 0.017078854237310932" pbc="T T T"
Si       5.76089249       7.82955531       5.65404470
Si       5.06635082       4.45616899       4.97067724
Si       3.93498795       4.99414331       3.35477384
Si       6.89225536       7.29158099       7.26994811
Si       6.20910736       5.77659360       8.42028750
Si       4.61813595       6.50913070       2.20443445
Si       5.27862570       4.99609358       0.13649091
Si       5.54861761       7.28963072      10.48823104
Si       3.13070360       5.57281673       5.67687792
Si       7.69653971       6.71290757       4.94784403
Si       9.09123942       8.03924859       4.56529621
Si       1.73600388       4.24647571       6.05942574
Si       3.25852568       3.76928992       4.80002264
Si       7.56871763       8.51643438       5.82469931
Si       6.16264322       7.83321407       2.12928142
Si       4.66460008       4.45251023       8.49544053
16
Lattice="7.045208730368623 0.899475840237618 -0.49397149561438364 2.0985553407210147 7.72943260338472 0.9546464084603584 1.6826761815046714 3.661591658994836 10.088533987476625" Properties=species:S:1:pos:R:3 unique_starting_index=30 config_type=initial n_minim_iter=15 stress="0.01961039267640376 0.0005485367147835808 -0.007825719889596534 0.0005485367147835808 0.020854363756688265 -0.007538376933940347 -0.007825719889596534 -0.007538376933940347 0.021459612603703923" pbc="T T T"
Si       5.77304800       7.80125567       5.59553731
Si       5.05339225       4.48924444       4.95367159
Si       3.93418768       4.98990536       3.32540439
Si       6.89225258       7.30059475       7.22380451
Si       6.20355747       5.77736935       8.36964467
Si       4.62288278       6.51313075       2.17956423
Si       5.28091639       5.00431004       0.10853642
Si       5.54552387       7.28619006      10.44067248
Si       3.13026479       5.56631586       5.64205632
Si       7.69617546       6.72418424       4.90715258
Si       9.10485903       8.03966634       4.51551994
Si       1.72158122       4.25083376       6.03368896
Si       3.25766694       3.76650750       4.77278214
Si       7.56877331       8.52399260       5.77642676
Si       6.16756923       7.84804210       2.08838374
Si       4.65887102       4.44245800       8.46082516
16
Lattice="7.041733371949669 0.8978406778287891 -0.49010235386864337 2.096031751959678 7.7429576571126955 0.9722735960877276 1.6825113757223178 3.69103999396215 10.07258674155734" Properties=species:S:1:pos:R:3 unique_starting_index=30 config_type=initial n_minim_iter=16 stress="0.025924073308510504 0.00559926022978435 -0.005294168162086859 0.00559926022978435 0.027683243320902138 -0.005266638010633187 -0.005294168162086859 -0.005266638010633187 0.02384249684185094" pbc="T T T"
Si       5.79747028       7.71825938       5.55131288
Si       5.02280622       4.61357895       5.00344510
Si       3.92982389       4.98397186       3.32130652
Si       6.89045261       7.34786647       7.23345146
Si       6.20283293       5.81823087       8.34481830
Si       4.61744357       6.51360746       2.20993969
Si       5.25074475       5.02814996       0.10577105
Si       5.56953175       7.30368837      10.44898693
Si       3.15226993       5.57544553       5.62259567
Si       7.66800657       6.75639280       4.93216232
Si       9.10660101       8.03928562       4.52295832
Si       1.71367549       4.29255271       6.03179967
Si       3.24809793       3.76061655       4.77603309
Si       7.57217857       8.57122178       5.77872490
Si       6.14521830       7.87234991       2.07475123
Si       4.67505820       4.45948842       8.48000675
16
Lattice="6.982461915646645 0.8884452031823238 -0.5269500690147351 2.066064872302142 7.7657616894969905 0.9983567736410388 1.5932978805698157 3.760147945279588 9.939396206136564" Properties=species:S:1:pos:R:3 unique_starting_index=30 config_type=initial n_minim_iter=17 stress="0.06118245173646363 0.007857267570463216 -0.007207779012011782 0.007857267570463216 0.029453792722108837 -0.00031380811592482714 -0.007207779012011782 -0.00031380811592482714 0.0213227408796552" pbc="T T T"
Si       5.74556732       7.58715166       5.39268048
Si       4.89625735       4.82720318       5.01812243
Si       3.86183028       4.97367201       3.26322932
Si       6.77999439       7.44068283       7.14757360
Si       6.08450169       5.89899939       8.22001991
Si       4.55732298       6.51535544       2.19078300
Si       5.15576079       5.07419569       0.07401938
Si       5.48606388       7.34015914      10.33678353
Si       3.08258367       5.58503209       5.54371194
Si       7.55924099       6.82932274       4.86709097
Si       8.99744531       8.06462106       4.44493852
Si       1.64437936       4.34973378       5.96586439
Si       3.16792350       3.75828402       4.72970766
Si       7.47390117       8.65607081       5.68109525
Si       6.03775184       7.90484198       2.00647299
Si       4.60407283       4.50951286       8.40432992
16
Lattice="6.974681091731662 0.8873669963205822 -0.5288632018620736 2.062748865176925 7.766300935164385 1.000862334888516 1.5870333440675835 3.7651432199649575 9.930773347940622" Properties=species:S:1:pos:R:3 unique_starting_index=30 config_type=initial n_minim_iter=18 stress="0.052805135696533466 0.009180410621021241 -0.005493899415909287 0.009180410621021241 0.026873974989966493 -0.0009870684728598088 -0.005493899415909287 -0.0009870684728598088 0.0204186000996047" pbc="T T T"
Si       5.74191793       7.57318738       5.38067647
Si       4.88254537       4.84562377       5.02209601
Si       3.85508957       4.97125006       3.25974042
Si       6.76937373       7.44756109       7.14303206
Si       6.07379515       5.90542263       8.21360719
Si       4.55066815       6.51338852       2.18916529
Si       5.14554029       5.07728008       0.07130634
Si       5.47892301       7.34153107      10.33146614
Si       3.07699356       5.58477075       5.53969592
Si       7.54746974       6.83404040       4.86307656
Si       8.98574198       8.06535606       4.44073078
Si       1.63872132       4.35345509       5.96204170
Si       3.16115206       3.75747958       4.72721569
Si       7.46331124       8.66133157       5.67555679
Si       6.02596845       7.90594254       2.00180450
Si       4.59849485       4.51286861       8.40096798
16
Lattice="6.938536267060718 0.8562644271325228 -0.520338064968011 2.0200510861913266 7.7488750328347455 0.988598493528895 1.575024445645237 3.7406622218441385 9.870196734778599" Properties=species:S:1:pos:R:3 unique_starting_index=30 config_type=initial n_minim_iter=19 stress="0.007965839166797606 -0.0085147738759111 -0.002986162897313498 -0.0085147738759111 -0.007981502160933103 0.005564659214775573 -0.002986162897313498 0.005564659214775573 -0.019485480802132315" pbc="T T T"
Si       5.71041262       7.52521782       5.34340011
Si       4.82319918       4.82058386       4.99505705
Si       3.81485003       4.93174774       3.24373893
Si       6.71876177       7.41405394       7.09471823
Si       6.03042144       5.86772847       8.17961553
Si       4.50319036       6.47807321       2.15884164
Si       5.09460250       5.06207005       0.06621214
Si       5.43900929       7.28373163      10.27224502
Si       3.01926668       5.55949378       5.51172744
Si       7.51434512       6.78630791       4.82672972
Si       8.91836526       8.02282044       4.41568752
Si       1.61524653       4.32298124       5.92276965
Si       3.14313376       3.73250245       4.70507400
Si       7.39047804       8.61329924       5.63338317
Si       5.95397180       7.86867371       1.97564208
Si       4.57964000       4.47712798       8.36281508
16
Lattice="6.9024130858345565 0.8709087880784123 -0.4855310671838864 2.031420163476867 7.7392807189223864 0.9968505562127362 1.6301449937229704 3.731709393069817 9.93478480134518" Properties=species:S:1:pos:R:3 unique_starting_index=30 config_type=initial n_minim_iter=20 stress="-0.011360098981285581 -0.013682256391340146 0.011761566588217838 -0.013682256391340146 -0.010076434450566949 0.0022449093452216215 0.011761566588217838 0.0022449093452216215 -0.0024585710059665563" pbc="T T T"
Si       5.75026758       7.49576215       5.38161355
Si       4.81371066       4.84613675       5.06449074
Si       3.81263182       4.90489654       3.27247547
Si       6.75134643       7.43700236       7.17362882
Si       6.06555783       5.89470215       8.27073214
Si       4.49842041       6.44719675       2.17537215
Si       5.07350264       5.07059347       0.06310724
Si       5.49047560       7.27130543      10.38299705
Si       3.01494358       5.55666448       5.57876827
Si       7.54903466       6.78523442       4.86733602
Si       8.92221043       8.05442536       4.47897212
Si       1.64176781       4.28747354       5.96713218
Si       3.17056418       3.74198904       4.74781772
Si       7.39341407       8.59990986       5.69828657
Si       5.92626810       7.85938786       2.00021908
Si       4.63771015       4.48251104       8.44588521
16
Lattice="6.949896121250302 0.9619621112028217 -0.5082782966977799 2.13334988388767 7.8316663705565395 0.9878344507137925 1.6290516485149122 3.7935339827487 9.749424193126266" Properties=species:S:1:pos:R:3 unique_starting_index=30 config_type=initial n_minim_iter=21 stress="-0.011671653578675565 0.011842611550909153 -0.008520300357407211 0.011842611550909153 -0.0037262447724992994 0.0011937849195170216 -0.008520300357407211 0.0011937849195170216 0.002087967306530331" pbc="T T T"
Si       5.88293478       7.61595237       5.26327755
Si       4.82936288       4.97121009       4.96570280
Si       3.83408979       4.97211230       3.18073537
Si       6.87820786       7.61505016       7.04824497
Si       6.12866958       6.05171895       8.08182977
Si       4.58362808       6.53544352       2.14715057
Si       5.14057728       5.16200635      -0.00339064
Si       5.57172037       7.42515611      10.23237098
Si       3.01936550       5.64307361       5.47399718
Si       7.69293215       6.94408886       4.75498317
Si       9.06986162       8.28340711       4.36020823
Si       1.64243603       4.30375536       5.86877212
Si       3.22245952       3.82950397       4.66483101
Si       7.48983814       8.75765849       5.56414934
Si       5.98070941       7.98825730       1.91723348
Si       4.73158824       4.59890517       8.31174687
