22
Lattice="8.943415829105046 -2.608169711397765 -1.4597990020327611 -8.016404151095394 8.803449209664281 -2.3263183610445206 -5.143084035763441 -1.7785544850828257 14.463952910877849" Properties=species:S:1:pos:R:3 unique_starting_index=18 config_type=initial n_minim_iter=1 energy=-4165.9828292588045 free_energy=-4165.9828292588045 pbc="T T T"
Si      -0.83025366       5.91850827      -0.08885721
Si       0.97671552      -0.27957994      11.82683731
Si      -4.34030448      -1.48781805      11.44412115
Si       0.61325356       0.05368394      13.17059959
Si      -8.31584257       3.22151894      13.22553776
Si       6.02172098       1.02850911      -1.75645510
Si       3.67010397       0.33594262      -2.64052785
Si      -1.86236906      -0.42791708      11.60266956
Si      -1.87145167      -0.85576395      12.45005806
Si      -8.08841355       2.43757589       6.27855394
Si       0.97420683      -0.00349982       3.81695465
Si      -5.87672611       4.34335273       6.15933658
Si      -4.14285079      -1.41072196      10.40236998
Si      -3.48931993       5.20311400      -0.33129022
Si       0.49520144       0.77741532       4.71319226
Si      -0.42140409       5.23679125      -0.57510301
Si      -1.58295178      -1.28495295       4.12492867
Si       5.08729589      -4.89963097       9.42684233
Si       0.44479821       1.33787315       3.80527495
Si      -5.91006259       3.67825933       7.17225534
Si      -5.56403409       3.49254376       6.20295689
Si      -1.38188883      -1.10183891      10.86048504
22
Lattice="8.862174597770453 -2.54999603770357 -1.4867173494200423 -7.902893380998448 8.668089817628564 -2.228906242849816 -5.1725297137615405 -1.7376827998043627 14.261894301093122" Properties=species:S:1:pos:R:3 unique_starting_index=18 config_type=initial n_minim_iter=2 stress="-0.9747149828422232 -0.40269465803807897 -0.22863411773077313 -0.40269465803807897 -0.09468004504987008 -0.15829224713922282 -0.22863411773077313 -0.15829224713922282 0.01588390279044824" pbc="T T T"
Si      -0.80864001       5.84505521      -0.06488764
Si       0.91188672      -0.23974949      11.64354251
Si      -4.36276341      -1.45742473      11.28341138
Si       0.54275474       0.08929787      12.96220998
Si      -8.29140981       3.18809241      13.07248859
Si       5.98373370       1.03643009      -1.75764957
Si       3.64916759       0.33845872      -2.61886268
Si      -1.89787787      -0.39736074      11.43002488
Si      -1.91804859      -0.81806884      12.26584220
Si      -8.03998054       2.39597849       6.22628568
Si       0.95111994       0.01509323       3.75480459
Si      -5.83805429       4.29308265       6.10686641
Si      -4.15714489      -1.38053504      10.26197029
Si      -3.43602944       5.12819357      -0.29713262
Si       0.47200305       0.78013967       4.63946134
Si      -0.40180392       5.17337027      -0.55073327
Si      -1.58885665      -1.25677544       4.06646574
Si       4.97401734      -4.79954692       9.24578809
Si       0.43095057       1.32901268       3.74889442
Si      -5.87586173       3.63654825       7.09858299
Si      -5.52932728       3.44436463       6.14371024
Si      -1.42702391      -1.06090466      10.70229501
22
Lattice="8.853386570615678 -2.3329673061898912 -1.5080298402353054 -7.753900051164964 8.278460265415127 -2.0109996202364933 -5.302762717448426 -1.644106878068512 13.741461648961272" Properties=species:S:1:pos:R:3 unique_starting_index=18 config_type=initial n_minim_iter=3 stress="-0.10914659320299436 0.1385810647557147 -0.03888021533610737 0.1385810647557147 -0.22229657444730047 -0.09448930204385528 -0.03888021533610737 -0.09448930204385528 -0.24816084863570434" pbc="T T T"
Si      -0.72166976       5.67527875       0.00976534
Si       0.84771876      -0.09238579      11.20996471
Si      -4.47204069      -1.39166894      10.86742319
Si       0.46566991       0.22729960      12.46631729
Si      -8.32747578       3.08023491      12.66878901
Si       6.04304764       1.11310996      -1.72184964
Si       3.67645239       0.37225659      -2.54460972
Si      -1.96332566      -0.30149852      11.00324806
Si      -2.01180276      -0.70388588      11.81096317
Si      -8.06268763       2.24335718       6.06245131
Si       0.94411703       0.08491146       3.61181085
Si      -5.81025365       4.14874946       5.96300651
Si      -4.24538533      -1.31539927       9.89685265
Si      -3.34343818       4.92599890      -0.21761081
Si       0.46420448       0.80988444       4.46830453
Si      -0.31823260       5.02848556      -0.47626435
Si      -1.62805362      -1.19089784       3.91326367
Si       4.83159547      -4.48843725       8.82483624
Si       0.44548807       1.32802138       3.62100275
Si      -5.85918278       3.51368503       6.90046126
Si      -5.51130217       3.30319125       5.98131995
Si      -1.51732502      -0.93931638      10.31261759
22
Lattice="8.901891910151145 -2.455429677428711 -1.593551342875054 -7.839215709243576 8.35686464112621 -1.8051671026614362 -5.351027615994295 -1.3182227314478268 13.732573991533284" Properties=species:S:1:pos:R:3 unique_starting_index=18 config_type=initial n_minim_iter=4 stress="-0.11286812318915847 0.014708808655155416 -0.08558027838879152 0.014708808655155416 -0.07574605190453469 0.10533399372134322 -0.08558027838879152 0.10533399372134322 -0.19243150250071916" pbc="T T T"
Si      -0.80381502       5.71269099       0.14511241
Si       0.81273251       0.13930532      11.21664946
Si      -4.51360692      -1.13794582      10.85631122
Si       0.40978279       0.47839531      12.46164364
Si      -8.41771237       3.43101982      12.77323716
Si       6.07168656       1.04113478      -1.73031654
Si       3.68441430       0.28713097      -2.55783294
Si      -1.99056696      -0.04540926      10.99415573
Si      -2.05743861      -0.43656005      11.81250619
Si      -8.12892843       2.44560671       6.14473216
Si       0.94450782       0.17298832       3.61091172
Si      -5.88397591       4.36830380       6.08403238
Si      -4.26933949      -1.07100708       9.89723802
Si      -3.38807119       4.97701812      -0.10778616
Si       0.44283765       0.89315334       4.48099333
Si      -0.38378523       5.05131416      -0.37538037
Si      -1.61653442      -1.06817346       3.90466901
Si       4.82744404      -4.37363447       8.71874552
Si       0.43336666       1.38325233       3.64547475
Si      -5.91642235       3.74102186       6.99540373
Si      -5.56639728       3.47515662       6.07187831
Si      -1.56110420      -0.69503870      10.31843985
22
Lattice="8.887762420787917 -2.422853462764213 -1.5037317217725255 -7.857354236518933 8.353117003732521 -2.0405060991990163 -5.242601316813167 -1.5484164794205544 13.908083423083617" Properties=species:S:1:pos:R:3 unique_starting_index=18 config_type=initial n_minim_iter=5 stress="-0.17150258945077088 -0.026542829232333157 -0.02648990828491705 -0.026542829232333157 -0.17611497082692865 -0.07965092417413334 -0.02648990828491705 -0.07965092417413334 -0.11671751724564247" pbc="T T T"
Si      -0.82682187       5.67931302       0.05241681
Si       0.89959015      -0.05911066      11.38027077
Si      -4.42763496      -1.32417565      10.99333298
Si       0.49498464       0.23590202      12.61806212
Si      -8.31831441       3.18467690      12.82723608
Si       6.07102414       1.06951641      -1.72914711
Si       3.65381366       0.32561366      -2.56940383
Si      -1.89518661      -0.22962096      11.11562597
Si      -1.97018847      -0.63973033      11.97273462
Si      -8.08218370       2.32174921       6.12681188
Si       0.97800490       0.12797833       3.66368246
Si      -5.83989837       4.25663842       6.05417923
Si      -4.18222826      -1.22618771      10.02856555
Si      -3.38857454       4.95323762      -0.23590045
Si       0.47479200       0.79278862       4.53032482
Si      -0.40893321       5.03789712      -0.48021157
Si      -1.57149556      -1.09519054       3.97873489
Si       4.87435520      -4.51148319       8.96531942
Si       0.47145258       1.27838545       3.66957924
Si      -5.85254411       3.61150565       6.97378199
Si      -5.51302140       3.33358384       6.04808946
Si      -1.49280839      -0.84934289      10.47848341
22
Lattice="8.802757437533591 -2.366253244440882 -1.5593181091001862 -7.692625741331174 8.397394158338196 -2.0071247799927505 -5.304742413112751 -1.6319023275446285 13.99677322528017" Properties=species:S:1:pos:R:3 unique_starting_index=18 config_type=initial n_minim_iter=6 stress="-0.19646673760312092 0.10047242140201654 -0.0792470210140624 0.10047242140201654 -0.015791271195294422 -0.063478641655675 -0.0792470210140624 -0.063478641655675 -0.08164996090335283" pbc="T T T"
Si      -0.75023349       5.76573568       0.07060014
Si       0.82157561      -0.06151188      11.42225202
Si      -4.47042644      -1.39366691      11.06726283
Si       0.40894609       0.22546828      12.65731561
Si      -8.29671869       3.13349308      12.92513329
Si       6.05852876       1.14917065      -1.77536726
Si       3.63820352       0.36766751      -2.59650425
Si      -1.95319104      -0.25270656      11.16722062
Si      -2.04020646      -0.67287523      12.02751333
Si      -8.02745369       2.25958448       6.19771013
Si       0.94446507       0.15407721       3.67203633
Si      -5.78182711       4.25837188       6.11992680
Si      -4.22237952      -1.28392769      10.09868572
Si      -3.30405225       4.98620695      -0.22776854
Si       0.45362110       0.79437944       4.54785743
Si      -0.34777499       5.12544708      -0.47931639
Si      -1.60442075      -1.10483493       4.01068638
Si       4.72337208      -4.53230616       8.98685560
Si       0.47161272       1.26412741       3.67765170
Si      -5.80853770       3.60627077       7.02275509
Si      -5.46816497       3.31244500       6.10021774
Si      -1.56304870      -0.86411564      10.54287156
22
Lattice="8.877305500124542 -2.4291545431928308 -1.5386660988258418 -7.827499479482743 8.373582590624212 -1.9692622915345042 -5.277200503491303 -1.4888701134591933 13.891341122386164" Properties=species:S:1:pos:R:3 unique_starting_index=18 config_type=initial n_minim_iter=7 stress="-0.1427906197705011 0.019403315253714838 -0.05508857298009104 0.019403315253714838 -0.16517321073460836 -0.04258988927135056 -0.05508857298009104 -0.04258988927135056 -0.14828050083935873" pbc="T T T"
Si      -0.79844876       5.73820032       0.12475801
Si       0.86747214      -0.01213978      11.35658878
Si      -4.44109232      -1.27337617      10.98664566
Si       0.44210074       0.27638329      12.56470801
Si      -8.33634561       3.23861966      12.83884572
Si       6.10707990       1.07390698      -1.75057123
Si       3.64648801       0.31788082      -2.56006455
Si      -1.94014089      -0.16035359      11.09256056
Si      -2.01307295      -0.57074024      11.92961968
Si      -8.06193001       2.32583951       6.15105588
Si       0.94698609       0.19326641       3.65354458
Si      -5.83559393       4.29714504       6.10728346
Si      -4.20802712      -1.16562595      10.02762103
Si      -3.37021106       4.95067488      -0.22264959
Si       0.46689602       0.78636453       4.53183729
Si      -0.39705935       5.11234527      -0.43901209
Si      -1.61504213      -1.01471225       3.98402223
Si       4.82018085      -4.47243346       8.94169238
Si       0.49557834       1.19544065       3.65691923
Si      -5.85607699       3.67156415       6.95942724
Si      -5.50909652       3.35071217       6.06211577
Si      -1.54289324      -0.75068418      10.49383091
22
Lattice="8.8083426132452 -2.438200392914693 -1.466535914279915 -7.779929284119533 8.460765721601316 -2.0428000077382293 -5.142942018941886 -1.544970617391032 13.84543825443283" Properties=species:S:1:pos:R:3 unique_starting_index=18 config_type=initial n_minim_iter=8 stress="-0.14966711554645432 0.05885825416389737 -0.0017273602909280564 0.05885825416389737 -0.13264965213480653 -0.03759582607480545 -0.0017273602909280564 -0.03759582607480545 -0.12127998145924043" pbc="T T T"
Si      -0.82098168       5.81524826       0.10976487
Si       0.95971108      -0.03422726      11.34733697
Si      -4.34435836      -1.31608831      10.95225541
Si       0.53854565       0.24687733      12.53589441
Si      -8.16528576       3.22699219      12.75821884
Si       6.07570868       1.08900273      -1.70942459
Si       3.61431263       0.33237728      -2.52408990
Si      -1.85661055      -0.16673252      11.08068735
Si      -1.91136406      -0.59372262      11.88994360
Si      -7.94114980       2.30434353       6.07522677
Si       0.96429472       0.20967786       3.66118934
Si      -5.74170630       4.30778808       6.06103221
Si      -4.12565662      -1.20447959       9.99658143
Si      -3.32898238       4.98835784      -0.26824471
Si       0.51509563       0.77397073       4.55549161
Si      -0.40954844       5.20096249      -0.44002845
Si      -1.61307338      -1.01239198       3.97302480
Si       4.85014198      -4.52446816       8.99758861
Si       0.55744867       1.13298998       3.65059501
Si      -5.76274165       3.69510927       6.87854074
Si      -5.41575295       3.36236442       6.00264330
Si      -1.46285065      -0.76563049      10.49141379
22
Lattice="8.897223770984489 -2.472359808849911 -1.5248267679334975 -7.848116180073875 8.54823494646742 -2.0156274077490575 -5.302080896028229 -1.6206210372772225 13.854719686214068" Properties=species:S:1:pos:R:3 unique_starting_index=18 config_type=initial n_minim_iter=9 stress="-0.04065862432048125 0.02922117443581901 -0.10148247073453254 0.02922117443581901 -0.10640486986775344 -0.08286805391487158 -0.10148247073453254 -0.08286805391487158 -0.12857769743072306" pbc="T T T"
Si      -0.85646893       5.86496548       0.08469441
Si       0.86970137      -0.10300959      11.29933074
Si      -4.48126211      -1.37280504      10.96570327
Si       0.42843272       0.16938674      12.47884841
Si      -8.34794566       3.19170158      12.76512771
Si       6.13640425       1.07847297      -1.76431256
Si       3.66937654       0.33661482      -2.54901318
Si      -1.97448870      -0.21457144      11.06592403
Si      -2.03283368      -0.65814677      11.86801974
Si      -8.06469925       2.29635788       6.10380206
Si       0.93986763       0.18346000       3.64238286
Si      -5.85375337       4.30813652       6.06709889
Si      -4.24524626      -1.25731418      10.01144817
Si      -3.36933729       5.02363514      -0.26862760
Si       0.47249861       0.74084217       4.54647052
Si      -0.42992989       5.24708432      -0.45786933
Si      -1.65735921      -1.02542711       3.98359377
Si       4.82342221      -4.61303232       8.95791892
Si       0.53870018       1.09316340       3.62826827
Si      -5.88243360       3.69473475       6.88068745
Si      -5.51491784       3.36279241       6.00641439
Si      -1.56636276      -0.82379956      10.48077957
22
Lattice="8.824303800423197 -2.477500161358651 -1.4502853281321764 -7.803972291962922 8.587666972026529 -2.066281141130078 -5.150186024952398 -1.6189013733797162 13.780486185925549" Properties=species:S:1:pos:R:3 unique_starting_index=18 config_type=initial n_minim_iter=10 stress="-0.06931566238345456 0.041482230455690626 -0.04552869693382237 0.041482230455690626 -0.09470437552404942 -0.04449148488271266 -0.04552869693382237 -0.04449148488271266 -0.09404627734525028" pbc="T T T"
Si      -0.84807939       5.92875760       0.08653134
Si       0.96466224      -0.08297946      11.27798351
Si      -4.37156065      -1.36403592      10.91210687
Si       0.53816294       0.18759320      12.43743319
Si      -8.17727243       3.20894727      12.66104084
Si       6.08431816       1.07942206      -1.71074499
Si       3.63240536       0.33925083      -2.51441603
Si      -1.87325629      -0.17937261      11.03003924
Si      -1.91787257      -0.64187507      11.82144592
Si      -7.96255846       2.29023378       6.00950583
Si       0.96812133       0.17538885       3.64724859
Si      -5.75892114       4.32218138       6.00657611
Si      -4.13369497      -1.25691909       9.96247218
Si      -3.34705521       5.04016342      -0.29241537
Si       0.50063722       0.73587205       4.56937947
Si      -0.43389479       5.29514214      -0.44327812
Si      -1.60147812      -1.00652852       3.96787340
Si       4.86789136      -4.60611986       8.98286337
Si       0.58693186       1.07147609       3.63085124
Si      -5.78012753       3.71872463       6.81709165
Si      -5.41301453       3.38175740       5.94092986
Si      -1.47156849      -0.81211741      10.45552658
22
Lattice="8.80764858000662 -2.5222057694406192 -1.3810132607166987 -7.82293763688512 8.704008133646221 -2.101803158508191 -5.0569836266321975 -1.650351995462691 13.608173343940663" Properties=species:S:1:pos:R:3 unique_starting_index=18 config_type=initial n_minim_iter=11 stress="-0.029423999976544178 0.027357135406883004 -0.027372098102887366 0.027357135406883004 -0.040471621877258855 -0.04208220727261727 -0.027372098102887366 -0.04208220727261727 -0.09884447295709083" pbc="T T T"
Si      -0.86616014       6.01607803       0.07634802
Si       1.03888038      -0.10561609      11.16978327
Si      -4.30119618      -1.37083895      10.79052324
Si       0.62744672       0.16513743      12.28600964
Si      -8.09894684       3.24365347      12.46040770
Si       6.07634237       1.07998865      -1.66426010
Si       3.60866504       0.34072922      -2.46803317
Si      -1.81918723      -0.17808056      10.89235755
Si      -1.84971338      -0.66872736      11.68057750
Si      -7.91140623       2.31250611       5.88625512
Si       1.00906975       0.13505645       3.61264206
Si      -5.72600114       4.36172661       5.89149776
Si      -4.05554602      -1.27410852       9.84487933
Si      -3.35799896       5.10795444      -0.32065387
Si       0.51234962       0.71429308       4.55188664
Si      -0.45801755       5.36335697      -0.44696462
Si      -1.59180804      -1.00889111       3.91907172
Si       4.91792813      -4.66595640       8.93011242
Si       0.61721872       1.04933445       3.60991238
Si      -5.74045990       3.74990565       6.70692955
Si      -5.36676524       3.40925947       5.82711739
Si      -1.41287204      -0.82389441      10.35314739
22
Lattice="8.776270821281539 -2.477553984190612 -1.4151529632049096 -7.768834007509224 8.596091494101394 -2.0735185588286105 -5.062674414477173 -1.5845833188294691 13.737918109772881" Properties=species:S:1:pos:R:3 unique_starting_index=18 config_type=initial n_minim_iter=12 stress="-0.02888630433957136 0.043722624869184754 -0.03641310441487589 0.043722624869184754 -0.09540235632548139 -0.030625143123851718 -0.03641310441487589 -0.030625143123851718 -0.019099904967115396" pbc="T T T"
Si      -0.84897553       5.96820924       0.10968042
Si       1.02133614      -0.03108715      11.27623824
Si      -4.31778524      -1.30368900      10.91078447
Si       0.61571738       0.23492526      12.37939962
Si      -8.07913136       3.25598103      12.58577067
Si       6.07813717       1.07827898      -1.68202378
Si       3.60411523       0.34081109      -2.48823746
Si      -1.83111081      -0.10440471      10.99296700
Si      -1.85526756      -0.60652941      11.78886727
Si      -7.87886461       2.29141020       5.96447456
Si       1.02176996       0.12508390       3.63256292
Si      -5.69483005       4.32599779       5.96420981
Si      -4.06287325      -1.22545320       9.93746701
Si      -3.33892535       5.06071752      -0.29660621
Si       0.50151064       0.71319352       4.62558030
Si      -0.43099505       5.32420053      -0.43026727
Si      -1.61154599      -0.97457289       3.95858696
Si       4.86385021      -4.54994979       8.99597007
Si       0.62093903       1.03625550       3.67036809
Si      -5.71534687       3.72105589       6.79807863
Si      -5.33368410       3.38566718       5.89369593
Si      -1.42085549      -0.75070576      10.46267968
22
Lattice="8.750178280519743 -2.5257947067031505 -1.335715423756409 -7.783102854465323 8.71654580115895 -2.1019225390827168 -4.950190201269467 -1.6022076978418398 13.520754480888307" Properties=species:S:1:pos:R:3 unique_starting_index=18 config_type=initial n_minim_iter=13 stress="-0.008603132673945644 0.037346881453922655 -0.010313608567046122 0.037346881453922655 -0.04449614922647907 -0.036184119450628015 -0.010313608567046122 -0.036184119450628015 -0.0299541618145418" pbc="T T T"
Si      -0.86241212       6.03399596       0.09876139
Si       1.09239797      -0.03217939      11.13281071
Si      -4.24081453      -1.30473316      10.74596000
Si       0.69206365       0.22494744      12.19164361
Si      -7.97930686       3.31950526      12.35207904
Si       6.05919179       1.06885269      -1.61822751
Si       3.57799148       0.33981713      -2.42439876
Si      -1.75485937      -0.09014610      10.83192060
Si      -1.76251659      -0.61138794      11.61290155
Si      -7.81704334       2.32602318       5.83679348
Si       1.05780824       0.09366733       3.57240724
Si      -5.64095892       4.37383849       5.83872477
Si      -3.99013294      -1.23215297       9.77408548
Si      -3.35287586       5.14334907      -0.32711869
Si       0.52944808       0.70025630       4.58698377
Si      -0.43294431       5.39114907      -0.43164306
Si      -1.57771409      -0.97635997       3.89997843
Si       4.91421058      -4.60996105       8.92066337
Si       0.64460353       1.01684035       3.65185153
Si      -5.65522737       3.75677762       6.66496368
Si      -5.27759357       3.42556294       5.77349534
Si      -1.34249754      -0.74824493      10.32050879
22
Lattice="8.734488696090306 -2.546484068736354 -1.3029820438549207 -7.78692634893208 8.754014516836595 -2.101516941817746 -4.89331897425209 -1.5803240345306988 13.425263697531108" Properties=species:S:1:pos:R:3 unique_starting_index=18 config_type=initial n_minim_iter=14 stress="0.005543308286748033 0.037058380975319154 0.0014108801822761202 0.037058380975319154 -0.04144011864761812 -0.03238704794914311 0.0014108801822761202 -0.03238704794914311 -0.004809857598652249" pbc="T T T"
Si      -0.86274683       6.04963380       0.10310104
Si       1.12628054       0.00838949      11.07316026
Si      -4.20068795      -1.27664682      10.67488972
Si       0.72975111       0.25170540      12.10004412
Si      -7.91895168       3.37672805      12.25223086
Si       6.05251527       1.05726394      -1.58160211
Si       3.55912961       0.32860964      -2.39579425
Si      -1.72967677      -0.05486440      10.76111767
Si      -1.72674427      -0.58300980      11.53359846
Si      -7.78687708       2.34722521       5.78994242
Si       1.08022184       0.08609458       3.53781591
Si      -5.61425519       4.39134840       5.79236412
Si      -3.94856154      -1.20558197       9.70052997
Si      -3.35976880       5.18333296      -0.33117689
Si       0.54628916       0.69334792       4.58426896
Si      -0.43581549       5.40280304      -0.42971936
Si      -1.55559542      -0.97248203       3.87905637
Si       4.94634168      -4.60188183       8.89422341
Si       0.66123563       0.99595728       3.65819444
Si      -5.62309279       3.77213690       6.61292009
Si      -5.24933535       3.44572325       5.72662625
Si      -1.31442894      -0.72142088      10.25636685
22
Lattice="8.73813152149597 -2.595405457417792 -1.2531563831108468 -7.825586238011692 8.84368715910317 -2.1041496760327023 -4.829455605815624 -1.5675039799516863 13.25316450692369" Properties=species:S:1:pos:R:3 unique_starting_index=18 config_type=initial n_minim_iter=15 stress="0.030787681691569504 0.02924504520906852 0.016860348451319125 0.02924504520906852 -0.020509155679386916 -0.03415566815810335 0.016860348451319125 -0.03415566815810335 0.0012214838345053385" pbc="T T T"
Si      -0.86672597       6.08551415       0.10037311
Si       1.16204470       0.02520896      10.95611942
Si      -4.16045077      -1.26304565      10.53374477
Si       0.78944747       0.27040430      11.93987118
Si      -7.88253638       3.45259948      12.06805981
Si       6.04264663       1.04876106      -1.53218513
Si       3.55300629       0.32179269      -2.35046714
Si      -1.68423406      -0.01773616      10.62631545
Si      -1.68299524      -0.55953385      11.39196460
Si      -7.77328116       2.38373296       5.69513641
Si       1.10472092       0.08530987       3.49203698
Si      -5.60580205       4.43265066       5.71259028
Si      -3.90551878      -1.18799646       9.56761343
Si      -3.38658485       5.25018988      -0.33492298
Si       0.56471193       0.67958969       4.56413718
Si      -0.45224444       5.42689232      -0.42892177
Si      -1.53779451      -0.99098003       3.83353443
Si       4.99824589      -4.63746756       8.82515317
Si       0.68914956       0.96928481       3.63435346
Si      -5.59961823       3.80946324       6.52390788
Si      -5.22721604       3.48296096       5.64346135
Si      -1.27364412      -0.69654911      10.13833449
22
Lattice="8.750005754536048 -2.645870579822288 -1.2209089204880794 -7.868011266533026 8.926960059822058 -2.091915712117459 -4.788815634132501 -1.5394918534598108 13.112932333990301" Properties=species:S:1:pos:R:3 unique_starting_index=18 config_type=initial n_minim_iter=16 stress="0.05059985387499976 0.022345174047437064 0.02557256014997125 0.022345174047437064 -0.004340725976966665 -0.030625790619047254 0.02557256014997125 -0.030625790619047254 0.010909251847665523" pbc="T T T"
Si      -0.88377747       6.10011695       0.10047040
Si       1.18796954       0.04950595      10.85112762
Si      -4.12347952      -1.23090047      10.42241960
Si       0.82331218       0.30303050      11.81016034
Si      -7.86530826       3.54058340      11.92554222
Si       6.02788848       1.03799818      -1.49386617
Si       3.54139943       0.32325601      -2.31389557
Si      -1.66472909       0.02787964      10.50972098
Si      -1.65152135      -0.52550250      11.27104895
Si      -7.76590917       2.42139218       5.61700474
Si       1.11755907       0.08011423       3.45824737
Si      -5.60881532       4.48005205       5.66165314
Si      -3.87431691      -1.16474510       9.45606403
Si      -3.40642001       5.31083095      -0.32595342
Si       0.57278389       0.66876866       4.55481151
Si      -0.45831979       5.45498449      -0.41660342
Si      -1.51791238      -0.99495617       3.79751681
Si       5.04168196      -4.66784427       8.75583601
Si       0.71082623       0.95474470       3.60714845
Si      -5.59995011       3.84999528       6.46472696
Si      -5.22003636       3.52491622       5.58153131
Si      -1.25521597      -0.66193162      10.04138123
22
Lattice="8.77452749716708 -2.7128938366581954 -1.1867378816486813 -7.932193994202261 9.019074619630226 -2.0564029296219815 -4.749573333691588 -1.479523491623042 12.912368502032741" Properties=species:S:1:pos:R:3 unique_starting_index=18 config_type=initial n_minim_iter=17 stress="0.05887260147898379 0.0038354424933826703 0.026107838610188318 0.0038354424933826703 0.012069346585646148 -0.014638588909007206 0.026107838610188318 -0.014638588909007206 0.014215285575311917" pbc="T T T"
Si      -0.90018516       6.13169477       0.11616915
Si       1.22816888       0.09993926      10.68850236
Si      -4.09411131      -1.17461852      10.26166251
Si       0.84933385       0.34845800      11.63684553
Si      -7.85441490       3.65631420      11.74253548
Si       6.01123393       1.02405732      -1.44425804
Si       3.52312942       0.31684811      -2.26826394
Si      -1.64395203       0.10768247      10.34861316
Si      -1.61488920      -0.45551663      11.09891379
Si      -7.75691484       2.47981357       5.51845438
Si       1.13787136       0.07101083       3.41120219
Si      -5.61882564       4.54226271       5.59961188
Si      -3.84846440      -1.12758164       9.29646366
Si      -3.44064740       5.37277446      -0.31320650
Si       0.58135458       0.65952477       4.52232125
Si      -0.48631795       5.47007216      -0.40523066
Si      -1.50197111      -0.99480968       3.74773133
Si       5.09684346      -4.68986065       8.63884377
Si       0.72548900       0.94791451       3.56902097
Si      -5.60748715       3.90970235       6.38835154
Si      -5.22823635       3.58993916       5.50209064
Si      -1.23390641      -0.60354939       9.89725962
22
Lattice="8.787621599916795 -2.76544452909477 -1.1469474697011655 -7.981210569796588 9.08927316308399 -2.02989598968721 -4.700579353262579 -1.4299173155862075 12.71175552109774" Properties=species:S:1:pos:R:3 unique_starting_index=18 config_type=initial n_minim_iter=18 stress="0.052012150689805414 -0.01146036051282726 0.021431472889076156 -0.01146036051282726 0.024296167153273023 -0.0022030500318483575 0.021431472889076156 -0.0022030500318483575 0.024282250659730033" pbc="T T T"
Si      -0.91694773       6.15374987       0.12578159
Si       1.26777108       0.12815348      10.51871647
Si      -4.06334750      -1.12825451      10.10141119
Si       0.88921467       0.39854654      11.48207910
Si      -7.82846902       3.74562806      11.55910977
Si       5.98855684       1.01791421      -1.39829948
Si       3.50548899       0.30806281      -2.22369112
Si      -1.61527943       0.18099071      10.18443487
Si      -1.58700212      -0.39174217      10.92848181
Si      -7.74763699       2.51985715       5.42408103
Si       1.15941405       0.05935109       3.35708087
Si      -5.62302610       4.58529372       5.52743848
Si      -3.80552950      -1.09713006       9.13877052
Si      -3.46165960       5.42046479      -0.30615025
Si       0.60554387       0.64262145       4.48182272
Si      -0.49985409       5.48530877      -0.39094002
Si      -1.48497168      -0.99293489       3.69524973
Si       5.14853290      -4.69881403       8.52958499
Si       0.74179625       0.93979541       3.53779475
Si      -5.59631997       3.94930649       6.31314915
Si      -5.22860486       3.64357185       5.41807914
Si      -1.20318684      -0.54622218       9.75004157
22