12
Lattice="5.893404059404386 1.5906247805504135 -1.7032693549407107 0.4872571919380059 8.015523055506689 0.4336557951817408 -2.926011379111895 -2.2911027820117402 11.316456108422678" Properties=species:S:1:pos:R:3 unique_starting_index=44 config_type=initial n_minim_iter=1 energy=-2129.5772984294586 free_energy=-2129.5772984294586 pbc="T T T"
Si      -1.44123365       1.72561406       9.26617039
Si      -0.15519001       5.12307750       3.82665552
Si      -1.61904860       4.35741818      10.00916411
Si       3.22467010       3.40145257       7.40106380
Si       3.99594420       6.01376428       7.40395164
Si       4.02521120       3.37204929       6.63731420
Si       6.45748414       5.62013201      -2.92147219
Si       1.65321934       3.93197792      -1.04700775
Si      -2.21602712      -0.93651955       9.87307008
Si       5.59458302       4.55318390       2.01029298
Si      -2.53111275      -0.86214093       8.85231638
Si      -1.49393304      -0.94597013       9.08776896
12
Lattice="5.893338297096058 1.5905322662737165 -1.7032557966504103 0.48720931651030835 8.015209118165776 0.43364769786610236 -2.925899233271266 -2.291021216957984 11.316592814558541" Properties=species:S:1:pos:R:3 unique_starting_index=44 config_type=initial n_minim_iter=2 stress="0.00010404190993850694 4.571165138014675e-06 -0.000144294515701428 4.571165138014675e-06 -0.0010819433032945608 -5.368889777175921e-05 -0.000144294515701428 -5.368889777175921e-05 -0.0003238660780192703" pbc="T T T"
Si      -1.44117317       1.72552018       9.26628080
Si      -0.15518645       5.12286805       3.82669239
Si      -1.61899431       4.35723599      10.00928089
Si       3.22466530       3.40128797       7.40117097
Si       3.99592662       6.01349102       7.40406218
Si       4.02520502       3.37189344       6.63741365
Si       6.45737743       5.61988342      -2.92146859
Si       1.65318194       3.93182944      -1.04700946
Si      -2.21593683      -0.93648908       9.87318167
Si       5.59452578       4.55297386       2.01034857
Si      -2.53102321      -0.86211029       8.85242557
Si      -1.49385190      -0.94595490       9.08788095
12
Lattice="5.8927096602691265 1.5903384401011846 -1.7030758728235682 0.4868999548222557 8.015348185227587 0.4337533247567735 -2.924711909930771 -2.290959273436194 11.318222815595108" Properties=species:S:1:pos:R:3 unique_starting_index=44 config_type=initial n_minim_iter=3 stress="-0.00015495655376538688 -0.00019884318589007482 0.00031207012322830214 -0.00019884318589007482 5.863635474182733e-05 -1.4448929806201802e-07 0.00031207012322830214 -1.4448929806201802e-07 0.0008066265317769847" pbc="T T T"
Si      -1.44044479       1.72540714       9.26768488
Si      -0.15498738       5.12292307       3.82727611
Si      -1.61826101       4.35735920      10.01083239
Si       3.22474282       3.40125055       7.40255702
Si       3.99595740       6.01343785       7.40555424
Si       4.02529359       3.37196198       6.63869948
Si       6.45639352       5.61975434      -2.92130466
Si       1.65289636       3.93198630      -1.04693573
Si      -2.21495225      -0.93639835       9.87453497
Si       5.59407747       4.55289046       2.01112204
Si      -2.53004617      -0.86201778       8.85375443
Si      -1.49295403      -0.94605467       9.08923368
12
Lattice="5.892791948120334 1.590731560919899 -1.703072628101617 0.4873987166429181 8.015342004173865 0.43359891686831115 -2.925632746610306 -2.291154447750795 11.315503002034063" Properties=species:S:1:pos:R:3 unique_starting_index=44 config_type=initial n_minim_iter=4 stress="-0.0002939033531646491 -0.00020326649253998088 -7.409941207644274e-06 -0.00020326649253998088 3.104653116390352e-05 8.467494504162503e-05 -7.409941207644274e-06 8.467494504162503e-05 -0.0002614686350784144" pbc="T T T"
Si      -1.44115433       1.72476749       9.26540004
Si      -0.15464317       5.12272255       3.82619291
Si      -1.61871980       4.35716749      10.00832624
Si       3.22398357       3.40146970       7.40027017
Si       3.99567993       6.01361588       7.40337215
Si       4.02499358       3.37266778       6.63653202
Si       6.45659994       5.62015808      -2.92072645
Si       1.65335313       3.93251345      -1.04665150
Si      -2.21566198      -0.93649310       9.87186129
Si       5.59403981       4.55337899       2.01020693
Si      -2.53051548      -0.86216928       8.85185960
Si      -1.49347412      -0.94646883       9.08690679
12
Lattice="5.893580199498141 1.5912992108477795 -1.7032745824723692 0.4881736953878306 8.015254582303848 0.4333533267833197 -2.9263338551296605 -2.2917426684833893 11.315987265038284" Properties=species:S:1:pos:R:3 unique_starting_index=44 config_type=initial n_minim_iter=5 stress="0.0004932370419144002 6.618944245227492e-05 -0.0001155702662081495 6.618944245227492e-05 -3.337353152444574e-05 -3.038367741410127e-05 -0.0001155702662081495 -3.038367741410127e-05 0.00013667041013534434" pbc="T T T"
Si      -1.44141683       1.72420447       9.26569540
Si      -0.15413376       5.12244209       3.82611524
Si      -1.61867050       4.35661653      10.00857488
Si       3.22442456       3.40147557       7.40034038
Si       3.99649019       6.01363901       7.40333044
Si       4.02562586       3.37289141       6.63655555
Si       6.45776979       5.62074563      -2.92105064
Si       1.65392798       3.93275064      -1.04681405
Si      -2.21611127      -0.93699164       9.87227450
Si       5.59497921       4.55381986       2.01004908
Si      -2.53099590      -0.86266048       8.85217198
Si      -1.49372742      -0.94691984       9.08720747
12
Lattice="5.892780159614773 1.5918543029121255 -1.70298717910192 0.4888262967792939 8.015251175639982 0.43315163394877976 -2.9256401222084123 -2.292272665895159 11.315355468865752" Properties=species:S:1:pos:R:3 unique_starting_index=44 config_type=initial n_minim_iter=6 stress="-0.0002593713254987098 0.0002617178763212787 9.092176263529803e-05 0.0002617178763212787 -2.238043474076126e-05 -8.047936175395211e-05 9.092176263529803e-05 -8.047936175395211e-05 -6.0531146366311764e-05" pbc="T T T"
Si      -1.44095676       1.72366581       9.26520262
Si      -0.15323650       5.12215675       3.82569548
Si      -1.61766949       4.35617328      10.00796608
Si       3.22445763       3.40157254       7.40003914
Si       3.99666648       6.01375668       7.40292907
Si       4.02560744       3.37319848       6.63633339
Si       6.45710159       5.62137436      -2.92074447
Si       1.65398147       3.93304073      -1.04680320
Si      -2.21536973      -0.93742026       9.87183996
Si       5.59457714       4.55437725       2.01009181
Si      -2.53033127      -0.86307094       8.85148828
Si      -1.49295357      -0.94735716       9.08662522
12
Lattice="5.892845706638928 1.591373687381794 -1.7030424328257336 0.48822326866436627 8.015269266984637 0.4333390945536139 -2.925777230932589 -2.291775157623619 11.31517889078945" Properties=species:S:1:pos:R:3 unique_starting_index=44 config_type=initial n_minim_iter=7 stress="4.846340004040967e-05 -0.00015988194928287345 -4.623929876099399e-05 -0.00015988194928287345 1.972992445835176e-06 5.4129767302860494e-05 -4.623929876099399e-05 5.4129767302860494e-05 -4.537492884247681e-05" pbc="T T T"
Si      -1.44159395       1.72390686       9.26520717
Si      -0.15343634       5.12213913       3.82567376
Si      -1.61829840       4.35659525      10.00797219
Si       3.22405019       3.40158306       7.39998814
Si       3.99610820       6.01369683       7.40289641
Si       4.02531373       3.37311230       6.63623707
Si       6.45681322       5.62089163      -2.92067735
Si       1.65374306       3.93294151      -1.04672039
Si      -2.21543797      -0.93698906       9.87179123
Si       5.59426858       4.55417072       2.01008988
Si      -2.53046036      -0.86262538       8.85124241
Si      -1.49294158      -0.94713813       9.08642777
12
Lattice="5.8927081408941095 1.5921403391761277 -1.7029441059831174 0.4891749812822295 8.015277123612906 0.4330458929615717 -2.9255521536671094 -2.2925624672484783 11.315364066901045" Properties=species:S:1:pos:R:3 unique_starting_index=44 config_type=initial n_minim_iter=8 stress="-2.991807939628744e-05 5.632673817893357e-05 1.601398291592358e-05 5.632673817893357e-05 -2.332172873641842e-06 -1.8188193677774762e-05 1.601398291592358e-05 -1.8188193677774762e-05 2.3960407685662975e-06" pbc="T T T"
Si      -1.44180021       1.72340197       9.26549049
Si      -0.15175862       5.12142275       3.82520411
Si      -1.61752861       4.35609413      10.00787170
Si       3.22428469       3.40174194       7.40015955
Si       3.99678687       6.01395140       7.40304470
Si       4.02567537       3.37321342       6.63623973
Si       6.45683622       5.62183462      -2.92064710
Si       1.65410106       3.93304348      -1.04672953
Si      -2.21470707      -0.93765312       9.87183302
Si       5.59438709       4.55523280       2.01023112
Si      -2.52976276      -0.86328157       8.85117635
Si      -1.49260501      -0.94778437       9.08653324
12
Lattice="5.89271460529214 1.592197520857342 -1.7029419347881813 0.4892431284732559 8.015294160055713 0.43302609871151654 -2.9255370540787484 -2.2926247392900576 11.31543175455211" Properties=species:S:1:pos:R:3 unique_starting_index=44 config_type=initial n_minim_iter=9 stress="9.330879248538945e-06 -4.7253784164404836e-06 -6.0992532932665495e-06 -4.7253784164404836e-06 1.1955393115225077e-05 3.0083658791428367e-06 -6.0992532932665495e-06 3.0083658791428367e-06 -7.210917943781927e-06" pbc="T T T"
Si      -1.44213028       1.72346538       9.26566018
Si      -0.15103080       5.12104939       3.82497699
Si      -1.61750530       4.35591235      10.00797576
Si       3.22416313       3.40183769       7.40019446
Si       3.99678225       6.01383492       7.40303952
Si       4.02570037       3.37311531       6.63630314
Si       6.45674039       5.62198301      -2.92054763
Si       1.65409604       3.93295246      -1.04676339
Si      -2.21458809      -0.93758672       9.87177783
Si       5.59425901       4.55563635       2.01032481
Si      -2.52959526      -0.86322663       8.85127833
Si      -1.49248410      -0.94777350       9.08655989
12
Lattice="5.892579429889415 1.5923407336146425 -1.7028897735330768 0.48942105869722224 8.015268600092663 0.432969312855792 -2.925254849965109 -2.292802659411254 11.315855908570521" Properties=species:S:1:pos:R:3 unique_starting_index=44 config_type=initial n_minim_iter=10 stress="9.136096475016032e-06 -2.6732167087845894e-06 -1.29441551972677e-05 -2.6732167087845894e-06 2.0275470983933144e-05 4.646448138417854e-06 -1.29441551972677e-05 4.646448138417854e-06 -2.783268310742911e-05" pbc="T T T"
Si      -1.44225290       1.72346941       9.26612918
Si      -0.14926990       5.12015588       3.82453706
Si      -1.61713158       4.35589565      10.00843036
Si       3.22398770       3.40192775       7.40047480
Si       3.99694208       6.01398001       7.40329127
Si       4.02583156       3.37282626       6.63677810
Si       6.45640124       5.62222302      -2.92030760
Si       1.65402093       3.93271212      -1.04695676
Si      -2.21453209      -0.93773496       9.87196039
Si       5.59388936       4.55653664       2.01067324
Si      -2.52941575      -0.86340403       8.85186104
Si      -1.49194781      -0.94794097       9.08681300
12
Lattice="5.892266249519824 1.5926191244152892 -1.7027728158793007 0.48976129165389587 8.015231474819243 0.4328615847684143 -2.924374960164705 -2.29321482673974 11.317574866880795" Properties=species:S:1:pos:R:3 unique_starting_index=44 config_type=initial n_minim_iter=11 stress="-5.2359893307603045e-05 1.3269755971315266e-05 3.698262131540236e-05 1.3269755971315266e-05 2.6297382028833026e-05 -6.86643979151477e-06 3.698262131540236e-05 -6.86643979151477e-06 5.240073045831836e-05" pbc="T T T"
Si      -1.44162417       1.72324941       9.26757974
Si      -0.14639991       5.11879872       3.82420264
Si      -1.61627444       4.35549150      10.00953541
Si       3.22425651       3.40198124       7.40206401
Si       3.99763277       6.01381962       7.40498864
Si       4.02622475       3.37264758       6.63813650
Si       6.45578588       5.62268968      -2.92045120
Si       1.65394157       3.93264497      -1.04712921
Si      -2.21414548      -0.93804505       9.87348259
Si       5.59339104       4.55791643       2.01157798
Si      -2.52903108      -0.86371366       8.85337693
Si      -1.49116076      -0.94829808       9.08820470
12
Lattice="5.892908465531485 1.594135041644658 -1.702860595347504 0.4917052062390373 8.01519561636228 0.4322589255129673 -2.9219783771349137 -2.2954480780427335 11.32750716166569" Properties=species:S:1:pos:R:3 unique_starting_index=44 config_type=initial n_minim_iter=12 stress="-0.00015244378057078622 0.00020904811478546063 7.218243050006563e-06 0.00020904811478546063 0.00012106888323431476 -4.2707120552879483e-05 7.218243050006563e-06 -4.2707120552879483e-05 -0.00018374710979393268" pbc="T T T"
Si      -1.43953846       1.72058551       9.27564661
Si      -0.12795034       5.11000678       3.82135440
Si      -1.61335058       4.35366930      10.01777671
Si       3.22685971       3.40191420       7.41104133
Si       4.00099029       6.01356256       7.41246650
Si       4.02878455       3.37236821       6.64637146
Si       6.45549834       5.62497254      -2.92300706
Si       1.65338366       3.93310157      -1.04899441
Si      -2.21363711      -0.93967965       9.88212884
Si       5.59171409       4.56716848       2.01625718
Si      -2.52853251      -0.86534595       8.86199142
Si      -1.49135502      -0.95016425       9.09703348
12
Lattice="5.89359924248325 1.5940538781459568 -1.703079738049062 0.49162936340252245 8.015248690237037 0.43228620393440786 -2.921030644232368 -2.295753698576946 11.333034432722327" Properties=species:S:1:pos:R:3 unique_starting_index=44 config_type=initial n_minim_iter=13 stress="-7.046262554420235e-05 0.00029408319744285763 -4.5992096586684806e-05 0.00029408319744285763 0.00013347401675272588 -6.000203768028334e-05 -4.5992096586684806e-05 -6.000203768028334e-05 -0.0002790550840585475" pbc="T T T"
Si      -1.43911442       1.72023475       9.28029160
Si      -0.11802302       5.10519412       3.81981975
Si      -1.61351291       4.35337700      10.02238149
Si       3.22795546       3.40166705       7.41488421
Si       4.00164520       6.01315925       7.41726186
Si       4.02941231       3.37224485       6.65128881
Si       6.45598422       5.62495126      -2.92359693
Si       1.65219416       3.93340719      -1.04996429
Si      -2.21364092      -0.94005020       9.88717648
Si       5.59045641       4.57197632       2.01887612
Si      -2.52868891      -0.86568047       8.86654472
Si      -1.49182691      -0.95059455       9.10194923
12
Lattice="5.892726058181819 1.5910913257149235 -1.7030260744813266 0.4878263413435126 8.015428461615661 0.433473217773787 -2.9196625703933132 -2.2929079689838727 11.334584016874079" Properties=species:S:1:pos:R:3 unique_starting_index=44 config_type=initial n_minim_iter=14 stress="-9.297295310737412e-05 0.00023319664604398398 -7.388387835738135e-05 0.00023319664604398398 -1.3446580001845686e-05 -4.473614097265993e-05 -7.388387835738135e-05 -4.473614097265993e-05 -0.00036782905785735147" pbc="T T T"
Si      -1.43987915       1.72285045       9.28216846
Si      -0.11088207       5.10154086       3.81791723
Si      -1.61693877       4.35578462      10.02499162
Si       3.22606972       3.40025583       7.41685939
Si       3.99738711       6.01259465       7.42005831
Si       4.02704538       3.37163413       6.65319960
Si       6.45270476       5.62070036      -2.92325440
Si       1.64945885       3.93288343      -1.04924690
Si      -2.21369857      -0.93781310       9.88869042
Si       5.58626438       4.57481468       2.02094489
Si      -2.52868089      -0.86345888       8.86827141
Si      -1.49151917      -0.94802029       9.10349202
12
Lattice="5.892205966974477 1.5896887256711485 -1.7029677354122315 0.4860256021512196 8.015488846793582 0.4340334689085238 -2.91906870650699 -2.291522783601487 11.334764672308495" Properties=species:S:1:pos:R:3 unique_starting_index=44 config_type=initial n_minim_iter=15 stress="-0.00010268372215396505 0.00017193006303495905 -7.984950882670148e-05 0.00017193006303495905 -6.52799408440766e-05 -2.8539321429058895e-05 -7.984950882670148e-05 -2.8539321429058895e-05 -0.00037938196359069343" pbc="T T T"
Si      -1.44029433       1.72439960       9.28262568
Si      -0.10962927       5.10092205       3.81757009
Si      -1.61814937       4.35678788      10.02574669
Si       3.22496696       3.39990924       7.41744757
Si       3.99560476       6.01220750       7.42070436
Si       4.02604670       3.37146602       6.65370385
Si       6.45097625       5.61897612      -2.92295019
Si       1.64839085       3.93273168      -1.04896718
Si      -2.21358274      -0.93704813       9.88892063
Si       5.58465704       4.57507767       2.02154486
Si      -2.52856172      -0.86269469       8.86851245
Si      -1.49140448      -0.94700121       9.10374705
12
Lattice="5.891187834404287 1.5870044053201164 -1.702849055539383 0.4825738792205699 8.01562272365751 0.4351086997785736 -2.9177030312137164 -2.288920503633484 11.33577189435082" Properties=species:S:1:pos:R:3 unique_starting_index=44 config_type=initial n_minim_iter=16 stress="-7.834130632506361e-05 3.9179863048034804e-05 -3.5177396333247375e-05 3.9179863048034804e-05 -6.339526981331154e-05 -2.0271109599454913e-06 -3.5177396333247375e-05 -2.0271109599454913e-06 -0.000190840160498541" pbc="T T T"
Si      -1.44108423       1.72663756       9.28405100
Si      -0.10996259       5.10141472       3.81810773
Si      -1.61962860       4.35884636      10.02732307
Si       3.22286414       3.39888907       7.41881621
Si       3.99313468       6.01157522       7.42248783
Si       4.02452396       3.37084260       6.65516420
Si       6.44763371       5.61532394      -2.92218072
Si       1.64651086       3.93219259      -1.04866420
Si      -2.21290924      -0.93521687       9.89006571
Si       5.58236970       4.57413055       2.02258075
Si      -2.52800103      -0.86083681       8.86929207
Si      -1.49092012      -0.94453866       9.10479540
12
Lattice="5.89093214056941 1.5858898545271738 -1.7028513413888648 0.48114029917386253 8.015720304714847 0.4355583267786604 -2.9171289074350697 -2.287881120907139 11.336805768145398" Properties=species:S:1:pos:R:3 unique_starting_index=44 config_type=initial n_minim_iter=17 stress="-2.54715874907917e-05 -1.583576407100453e-05 -9.998847910655655e-06 -1.583576407100453e-05 -2.1342497646550074e-05 7.2769714942067236e-06 -9.998847910655655e-06 7.2769714942067236e-06 -5.050907728473119e-05" pbc="T T T"
Si      -1.44177308       1.72757818       9.28526529
Si      -0.11051085       5.10227279       3.81870493
Si      -1.62013647       4.35965761      10.02846893
Si       3.22249368       3.39834887       7.41986438
Si       3.99237288       6.01127151       7.42363711
Si       4.02394432       3.37061078       6.65611266
Si       6.44666665       5.61374965      -2.92223923
Si       1.64569508       3.93201652      -1.04848076
Si      -2.21279019      -0.93450690       9.89084932
Si       5.58185603       4.57354629       2.02306218
Si      -2.52778971      -0.86014862       8.87037460
Si      -1.49053100      -0.94373331       9.10566709
12
Lattice="5.890680603034268 1.5854551654862148 -1.7028053711459834 0.4805727135355461 8.015758858358838 0.43573633803465234 -2.916377654611556 -2.287564393863195 11.338378679158986" Properties=species:S:1:pos:R:3 unique_starting_index=44 config_type=initial n_minim_iter=18 stress="1.1474973975777707e-05 -7.468169424363755e-05 1.5374247435559366e-05 -7.468169424363755e-05 1.2523102796848032e-05 1.8215274351714572e-05 1.5374247435559366e-05 1.8215274351714572e-05 7.549230650934014e-05" pbc="T T T"
Si      -1.44171625       1.72758695       9.28671274
Si      -0.10980269       5.10306940       3.81911787
Si      -1.62021713       4.35980436      10.02995848
Si       3.22254265       3.39813957       7.42129881
Si       3.99204651       6.01098219       7.42519151
Si       4.02407186       3.37027630       6.65744469
Si       6.44596412       5.61322369      -2.92237852
Si       1.64536137       3.93179092      -1.04864299
Si      -2.21240907      -0.93451158       9.89211814
Si       5.58181567       4.57375977       2.02366368
Si      -2.52736510      -0.86016356       8.87178433
Si      -1.49003398      -0.94335313       9.10700573
12
Lattice="5.889875148524441 1.5850644268280618 -1.7025852156411878 0.480030660666944 8.0157933360653 0.43590617085194877 -2.912847649905831 -2.28781680819547 11.346984996141762" Properties=species:S:1:pos:R:3 unique_starting_index=44 config_type=initial n_minim_iter=19 stress="0.0002367981736394934 -0.0001610352702603188 0.00014257218012743225 -0.0001610352702603188 0.00011188657661640408 4.18113083566617e-06 0.00014257218012743225 4.18113083566617e-06 0.0006929853372320705" pbc="T T T"
Si      -1.44041120       1.72699884       9.29425098
Si      -0.10213226       5.10659055       3.82013349
Si      -1.61912826       4.35890327      10.03762226
Si       3.22352831       3.39652655       7.42880629
Si       3.99228415       6.00970117       7.43292713
Si       4.02607054       3.36875258       6.66461769
Si       6.44345043       5.61185585      -2.92337802
Si       1.64468204       3.93089937      -1.05014572
Si      -2.21055275      -0.93529019       9.89942276
Si       5.58297860       4.57748946       2.02670323
Si      -2.52548097      -0.86094874       8.87917903
Si      -1.48816940      -0.94461329       9.11432228
12
Lattice="5.89041057664849 1.5842472754585546 -1.7028100341233157 0.4790197479264508 8.01586338018118 0.4362233226463583 -2.9091536811397916 -2.2879980415360923 11.360911399327883" Properties=species:S:1:pos:R:3 unique_starting_index=44 config_type=initial n_minim_iter=20 stress="0.0005539006850518591 -0.00019255352844520937 0.00014670704466008844 -0.00019255352844520937 -0.00020662593050234046 -3.392299622551822e-05 0.00014670704466008844 -3.392299622551822e-05 0.0010268704787696566" pbc="T T T"
Si      -1.44293927       1.72310765       9.30714149
Si      -0.05984348       5.11650958       3.81265634
Si      -1.62013036       4.35535296      10.05021437
Si       3.22246316       3.39258003       7.44122215
Si       3.99173457       6.00535328       7.44502585
Si       4.02509785       3.36406811       6.67655846
Si       6.43870200       5.60808803      -2.92485395
Si       1.63971096       3.92715876      -1.05115816
Si      -2.21269492      -0.93894056       9.91228720
Si       5.58608200       4.60054987       2.03227936
Si      -2.52766549      -0.86458911       8.89190628
Si      -1.49036711      -0.94782552       9.12716029
12
Lattice="5.890392579815478 1.5833204310173377 -1.7028720146596963 0.4778439580106419 8.015919842634647 0.43659037898124287 -2.906820492750693 -2.2876177175351864 11.368473691146479" Properties=species:S:1:pos:R:3 unique_starting_index=44 config_type=initial n_minim_iter=21 stress="0.00025349486469482165 -0.00019224968312283005 -2.7575411587637334e-05 -0.00019224968312283005 0.0003133571002695726 6.69080348057682e-05 -2.7575411587637334e-05 6.69080348057682e-05 0.00022293082379255442" pbc="T T T"
Si      -1.44505381       1.71909032       9.31428584
Si      -0.03022238       5.14227972       3.80804766
Si      -1.62232091       4.35130740      10.05743073
Si       3.22008617       3.38774604       7.44841493
Si       3.98949764       6.00038757       7.45208827
Si       4.02268864       3.35919755       6.68371596
Si       6.43397673       5.60287729      -2.92527238
Si       1.63499532       3.92283264      -1.05147256
Si      -2.21457946      -0.94314158       9.91947197
Si       5.59283460       4.61698072       2.03404920
Si      -2.52962003      -0.86877361       8.89886426
Si      -1.49240747      -0.95165556       9.13429539
