16
Lattice="5.27748114263975 -1.3113139597305157 1.6877049219487053 0.2207391285450481 9.413166783114004 -1.9097778443725513 2.303188219860741 0.8527255818574567 11.720772593372224" Properties=species:S:1:pos:R:3 unique_starting_index=65 config_type=initial n_minim_iter=1 energy=-2657.1875584780664 free_energy=-2657.1875584780664 pbc="T T T"
Si       4.33484575       6.17407158       4.18040269
Si       3.40822788       5.45708753       3.64631069
Si       2.98942019       8.49948848       8.71426733
Si       4.15292744       7.16667137       6.59149024
Si       2.92289133       2.87597020       3.10765959
Si       1.47813683       2.78894231       1.21799807
Si       4.26616424       7.30447863       3.71190467
Si       4.29098474       4.11982961       2.43662125
Si       2.71050916      -1.46136746       7.88790133
Si       2.96837347       6.78697697       6.45349507
Si       3.11169372       1.83143891       1.50652838
Si       3.88765882      -1.04164998       8.05655723
Si       0.83408876       0.18703851       0.86264654
Si       4.92812434       2.14716371       2.29991809
Si       5.34994832       7.37686064       1.21667344
Si       5.03875467       6.14409806       1.34817078
16
Lattice="5.27419646644169 -1.3087491531617061 1.685831402662707 0.21923972351340748 9.378637950416064 -1.9159217842017138 2.286688107990338 0.8484800961708683 11.752872173721915" Properties=species:S:1:pos:R:3 unique_starting_index=65 config_type=initial n_minim_iter=2 stress="-0.0036283248673133965 -0.006707588170513089 -0.005844047629942456 -0.006707588170513089 0.0034032532072787256 0.005957041942360628 -0.005844047629942456 0.005957041942360628 0.015230854736649774" pbc="T T T"
Si       4.32504463       6.15022607       4.18627746
Si       3.40121465       5.43699396       3.65306541
Si       2.97426422       8.46723546       8.73593007
Si       4.13992387       7.13934584       6.60590305
Si       2.91620170       2.86322588       3.11314445
Si       1.47442624       2.77865101       1.21983152
Si       4.25707312       7.27403278       3.71714290
Si       4.28449700       4.10355313       2.43846440
Si       2.69969921      -1.45754887       7.90810921
Si       2.95616668       6.76063575       6.46869668
Si       3.10887843       1.82324808       1.50716756
Si       3.87625297      -1.03956673       8.07560700
Si       0.83220310       0.18571833       0.86436049
Si       4.92202817       2.13711384       2.30011401
Si       5.34334547       7.34750408       1.21306278
Si       5.03309544       6.11917640       1.34574496
16
Lattice="5.275734083683593 -1.3023760451331108 1.6869409099786892 0.2271731787230786 9.356288362993203 -1.9236034336882182 2.2912596210048335 0.8365927996391374 11.742364510758579" Properties=species:S:1:pos:R:3 unique_starting_index=65 config_type=initial n_minim_iter=3 stress="-0.009622208258082679 -0.005753524938278824 1.324684038684718e-05 -0.005753524938278824 -0.016154637080388116 -0.007580153332293974 1.324684038684718e-05 -0.007580153332293974 -0.00989686168178776" pbc="T T T"
Si       4.33285275       6.13473922       4.17657280
Si       3.40949362       5.42312681       3.64574270
Si       2.98622688       8.43927724       8.71987699
Si       4.14956190       7.11877779       6.59424056
Si       2.92005296       2.85391463       3.10833054
Si       1.47719079       2.77230921       1.21659376
Si       4.26688406       7.25361053       3.70750002
Si       4.29022576       4.09507988       2.43360553
Si       2.70126060      -1.45957241       7.90346332
Si       2.96508997       6.73886513       6.45675773
Si       3.11318375       1.81947421       1.50501264
Si       3.87886614      -1.04140286       8.07057598
Si       0.83239879       0.18474558       0.86391046
Si       4.92594468       2.13349811       2.29701960
Si       5.35204624       7.33172730       1.20577376
Si       5.04131431       6.10582609       1.33994389
16
Lattice="5.295650974738044 -1.2778835168516651 1.6922394176333444 0.26825113434879766 9.34937955853845 -1.9242066372489979 2.312764115061587 0.8484848084005951 11.760711884411466" Properties=species:S:1:pos:R:3 unique_starting_index=65 config_type=initial n_minim_iter=4 stress="0.006585771946902934 0.002946840377470333 0.0048038621236435 0.002946840377470333 -0.011482259389756283 -0.0055940825101388385 0.0048038621236435 -0.0055940825101388385 0.003463764636028942" pbc="T T T"
Si       4.38082146       6.15303034       4.18302927
Si       3.45435956       5.43714793       3.65678473
Si       3.04650171       8.44812532       8.73356523
Si       4.20411721       7.13610202       6.60842884
Si       2.94535882       2.85998989       3.11537452
Si       1.49468485       2.78007132       1.22085533
Si       4.32417337       7.26365339       3.71637578
Si       4.32892927       4.11345856       2.44090157
Si       2.71139454      -1.44596120       7.91640424
Si       3.01296964       6.74632296       6.46806544
Si       3.14011251       1.83091726       1.51014838
Si       3.89686911      -1.02132321       8.08422089
Si       0.83558922       0.18723501       0.86704922
Si       4.95752439       2.15353436       2.30336525
Si       5.40838751       7.34931806       1.21184859
Si       5.09368026       6.12115001       1.34710787
16
Lattice="5.28745136418835 -1.2584710074515602 1.6704976089474277 0.30673691816519466 9.36907003437284 -1.8974498060060614 2.286815195688563 0.8848982229929911 11.717773011658085" Properties=species:S:1:pos:R:3 unique_starting_index=65 config_type=initial n_minim_iter=5 stress="0.0026524724535183703 0.0077067379453943635 -0.0031655556473781767 0.0077067379453943635 0.0010498990985982875 -0.003350251641041136 -0.0031655556473781767 -0.003350251641041136 -0.002154626599439361" pbc="T T T"
Si       4.38989019       6.19879926       4.16558034
Si       3.46979438       5.47772809       3.65532780
Si       3.06285493       8.50123328       8.71290730
Si       4.21292051       7.18915205       6.59226995
Si       2.94232963       2.87370138       3.10447513
Si       1.49705900       2.80136110       1.22176684
Si       4.34798640       7.30028937       3.70866953
Si       4.33732191       4.14710520       2.43022339
Si       2.68610370      -1.42392975       7.88068327
Si       3.02383369       6.78501721       6.45189458
Si       3.15231737       1.84799671       1.50355731
Si       3.87151104      -0.99108950       8.04472883
Si       0.82955805       0.18946074       0.86525447
Si       4.95400516       2.18048175       2.28677980
Si       5.42895936       7.38873151       1.20992147
Si       5.11596096       6.15338540       1.34455346
16
Lattice="5.304816365500337 -1.2664877198582667 1.6862877296388465 0.2701278249333889 9.357018221662047 -1.8526463871069965 2.3398543743931532 0.9289159446171754 11.715426044491194" Properties=species:S:1:pos:R:3 unique_starting_index=65 config_type=initial n_minim_iter=6 stress="-0.0038903467090883373 -0.0051081901397603624 0.008903537846808045 -0.0051081901397603624 -0.007314647314157187 0.011241514198519298 0.008903537846808045 0.011241514198519298 -0.009343483075468235" pbc="T T T"
Si       4.39151467       6.20789763       4.19924309
Si       3.47974175       5.48698219       3.69778700
Si       3.08830761       8.53215891       8.75233936
Si       4.22425472       7.20906028       6.63196902
Si       2.94804572       2.86671130       3.12382081
Si       1.48912583       2.80908350       1.24265310
Si       4.35685705       7.30191613       3.75373352
Si       4.33217830       4.14416164       2.46713316
Si       2.72975218      -1.39901354       7.87451769
Si       3.04124649       6.79833009       6.48300423
Si       3.16280512       1.84021687       1.52334351
Si       3.91148976      -0.96579976       8.04375268
Si       0.82633229       0.18529361       0.87241978
Si       4.96176688       2.17489634       2.31634674
Si       5.41347421       7.37371559       1.26245758
Si       5.11522354       6.13872967       1.39147592
16
Lattice="5.334676575048249 -1.3061378837550395 1.705245448261867 0.220904003622658 9.405552042413673 -1.8997082008580888 2.3622474866459755 0.8694833899008665 11.751598313451233" Properties=species:S:1:pos:R:3 unique_starting_index=65 config_type=initial n_minim_iter=7 stress="0.014333834636100223 -0.005808237190645643 0.0037876141496308415 -0.005808237190645643 0.005813611650856176 -0.0013601941098427307 0.0037876141496308415 -0.0013601941098427307 0.002762659423981051" pbc="T T T"
Si       4.37551718       6.21106242       4.17230320
Si       3.48751033       5.48609934       3.71532279
Si       3.09455641       8.53224128       8.75240899
Si       4.20856088       7.20586940       6.62042038
Si       2.93852262       2.81290183       3.11977304
Si       1.46135705       2.83241666       1.24834405
Si       4.37338445       7.31167634       3.73806944
Si       4.30318313       4.13611552       2.47482935
Si       2.76352145      -1.45915082       7.90596547
Si       3.04834194       6.77370937       6.47202499
Si       3.18255854       1.81053731       1.52182592
Si       3.93056253      -1.02001177       8.06579599
Si       0.80444865       0.15871885       0.88768340
Si       4.97304764       2.14968831       2.32722880
Si       5.38435176       7.36610953       1.23146610
Si       5.12763972       6.12423613       1.37225445
16
Lattice="5.270682160698469 -1.2695603053833808 1.7022363194135286 0.2759507033777745 9.39487087480562 -1.8810928270663478 2.336462626645155 0.9103617684435876 11.77424068472962" Properties=species:S:1:pos:R:3 unique_starting_index=65 config_type=initial n_minim_iter=8 stress="-0.00927485544677719 0.0063238786463726505 -0.0002083777646369992 0.0063238786463726505 0.0063637481758183 0.0020809153374090252 -0.0002083777646369992 0.0020809153374090252 0.009126425014637585" pbc="T T T"
Si       4.36795822       6.25644656       4.18406494
Si       3.48867941       5.51721333       3.74934298
Si       3.11999396       8.56765604       8.78048201
Si       4.20301937       7.25045246       6.64012179
Si       2.91937437       2.81188945       3.12487828
Si       1.45306126       2.85398929       1.26517737
Si       4.38623832       7.35212471       3.75857844
Si       4.25828404       4.16413917       2.49664922
Si       2.72475771      -1.42924885       7.91511689
Si       3.06660832       6.79776478       6.49797011
Si       3.16009111       1.82439444       1.52224489
Si       3.87166495      -0.97201986       8.06711245
Si       0.77992231       0.15479104       0.90126681
Si       4.93749835       2.18306955       2.34013591
Si       5.36151931       7.38872457       1.24062923
Si       5.12566321       6.14675636       1.38488468
16
Lattice="5.277649542557114 -1.2643981256296315 1.6774654363412804 0.2917927438973298 9.396452705978952 -1.8716684760123974 2.299816035911238 0.9191694923876899 11.735766310965198" Properties=species:S:1:pos:R:3 unique_starting_index=65 config_type=initial n_minim_iter=9 stress="0.001154083581939655 0.003926536795477444 -0.00665709945986673 0.003926536795477444 0.006099924577685701 0.0020508066101285172 -0.00665709945986673 0.0020508066101285172 0.007092146014522868" pbc="T T T"
Si       4.38170755       6.28910362       4.15128215
Si       3.49670626       5.54797306       3.76021513
Si       3.11343015       8.57769095       8.73609585
Si       4.20094301       7.27235921       6.59524210
Si       2.91196763       2.77820228       3.09887764
Si       1.44899432       2.86981472       1.27375270
Si       4.40868098       7.37338770       3.73373522
Si       4.22936386       4.16536241       2.48805215
Si       2.70389236      -1.43302747       7.88538558
Si       3.07493744       6.80207022       6.47816524
Si       3.15963456       1.81882163       1.49780108
Si       3.84288049      -0.95283366       8.01598128
Si       0.75238975       0.13981307       0.91705865
Si       4.94866957       2.19176595       2.32687883
Si       5.36125076       7.38429629       1.20790665
Si       5.16508824       6.14523980       1.36457294
16
Lattice="5.2135903290126935 -1.244465377344784 1.7234623602350858 0.37480555142956495 9.600250000299813 -1.9221573294399403 2.3451471167490467 0.9134725761490174 11.831678724995463" Properties=species:S:1:pos:R:3 unique_starting_index=65 config_type=initial n_minim_iter=10 stress="-0.0035888606967857542 0.02431006575071071 -0.03229832093171664 0.02431006575071071 0.03668513231180995 -0.023241867423730585 -0.03229832093171664 -0.023241867423730585 0.037632889257549616" pbc="T T T"
Si       4.52315241       6.58467295       4.11262953
Si       3.59142518       5.82200018       3.93288080
Si       3.23243685       8.74853978       8.73794061
Si       4.32173158       7.51502571       6.54358724
Si       2.88892811       2.61720035       3.07708860
Si       1.46717563       2.99100771       1.37377414
Si       4.53263347       7.63322840       3.70565638
Si       4.02028775       4.28549414       2.60962761
Si       2.71126756      -1.53210899       7.95906689
Si       3.24579049       6.92093048       6.54212126
Si       3.15694572       1.84323935       1.47724463
Si       3.79131575      -0.88016535       8.01436687
Si       0.59723168       0.04652453       1.05693570
Si       4.88897690       2.29038306       2.39441953
Si       5.28025433       7.50797198       1.12388846
Si       5.32264848       6.26775211       1.37808907
16
Lattice="5.208001786628685 -1.202413961309418 1.7346817123985618 0.43523956026799965 9.644633279411126 -1.8555355032912344 2.395776139626869 1.0167834253368118 11.845167797345482" Properties=species:S:1:pos:R:3 unique_starting_index=65 config_type=initial n_minim_iter=11 stress="0.0004542239451640364 0.031543432864053894 -0.044260332539867116 0.031543432864053894 0.024481717098274226 -0.03256359883914681 -0.044260332539867116 -0.03256359883914681 0.051678637312654464" pbc="T T T"
Si       4.65574505       6.76577800       4.12502936
Si       3.68347408       5.99839280       4.07637753
Si       3.33673159       8.87964346       8.78434575
Si       4.43492914       7.68955029       6.55230257
Si       2.88575333       2.51399840       3.07647956
Si       1.49151364       3.06225809       1.45831127
Si       4.64247396       7.79262382       3.74458069
Si       3.93101491       4.37576160       2.71215213
Si       2.74119606      -1.50707876       7.95730198
Si       3.39131594       7.02604457       6.61678815
Si       3.17805881       1.86138813       1.47225721
Si       3.78086032      -0.76005923       7.97109850
Si       0.50176152      -0.01499660       1.14025726
Si       4.88965136       2.36185101       2.44995251
Si       5.26192797       7.53746494       1.13594415
Si       5.46241951       6.32398434       1.44115387
16
Lattice="5.130594487580427 -1.166358145111644 1.8572725110291848 0.5376514419789178 9.990443745577823 -1.8548359036947641 2.607316343411962 1.1035419580556127 12.015037094579386" Properties=species:S:1:pos:R:3 unique_starting_index=65 config_type=initial n_minim_iter=12 stress="-0.042215438039816824 0.02739333290520655 -0.039619446063398206 0.02739333290520655 -0.009513549533334806 -0.07070022825504793 -0.039619446063398206 -0.07070022825504793 0.03739187239597302" pbc="T T T"
Si       4.88158093       7.20565629       4.17638590
Si       3.88613386       6.47691278       4.35655322
Si       3.59797221       9.23469677       8.90940539
Si       4.67477547       8.14118833       6.64262147
Si       2.87271930       2.36989974       3.12009271
Si       1.53509060       3.26286055       1.59963574
Si       4.79860155       8.23188626       3.82444189
Si       3.77517615       4.62781406       2.90531070
Si       2.85606081      -1.56431056       8.08573192
Si       3.71264568       7.34497273       6.80113862
Si       3.17921761       1.94520394       1.49821097
Si       3.80305182      -0.64920147       8.04288593
Si       0.33806031      -0.17604827       1.30727040
Si       4.87504065       2.51955959       2.62339385
Si       5.15855796       7.74408285       1.15716731
Si       5.65000256       6.60918428       1.58544323
16
Lattice="5.127584274811013 -1.1157413697202192 1.8566296775922924 0.6304933646981821 10.067736431302265 -1.8024506636426423 2.6385391983518875 1.195965629930275 12.006216270094994" Properties=species:S:1:pos:R:3 unique_starting_index=65 config_type=initial n_minim_iter=13 stress="-0.049552137797577264 0.029789816680555053 -0.033776191161534304 0.029789816680555053 -0.02470943702021844 -0.06590815363536254 -0.033776191161534304 -0.06590815363536254 0.012032202657116933" pbc="T T T"
Si       4.99709236       7.36832870       4.18689712
Si       3.99170342       6.65374255       4.42930251
Si       3.70118595       9.38125487       8.94361897
Si       4.78775957       8.31563495       6.65378287
Si       2.88770855       2.35366663       3.11535866
Si       1.57243146       3.32832602       1.64221767
Si       4.89603280       8.39082275       3.85167103
Si       3.76113056       4.72478408       2.95032095
Si       2.86686424      -1.52289338       8.07130982
Si       3.83855122       7.48340289       6.84511493
Si       3.20298904       1.99627505       1.49433046
Si       3.79770359      -0.56153038       8.01032788
Si       0.28888801      -0.22574723       1.33833821
Si       4.90120862       2.59699896       2.65135233
Si       5.19666168       7.81639823       1.17784219
Si       5.76609902       6.73114168       1.62209204
16
Lattice="5.19658975693418 -1.1217483212431103 1.894051510915011 0.6767594476569734 10.38770172106364 -1.765342899607153 2.7584697692674163 1.2895453149164153 12.054923926551593" Properties=species:S:1:pos:R:3 unique_starting_index=65 config_type=initial n_minim_iter=14 stress="-0.05756196365952657 0.005222139086234246 -0.03620285477750295 0.005222139086234246 -0.01083803101161126 -0.04610451907678812 -0.03620285477750295 -0.04610451907678812 0.027450544539450332" pbc="T T T"
Si       5.19507494       7.68125403       4.22011712
Si       4.17306944       7.00861471       4.50074100
Si       3.82727697       9.67948249       8.99313712
Si       4.97049916       8.68778458       6.71274586
Si       2.92650103       2.34125025       3.12016667
Si       1.64890587       3.44078946       1.71162060
Si       4.98419769       8.73384090       3.91075706
Si       3.74408347       4.91913584       3.04072179
Si       2.98580064      -1.51698287       8.12716185
Si       4.06332608       7.83567080       6.95646432
Si       3.26122607       2.09664145       1.50443656
Si       3.85944572      -0.53928260       8.04351546
Si       0.23752940      -0.34161478       1.34284503
Si       4.96133527       2.69597604       2.70716740
Si       5.23268693       8.01461957       1.25067244
Si       5.94986452       7.01298472       1.69380596
16
Lattice="5.3403952387581635 -0.9886490507706166 1.9324375852945557 0.9169597991162751 10.582035777459378 -1.6477273216920696 2.9714453250954325 1.515409092040554 12.094520029192022" Properties=species:S:1:pos:R:3 unique_starting_index=65 config_type=initial n_minim_iter=15 stress="-0.057502134083662 0.019053765578618893 -0.04584518428134922 0.019053765578618893 -0.01051751696934239 -0.01089755969176501 -0.04584518428134922 -0.01089755969176501 0.042626744297876065" pbc="T T T"
Si       5.64831786       8.07587968       4.35202355
Si       4.54082031       7.39584424       4.57893344
Si       4.18029498      10.00845085       9.18044088
Si       5.41990626       9.10528423       6.84535718
Si       3.05401197       2.42790025       3.14528733
Si       1.85995803       3.52500339       1.81005309
Si       5.26870069       9.07876986       4.03578466
Si       3.92562100       5.13012484       3.14756390
Si       3.15795757      -1.34822996       8.15170176
Si       4.54478739       8.29980307       7.10429937
Si       3.40795120       2.27921281       1.53553023
Si       3.98404873      -0.42821851       8.08860965
Si       0.19873555      -0.47828096       1.28640414
Si       5.13520663       2.87578343       2.76685374
Si       5.50217328       8.21245709       1.40705895
Si       6.35738817       7.38853525       1.82754465
16
Lattice="5.596081631893393 -0.9767567245815015 2.0572210067474543 0.9814719443413363 10.968283390854753 -1.5907824825584433 3.350551266882364 1.657991359029829 12.241369481803998" Properties=species:S:1:pos:R:3 unique_starting_index=65 config_type=initial n_minim_iter=16 stress="-0.011818599147907232 -0.012662489612961817 -0.04954256610486902 -0.012662489612961817 -0.008090103943803412 -0.004879269871754026 -0.04954256610486902 -0.004879269871754026 0.1063959870519855" pbc="T T T"
Si       6.12563548       8.59488739       4.56628745
Si       4.94330474       7.84942933       4.67438557
Si       4.60211025      10.43322216       9.39257120
Si       5.89023666       9.58934740       7.03355416
Si       3.22052060       2.46454935       3.21953272
Si       2.09750438       3.62302666       1.93884573
Si       5.54587960       9.49182532       4.19665108
Si       4.10850331       5.38034373       3.30044764
Si       3.49562881      -1.30851513       8.30472547
Si       5.09351822       8.76855009       7.24152629
Si       3.56779192       2.47963341       1.59464349
Si       4.25071978      -0.41286253       8.24563111
Si       0.10601385      -0.80075243       1.22092210
Si       5.31138765       2.96525077       2.87706215
Si       5.67835731       8.44011921       1.66965781
Si       6.77592406       7.83078932       2.03094513
16
Lattice="5.6718968557085505 -0.9442773710283395 2.103981899661579 1.0988644295857195 11.327690151045877 -1.5404629540910926 3.5148349589201224 1.7839052439265142 12.270103797695985" Properties=species:S:1:pos:R:3 unique_starting_index=65 config_type=initial n_minim_iter=17 stress="0.00042736135686811483 -0.013007515908756158 -0.04609584024413146 -0.013007515908756158 -0.02241351801892594 -0.009590218571155898 -0.04609584024413146 -0.009590218571155898 0.08294232616768878" pbc="T T T"
Si       6.37061791       9.05778973       4.63534238
Si       5.20427415       8.27694828       4.70639232
Si       4.86398920      10.83637723       9.49354327
Si       6.16167460      10.05018236       7.11379639
Si       3.28169163       2.51521239       3.24089520
Si       2.22462784       3.74351827       2.01114213
Si       5.73777045       9.87612640       4.29292882
Si       4.18024630       5.59951825       3.37698004
Si       3.61456941      -1.29793546       8.35383035
Si       5.40471407       9.16763608       7.29800085
Si       3.63866320       2.63004056       1.60519165
Si       4.34019343      -0.36595687       8.27243094
Si       0.03121419      -1.00881430       1.19468080
Si       5.38413245       3.10581626       2.92682864
Si       5.79150394       8.68924618       1.78313252
Si       6.99360079       8.22144260       2.12106259
16
Lattice="5.787594923250868 -0.9050648971526905 2.2578414801724294 1.307097546552217 12.049771417474958 -1.5708332359444053 3.889977389613081 1.8843261762141827 12.421280299914072" Properties=species:S:1:pos:R:3 unique_starting_index=65 config_type=initial n_minim_iter=18 stress="0.002735495041856069 0.005181000538831164 -0.012229387568155652 0.005181000538831164 -0.024186491149121424 -0.008644017476587369 -0.012229387568155652 -0.008644017476587369 0.01030326738391973" pbc="T T T"
Si       6.79694551       9.87111746       4.76582642
Si       5.72645212       9.08838755       4.75194947
Si       5.40693471      11.51010061       9.66678412
Si       6.64467355      10.83899523       7.24505509
Si       3.38236315       2.58639012       3.31316736
Si       2.44134994       3.94717271       2.12525890
Si       6.11082040      10.57926227       4.39379047
Si       4.30792412       5.94719675       3.48008703
Si       3.88897225      -1.37471889       8.55730621
Si       5.99438256       9.88551756       7.38452237
Si       3.76948249       2.89059659       1.63623352
Si       4.53601701      -0.40576447       8.42300115
Si      -0.06139925      -1.26744799       1.21642189
Si       5.51673469       3.35224176       3.04913929
Si       6.02416747       9.16272669       1.98115001
Si       7.32236845       8.88928618       2.26776052
16
Lattice="5.837390058641997 -0.9108094717782214 2.3068151755933886 1.3926572383369837 12.457245040450164 -1.6027260105417607 4.019465027696876 1.9023124772125624 12.43551009190183" Properties=species:S:1:pos:R:3 unique_starting_index=65 config_type=initial n_minim_iter=19 stress="0.004366866031255987 0.018904469382548167 0.00469381126825666 0.018904469382548167 0.006147074178026116 -0.009836369457548124 0.00469381126825666 -0.009836369457548124 -0.07570337652672152" pbc="T T T"
Si       6.95077758      10.24596305       4.75603873
Si       5.94398052       9.50425004       4.70792704
Si       5.60612834      11.84565321       9.68872718
Si       6.82790732      11.24450728       7.24313473
Si       3.43250544       2.65923762       3.33903002
Si       2.52080387       4.05194536       2.14594197
Si       6.24665295      10.92260504       4.42353493
Si       4.36785879       6.12809692       3.49132377
Si       3.98379388      -1.45796088       8.61420303
Si       6.20958228      10.23331961       7.35535009
Si       3.81902647       3.02441241       1.62501055
Si       4.60770343      -0.46203774       8.46574628
Si      -0.11227619      -1.35234835       1.20996134
Si       5.57126712       3.45945550       3.07359367
Si       6.16563569       9.43710336       2.04862969
Si       7.43338488       9.19466241       2.29567955
16
Lattice="5.903265329382786 -0.916326221947529 2.5499688836231935 1.4555855696593143 12.845760050807758 -1.7949375310427995 4.429724255193685 1.7855421685250832 12.837659963722167" Properties=species:S:1:pos:R:3 unique_starting_index=65 config_type=initial n_minim_iter=20 stress="-0.0038904120285063967 0.019548382107919853 0.016064558583861195 0.019548382107919853 0.021743942480845744 0.009149264724278834 0.016064558583861195 0.009149264724278834 0.049422322896873365" pbc="T T T"
Si       7.21134499      10.58007427       4.90077767
Si       6.26698511       9.89607484       4.85323589
Si       6.02027946      12.00746489       9.91460905
Si       7.15040714      11.54007365       7.41656505
Si       3.54395412       2.68003150       3.49894521
Si       2.63689012       4.14404781       2.23958990
Si       6.48328410      11.22194199       4.56918892
Si       4.48724800       6.25438368       3.61343809
Si       4.26842764      -1.61953248       9.01177483
Si       6.60777520      10.51189501       7.54714232
Si       3.91233165       3.15290102       1.69864788
Si       4.83847618      -0.60716487       8.83327597
Si      -0.14996107      -1.46881635       1.25957946
Si       5.64712376       3.53212128       3.24598432
Si       6.33644711       9.65642651       2.15472601
Si       7.57712087       9.49135523       2.41052819
16
Lattice="6.059340722325687 -0.8941578876260047 2.6432374957333815 1.5959995175865074 13.183226295351112 -1.9332934227570617 4.6536394573716535 1.6932372878743027 12.937680866116542" Properties=species:S:1:pos:R:3 unique_starting_index=65 config_type=initial n_minim_iter=21 stress="-0.008382349742607124 0.0017599032696845574 0.00986575958557473 0.0017599032696845574 -0.00687236777889317 -0.0052252913017556135 0.00986575958557473 -0.0052252913017556135 -0.011631912941762974" pbc="T T T"
Si       7.53861796      10.86308480       4.83838709
Si       6.64422227      10.27964500       4.83732173
Si       6.34846240      12.13711781       9.89708118
Si       7.46187423      11.79402646       7.36948073
Si       3.68854256       2.76044670       3.55705391
Si       2.74827564       4.23103111       2.25642858
Si       6.75847938      11.48607418       4.52622976
Si       4.63849990       6.36965468       3.63689742
Si       4.45095273      -1.74906931       9.17772828
Si       6.98946528      10.76796299       7.50566208
Si       4.07190900       3.29605806       1.67951959
Si       4.98365765      -0.72768087       8.98393959
Si      -0.19705658      -1.54580425       1.32692813
Si       5.79104712       3.60982418       3.27366212
Si       6.63706199       9.87361019       2.17331009
Si       7.84234818       9.78658947       2.36455426
