6
Lattice="4.785932004774817 3.9626096968624503e-64 -3.7781045156870876e-52 1.6916119765065617e-64 4.785932004774817 -1.8076690445784038e-15 3.329357217345353e-52 2.1829530876028145e-15 9.779158779835681" Properties=species:S:1:pos:R:3 unique_starting_index=46 config_type=initial n_minim_iter=12 energy=-972.8916778119518 free_energy=-972.8916778119518 pbc="T T T"
Si       3.90784565       0.87808636       7.37329670
Si       0.87808636       3.90784565       7.37329670
Si       3.90784565       3.90784565       2.40586208
Si       0.87808636       0.87808636       2.40586208
Si       2.39296600       2.39296600       8.54612094
Si       2.39296600       2.39296600       1.23303784
