8
Lattice="4.9358564889614644 3.518780495353588e-16 1.1896157240709465e-16 9.06796381067287e-17 5.387882140935762 0.3836690615832829 -1.8084045753844944e-16 0.92260853874996 8.146316143647399" Properties=species:S:1:pos:R:3 unique_starting_index=34 config_type=initial n_minim_iter=1 energy=-1303.9090154471953 free_energy=-1303.9090154471953 pbc="T T T"
Si       1.32159430       2.72083849       5.17253798
Si       1.32159430       3.58965219       3.35744723
Si       0.10067804       5.41843115       8.09650848
Si       0.10067804       0.89205953       0.43347673
Si       3.61426219       1.35701539       7.23877077
Si       3.61426219       4.95347529       1.29121444
Si       4.83517845       4.04730487       4.69846933
Si       4.83517845       2.26318581       3.83151587
8
Lattice="4.9373446635694345 3.519977689518686e-16 1.1908074121841893e-16 9.06941908461362e-17 5.389669130487069 0.38472828560717526 -1.8083413310060168e-16 0.9244320038986742 8.147496458455748" Properties=species:S:1:pos:R:3 unique_starting_index=34 config_type=initial n_minim_iter=2 stress="0.0021333323725152057 1.13969217872505e-15 9.157676070600297e-16 1.13969217872505e-15 0.0008228310520366711 -0.002151257384084724 9.157676070600297e-16 -0.002151257384084724 0.001772524590219015" pbc="T T T"
Si       1.32203143       2.72267167       5.17365521
Si       1.32203143       3.59142946       3.35856954
Si       0.10074009       5.42160694       8.09848698
Si       0.10074009       0.89249420       0.43373777
Si       3.61531324       1.35881090       7.23995362
Si       3.61531324       4.95529024       1.29227112
Si       4.83660457       4.04954476       4.69985014
Si       4.83660457       2.26455637       3.83237460
8
Lattice="4.937310908845811 3.519578921171211e-16 1.1955049370083023e-16 9.04606435249154e-17 5.391543866562415 0.3886007484160074 -1.8048931104093663e-16 0.930671583265167 8.146604636665389" Properties=species:S:1:pos:R:3 unique_starting_index=34 config_type=initial n_minim_iter=3 stress="0.0008353488080858189 -1.509442883191958e-15 1.0826073053560754e-15 -1.509442883191958e-15 0.0005289283019688847 -0.0005771011806267129 1.0826073053560754e-15 -0.0005771011806267129 0.0008463265578731917" pbc="T T T"
Si       1.32202367       2.72732141       5.17444983
Si       1.32202367       3.59489404       3.36075555
Si       0.10072073       5.42900147       8.10077800
Si       0.10072073       0.89321398       0.43442739
Si       3.61528723       1.36445789       7.23975749
Si       3.61528723       4.95775756       1.29544789
Si       4.83659018       4.05432170       4.70203008
Si       4.83659018       2.26789375       3.83317531
8
Lattice="4.937786110892322 3.5190647275973144e-16 1.1965206560732632e-16 9.044144099812545e-17 5.391196392328855 0.3887861774509087 -1.8031209385459254e-16 0.9310879737755824 8.14385882717859" Properties=species:S:1:pos:R:3 unique_starting_index=34 config_type=initial n_minim_iter=4 stress="0.0008260139221998913 -2.3549543563846202e-15 -2.262331100213264e-16 -2.3549543563846202e-15 0.0008138553624385765 -0.0005952927030937893 -2.262331100213264e-16 -0.0005952927030937893 -0.0009770229063992325" pbc="T T T"
Si       1.32220139       2.72724335       5.17250428
Si       1.32220139       3.59504101       3.36014072
Si       0.10074406       5.42870653       8.09818640
Si       0.10074406       0.89357783       0.43445860
Si       3.61558472       1.36498680       7.23767705
Si       3.61558472       4.95729756       1.29496796
Si       4.83704205       4.05472001       4.70078110
Si       4.83704205       2.26756435       3.83186390
8
Lattice="4.937384817994106 3.5153575630234444e-16 1.1969124669876865e-16 9.026294227762286e-17 5.3872420153690275 0.39091688629312915 -1.8058940293103227e-16 0.9332363813983856 8.149420179504032" Properties=species:S:1:pos:R:3 unique_starting_index=34 config_type=initial n_minim_iter=5 stress="7.536620106005192e-05 -2.8185631345255313e-15 5.173724766963881e-16 -2.8185631345255313e-15 -0.0010131840029406862 0.0007253024279298346 5.173724766963881e-16 0.0007253024279298346 -0.0005809709958428189" pbc="T T T"
Si       1.32211742       2.72653954       5.17599908
Si       1.32211742       3.59393886       3.36433798
Si       0.10064373       5.42640501       8.10474646
Si       0.10064373       0.89407338       0.43559061
Si       3.61526740       1.36693604       7.24358963
Si       3.61526740       4.95354235       1.29674744
Si       4.83674109       4.05431258       4.70575914
Si       4.83674109       2.26616581       3.83457792
8
Lattice="4.934768426588119 3.5172980611634895e-16 1.195281140171549e-16 9.030986926128674e-17 5.388792277365488 0.3906531183488545 -1.8079006776931508e-16 0.9328304535098361 8.153248060511071" Properties=species:S:1:pos:R:3 unique_starting_index=34 config_type=initial n_minim_iter=6 stress="-0.0011164374502256524 -3.484671304763619e-16 9.792449163895836e-16 -3.484671304763619e-16 -7.498195324956586e-05 0.0007803391649604486 9.792449163895836e-16 0.0007803391649604486 -0.0004585568088644657" pbc="T T T"
Si       1.32128335       2.72660563       5.17774532
Si       1.32128335       3.59501710       3.36615586
Si       0.10036673       5.42675992       8.10786919
Si       0.10036673       0.89486281       0.43603199
Si       3.61348508       1.36703619       7.24745333
Si       3.61348508       4.95458654       1.29644785
Si       4.83440170       4.05567418       4.70798258
Si       4.83440170       2.26594855       3.83591860
8
Lattice="4.936800229057079 3.5161326332727514e-16 1.1929345909889253e-16 9.043928743979149e-17 5.386373230276098 0.38795761833485226 -1.8100570837408053e-16 0.9281451584173106 8.155994148428864" Properties=species:S:1:pos:R:3 unique_starting_index=34 config_type=initial n_minim_iter=7 stress="-0.0003722267912545148 4.813630285014755e-16 1.7796431816357994e-15 4.813630285014755e-16 -0.00010639367974979615 0.0003417381494696352 1.7796431816357994e-15 0.0003417381494696352 -0.0001539640422665758" pbc="T T T"
Si       1.32150662       2.72242170       5.17746413
Si       1.32150662       3.59209669       3.36648764
Si       0.09975112       5.41966004       8.10751742
Si       0.09975112       0.89485835       0.43643434
Si       3.61529361       1.36298265       7.25050590
Si       3.61529361       4.95153574       1.29344586
Si       4.83704911       4.05211754       4.70841023
Si       4.83704911       2.26240084       3.83554154
8
Lattice="4.936692773930197 3.515559439753216e-16 1.1907302231464296e-16 9.056833459391721e-17 5.384310597570119 0.3853201778147909 -1.8107216997875724e-16 0.9237842865777266 8.156274172754058" Properties=species:S:1:pos:R:3 unique_starting_index=34 config_type=initial n_minim_iter=8 stress="0.00018720362216884264 -1.7379974804775909e-15 2.008883983923608e-15 -1.7379974804775909e-15 -1.55737244285059e-05 -0.00023611521756931994 2.008883983923608e-15 -0.00023611521756931994 0.00023298989329281346" pbc="T T T"
Si       1.32157293       2.71842602       5.17629961
Si       1.32157293       3.58966887       3.36529475
Si       0.09924857       5.41310073       8.10448832
Si       0.09924857       0.89499416       0.43710603
Si       3.61511984       1.35940571       7.25077174
Si       3.61511984       4.94868917       1.29082261
Si       4.83744420       4.04904160       4.70790321
Si       4.83744420       2.25905328       3.83369114
8
Lattice="4.938194700030757 3.516364044819532e-16 1.1896267489293494e-16 9.074033999577455e-17 5.384382783521654 0.3824085353116919 -1.8091508847302742e-16 0.9196412472219918 8.152806722986703" Properties=species:S:1:pos:R:3 unique_starting_index=34 config_type=initial n_minim_iter=9 stress="0.00043761560381757036 -3.5262485891249096e-16 1.7541215186074232e-15 -3.5262485891249096e-16 0.00014084681168913724 -0.00023431381067055132 1.7541215186074232e-15 -0.00023431381067055132 0.00013917454616457563" pbc="T T T"
Si       1.32228842       2.71530119       5.17265726
Si       1.32228842       3.58872284       3.36255800
Si       0.09784994       5.40886516       8.09655773
Si       0.09784994       0.89515887       0.43865752
Si       3.61590628       1.35635207       7.24775709
Si       3.61590628       4.94767196       1.28745816
Si       4.84034476       4.04717089       4.70626515
Si       4.84034476       2.25685314       3.82895010
8
Lattice="4.937279124221034 3.517396399554387e-16 1.1911050162574782e-16 9.067268535652289e-17 5.386305667929905 0.3839791314290447 -1.8078071744933173e-16 0.9224587027393013 8.151212963557535" Properties=species:S:1:pos:R:3 unique_starting_index=34 config_type=initial n_minim_iter=10 stress="-0.0004592355974656822 -1.2419668558089107e-15 -8.028283385858255e-16 -1.2419668558089107e-15 -0.00014611494031734577 0.00025512121217785756 -8.028283385858255e-16 0.00025512121217785756 -0.00021096728516954065" pbc="T T T"
Si       1.32291730       2.71751322       5.17253150
Si       1.32291730       3.59125115       3.36266059
Si       0.09729853       5.41391564       8.09621213
Si       0.09729853       0.89484873       0.43897996
Si       3.61436183       1.35932767       7.24627751
Si       3.61436183       4.94943670       1.28891459
Si       4.83998060       4.04923092       4.70657601
Si       4.83998060       2.25953345       3.82861609
8
Lattice="4.937042623749651 3.5169312218299184e-16 1.1897324478087031e-16 9.07055136300425e-17 5.385197697673581 0.3831660504998699 -1.8095816420257997e-16 0.9208452897843682 8.153941986645536" Properties=species:S:1:pos:R:3 unique_starting_index=34 config_type=initial n_minim_iter=11 stress="7.9905651886136e-05 -1.6134119851910885e-15 4.913288328167814e-16 -1.6134119851910885e-15 8.272900806952806e-05 1.9141913319108753e-06 4.913288328167814e-16 1.9141913319108753e-06 -3.915648579941287e-05" pbc="T T T"
Si       1.32419683       2.71514765       5.17307842
Si       1.32419683       3.59089534       3.36402962
Si       0.09596924       5.41163385       8.09751234
Si       0.09596924       0.89440914       0.43959570
Si       3.61284579       1.35871914       7.24941759
Si       3.61284579       4.94732385       1.28769045
Si       4.84107339       4.04743063       4.70814972
Si       4.84107339       2.25861235       3.82895832
8
Lattice="4.936308696497249 3.5171217232952406e-16 1.1887498143006116e-16 9.074942325212365e-17 5.384861907314599 0.3823252375643017 -1.8100822484393603e-16 0.9194679104679175 8.154624414298388" Properties=species:S:1:pos:R:3 unique_starting_index=34 config_type=initial n_minim_iter=12 stress="-9.192862552038816e-05 5.942214131579252e-16 -6.684103470587653e-16 5.942214131579252e-16 -0.00017438741604204508 -7.691469842980841e-06 -6.684103470587653e-16 -7.691469842980841e-06 0.00011645143776116727" pbc="T T T"
Si       1.32447173       2.71436224       5.17310445
Si       1.32447173       3.58996758       3.36384520
Si       0.09563975       5.40988360       8.09732976
Si       0.09563975       0.89444622       0.43961989
Si       3.61183697       1.35727058       7.24999479
Si       3.61183697       4.94705924       1.28695486
Si       4.84066895       4.04661113       4.70809472
Si       4.84066895       2.25771869       3.82885494
