22
Lattice="4.651940551574415 0.542808225999115 2.55188586356657 2.7168808236623905 6.664192863065953 2.182983197024544 8.654012804901322 0.7749676153501968 32.986139040140465" Properties=species:S:1:pos:R:3 unique_starting_index=40 config_type=initial n_minim_iter=1 energy=-4076.472757910757 free_energy=-4076.472757910757 pbc="T T T"
Si      12.84474821       4.41033103      33.03631160
Si       4.27994065       3.49054634      10.52296543
Si       8.30353298       1.16490028      17.67851080
Si       8.53646966       3.10687342      30.02020128
Si      10.54082715       3.91730687      31.76764385
Si       8.93657907       6.69254388      18.32807677
Si       4.64807621       2.40745576      10.08671304
Si       8.48763338       6.47062979      19.19314758
Si       3.72071654       2.59936948       1.12795348
Si      12.42085969       4.29314764      33.83437266
Si       8.75079407       1.93737184      24.79733621
Si       7.35740767       4.83770598      24.16088550
Si       1.48929244       2.87640438      -0.43729514
Si       5.56920972       0.77299228      17.17240996
Si      10.52058519       3.03955988      31.99172054
Si      11.12153362       6.85055750      19.88486297
Si       6.89480079       3.93834490      11.23423726
Si       8.73183257       7.64483043      18.49808348
Si       4.87910245       3.41889254       9.44549521
Si       7.94631634       0.65055788      18.43883901
Si      12.81872353       3.27852217      33.32445871
Si       6.95462251       2.86729785      11.35441709
22
Lattice="4.651951727128334 0.5427382270437834 2.5518919036833787 2.7167484533977806 6.6640915351591685 2.183080318063425 8.653975826343286 0.7752460307888341 32.98624194539301" Properties=species:S:1:pos:R:3 unique_starting_index=40 config_type=initial n_minim_iter=2 stress="7.590952127830131e-05 1.3273236591558644e-05 4.198554245017018e-05 1.3273236591558644e-05 -1.6828391648449957e-05 2.457301607684573e-05 4.198554245017018e-05 2.457301607684573e-05 1.9008171779051278e-05" pbc="T T T"
Si      12.84468066       4.41051029      33.03649221
Si       4.27987922       3.49052666      10.52302537
Si       8.30351514       1.16496557      17.67859975
Si       8.53642242       3.10707599      30.02027667
Si      10.54071534       3.91750811      31.76781584
Si       8.93645019       6.69254579      18.32818254
Si       4.64803354       2.40749675      10.08678408
Si       8.48748954       6.47065352      19.19330178
Si       3.72068621       2.59928900       1.12794694
Si      12.42078535       4.29330951      33.83451349
Si       8.75076012       1.93751166      24.79742202
Si       7.35730111       4.83778886      24.16100680
Si       1.48926467       2.87632014      -0.43724461
Si       5.56918715       0.77309731      17.17248129
Si      10.52049517       3.03977590      31.99181945
Si      11.12142784       6.85053901      19.88497728
Si       6.89473200       3.93833311      11.23431399
Si       8.73169349       7.64482341      18.49823037
Si       4.87902188       3.41885812       9.44558112
Si       7.94629510       0.65068443      18.43887784
Si      12.81858186       3.27866417      33.32465467
Si       6.95457448       2.86728409      11.35448906
22
Lattice="4.651939042989708 0.5427335110671885 2.5518849237095433 2.716734881647773 6.664089945583962 2.183073605840246 8.653918267726981 0.7752268724403573 32.9862162752621" Properties=species:S:1:pos:R:3 unique_starting_index=40 config_type=initial n_minim_iter=3 stress="-0.00015462062665422673 -1.3619065427657083e-05 -8.267349112604318e-05 -1.3619065427657083e-05 -2.4081811907416825e-05 1.0136775600422941e-05 -8.267349112604318e-05 1.0136775600422941e-05 -5.303623026958032e-05" pbc="T T T"
Si      12.84461284       4.41048869      33.03646039
Si       4.27985565       3.49051826      10.52301351
Si       8.30347647       1.16495307      17.67858220
Si       8.53636675       3.10705819      30.02025131
Si      10.54065292       3.91748996      31.76778862
Si       8.93640489       6.69253341      18.32815994
Si       4.64801023       2.40749053      10.08677364
Si       8.48744356       6.47064099      19.19328061
Si       3.72067488       2.59928647       1.12794098
Si      12.42071723       4.29328781      33.83448163
Si       8.75071170       1.93749539      24.79739930
Si       7.35725370       4.83777238      24.16098456
Si       1.48925969       2.87631858      -0.43724660
Si       5.56915480       0.77308619      17.17246696
Si      10.52043277       3.03975652      31.99179011
Si      11.12137629       6.85052449      19.88495129
Si       6.89470158       3.93832498      11.23429905
Si       8.73164819       7.64481109      18.49820873
Si       4.87899738       3.41885024       9.44557032
Si       7.94625639       0.65067232      18.43885930
Si      12.81851232       3.27864170      33.32462279
Si       6.95454447       2.86727501      11.35447480
22
Lattice="4.65196028022534 0.5425278826594612 2.551895501236563 2.716534082550997 6.664133959970583 2.182924953551251 8.653886247927653 0.7741031566103703 32.9866599707062" Properties=species:S:1:pos:R:3 unique_starting_index=40 config_type=initial n_minim_iter=4 stress="5.73310859071468e-05 -2.259048952877535e-05 -9.999868210018845e-05 -2.259048952877535e-05 0.00020615151659085428 -7.4138549026143695e-06 -9.999868210018845e-05 -7.4138549026143695e-06 0.00016291889725660657" pbc="T T T"
Si      12.84457335       4.40933310      33.03679905
Si       4.27978524       3.49009035      10.52302605
Si       8.30347446       1.16430036      17.67884237
Si       8.53624699       3.10606136      30.02059553
Si      10.54055144       3.91652757      31.76821077
Si       8.93622300       6.69197270      18.32816900
Si       4.64795020       2.40719338      10.08688803
Si       8.48721626       6.47005554      19.19337512
Si       3.72058272       2.59923287       1.12790249
Si      12.42065650       4.29213417      33.83484303
Si       8.75069072       1.93659645      24.79767845
Si       7.35712066       4.83687069      24.16115321
Si       1.48915302       2.87628514      -0.43728782
Si       5.56913853       0.77245839      17.17271252
Si      10.52032030       3.03868776      31.99209167
Si      11.12120189       6.84986942      19.88497043
Si       6.89461009       3.93797402      11.23433836
Si       8.73147159       7.64426437      18.49826850
Si       4.87886700       3.41847137       9.44564592
Si       7.94625170       0.65001316      18.43907515
Si      12.81838149       3.27743535      33.32494978
Si       6.95447311       2.86684806      11.35457046
22
Lattice="4.651974089164169 0.5424043748664982 2.5519147458355422 2.716460622105028 6.6638598766798856 2.182825794107608 8.654524356307798 0.7734778596479688 32.985887823044706" Properties=species:S:1:pos:R:3 unique_starting_index=40 config_type=initial n_minim_iter=5 stress="-1.0663660564900933e-05 -5.8643639150695446e-06 2.5468350600372028e-05 -5.8643639150695446e-06 -2.5546364189953604e-05 6.28795878783672e-06 2.5468350600372028e-05 6.28795878783672e-06 -4.3359341503635256e-05" pbc="T T T"
Si      12.84517297       4.40853201      33.03606400
Si       4.27994924       3.48969812      10.52274351
Si       8.30378453       1.16392048      17.67852736
Si       8.53677206       3.10539757      30.01988310
Si      10.54110201       3.91585273      31.76752534
Si       8.93645006       6.69138863      18.32770585
Si       4.64809712       2.40693454      10.08669041
Si       8.48744443       6.46946646      19.19290519
Si       3.72051234       2.59910048       1.12792505
Si      12.42126614       4.29134292      33.83407981
Si       8.75115065       1.93603868      24.79711958
Si       7.35753133       4.83615358      24.16052015
Si       1.48907999       2.87612919      -0.43725732
Si       5.56946371       0.77209755      17.17234172
Si      10.52087517       3.03800739      31.99131064
Si      11.12143968       6.84923772      19.88450121
Si       6.89474678       3.93762417      11.23410598
Si       8.73171898       7.64363990      18.49782850
Si       4.87896094       3.41811449       9.44545492
Si       7.94658067       0.64964553      18.43869561
Si      12.81892892       3.27666583      33.32419583
Si       6.95461458       2.86650922      11.35436742
22
Lattice="4.651986430298552 0.5421973027357906 2.5519368691895377 2.7163356839598096 6.663618102624987 2.1825962765762887 8.65450373907407 0.7719546195529943 32.9865143508985" Properties=species:S:1:pos:R:3 unique_starting_index=40 config_type=initial n_minim_iter=6 stress="-7.802429887220225e-06 8.068563748490146e-05 -3.69192129884398e-05 8.068563748490146e-05 -0.00011100609383133149 -1.944160836104395e-05 -3.69192129884398e-05 -1.944160836104395e-05 0.00011707634265222444" pbc="T T T"
Si      12.84519276       4.40686953      33.03652342
Si       4.27991768       3.48899995      10.52280440
Si       8.30383208       1.16313469      17.67884771
Si       8.53669416       3.10394004      30.02037527
Si      10.54094530       3.91437594      31.76811066
Si       8.93629683       6.69039542      18.32775448
Si       4.64803441       2.40639670      10.08684132
Si       8.48726662       6.46843549      19.19291138
Si       3.72037154       2.59898922       1.12784757
Si      12.42122938       4.28968444      33.83458217
Si       8.75116677       1.93478747      24.79750924
Si       7.35748006       4.83463339      24.16072463
Si       1.48906326       2.87595975      -0.43728151
Si       5.56949130       0.77131969      17.17267350
Si      10.52084336       3.03656841      31.99166384
Si      11.12126681       6.84819079      19.88452999
Si       6.89471281       3.93702308      11.23417030
Si       8.73163385       7.64263333      18.49795051
Si       4.87888396       3.41749174       9.44552773
Si       7.94659292       0.64873410      18.43904044
Si      12.81884952       3.27499890      33.32474316
Si       6.95453772       2.86593115      11.35449812
22
Lattice="4.6520259728286035 0.5419921355456097 2.551908174249449 2.7161146578930375 6.663691755853223 2.182465290541771 8.65493338261396 0.7711512186899433 32.98560290133483" Properties=species:S:1:pos:R:3 unique_starting_index=40 config_type=initial n_minim_iter=7 stress="1.3558008455707081e-05 -5.321579053104707e-05 2.561903781079294e-05 -5.321579053104707e-05 9.486898328629549e-05 -2.159106399547403e-05 2.561903781079294e-05 -2.159106399547403e-05 -8.522012972204407e-05" pbc="T T T"
Si      12.84552987       4.40602018      33.03561037
Si       4.27994908       3.48872694      10.52249468
Si       8.30407989       1.16264464      17.67840293
Si       8.53698407       3.10323742      30.01952728
Si      10.54121539       3.91367679      31.76728579
Si       8.93629061       6.69000105      18.32718979
Si       4.64807400       2.40612346      10.08657864
Si       8.48727676       6.46803280      19.19226974
Si       3.72026172       2.59893787       1.12782358
Si      12.42157856       4.28885240      33.83363411
Si       8.75147621       1.93411293      24.79681948
Si       7.35765868       4.83395320      24.15996095
Si       1.48894550       2.87593654      -0.43724767
Si       5.56972956       0.77090504      17.17221608
Si      10.52121282       3.03582813      31.99068201
Si      11.12127846       6.84772937      19.88392248
Si       6.89475489       3.93673382      11.23385964
Si       8.73163243       7.64228512      18.49742021
Si       4.87889392       3.41722331       9.44525918
Si       7.94684715       0.64816424      18.43856279
Si      12.81919132       3.27410222      33.32386128
Si       6.95458210       2.86561809      11.35420987
22
Lattice="4.652017095375139 0.5418236331459686 2.551964159800097 2.715929819274578 6.663408533084236 2.1824608851560496 8.654925771318563 0.7706066309127726 32.98637501724736" Properties=species:S:1:pos:R:3 unique_starting_index=40 config_type=initial n_minim_iter=8 stress="-4.269667466587556e-05 6.741011812126245e-06 2.4320773054359748e-05 6.741011812126245e-06 1.0311650191345678e-05 4.3181865159613755e-05 2.4320773054359748e-05 4.3181865159613755e-05 4.150518390553133e-05" pbc="T T T"
Si      12.84544119       4.40526829      33.03636339
Si       4.27987653       3.48833265      10.52277521
Si       8.30409548       1.16233614      17.67883288
Si       8.53686866       3.10259939      30.02021426
Si      10.54111708       3.91317134      31.76818033
Si       8.93606180       6.68946317      18.32751491
Si       4.64795566       2.40575129      10.08682724
Si       8.48707871       6.46748791      19.19254999
Si       3.72014233       2.59884195       1.12784457
Si      12.42155531       4.28814361      33.83439923
Si       8.75149333       1.93353990      24.79736010
Si       7.35759832       4.83297531      24.16038661
Si       1.48878742       2.87566318      -0.43721766
Si       5.56976515       0.77065393      17.17264917
Si      10.52121677       3.03524760      31.99121129
Si      11.12104932       6.84718642      19.88426572
Si       6.89470026       3.93636269      11.23411071
Si       8.73145931       7.64172809      18.49785379
Si       4.87883158       3.41682630       9.44545790
Si       7.94684019       0.64774136      18.43896731
Si      12.81905027       3.27335962      33.32468456
Si       6.95444592       2.86533264      11.35448075
22
Lattice="4.652137488691999 0.541573332313505 2.551800658241144 2.7158178190013165 6.663048327970418 2.1820763307428 8.65458303953193 0.7689166238703302 32.98557809396199" Properties=species:S:1:pos:R:3 unique_starting_index=40 config_type=initial n_minim_iter=9 stress="0.00019683544529817403 -6.601701874927506e-05 -0.00012282236108730177 -6.601701874927506e-05 -0.000145950522264517 -0.00010696143008517546 -0.00012282236108730177 -0.00010696143008517546 -7.758281162090151e-05" pbc="T T T"
Si      12.84520694       4.40336559      33.03533455
Si       4.27975017       3.48763545      10.52242069
Si       8.30403390       1.16138322      17.67832678
Si       8.53650632       3.10093607      30.01940813
Si      10.54073181       3.91154610      31.76734141
Si       8.93585929       6.68830441      18.32666198
Si       4.64781603       2.40501361      10.08645425
Si       8.48685516       6.46628985      19.19170465
Si       3.72016503       2.59869139       1.12765629
Si      12.42127924       4.28627075      33.83334920
Si       8.75133354       1.93211409      24.79663725
Si       7.35732987       4.83123581      24.15951349
Si       1.48878477       2.87541178      -0.43733135
Si       5.56961728       0.76977707      17.17221614
Si      10.52094276       3.03353575      31.99016620
Si      11.12091050       6.84591782      19.88333878
Si       6.89468463       3.93559385      11.23361534
Si       8.73123362       7.64052439      18.49702765
Si       4.87879052       3.41613747       9.44504184
Si       7.94676729       0.64669420      18.43841970
Si      12.81874716       3.27147178      33.32371566
Si       6.95436256       2.86461744      11.35403247
22
Lattice="4.652091834631804 0.5414041512039748 2.5519175902511613 2.7156820689136953 6.663050934434693 2.1819328505633013 8.655234160820498 0.7676370863201392 32.9859685898067" Properties=species:S:1:pos:R:3 unique_starting_index=40 config_type=initial n_minim_iter=10 stress="-3.9183967452824186e-05 9.843174150584065e-06 3.995771181148899e-05 9.843174150584065e-06 2.198153508039677e-05 -7.893039619652907e-05 3.995771181148899e-05 -7.893039619652907e-05 3.459831981243436e-05" pbc="T T T"
Si      12.84578653       4.40208115      33.03573875
Si       4.27988193       3.48723398      10.52264239
Si       8.30425461       1.16079725      17.67867748
Si       8.53698865       3.09971600      30.01978567
Si      10.54108566       3.91066614      31.76790065
Si       8.93598123       6.68779359      18.32664325
Si       4.64779499       2.40438187      10.08655283
Si       8.48704250       6.46571288      19.19172590
Si       3.71999895       2.59878663       1.12772761
Si      12.42186036       4.28509407      33.83371386
Si       8.75184063       1.93100382      24.79690467
Si       7.35782268       4.82958486      24.15949959
Si       1.48875338       2.87512961      -0.43731095
Si       5.56991941       0.76918855      17.17247751
Si      10.52153454       3.03240898      31.99023636
Si      11.12105327       6.84533241      19.88338616
Si       6.89483918       3.93519186      11.23376260
Si       8.73136123       7.64000241      18.49712086
Si       4.87896507       3.41568572       9.44511039
Si       7.94707650       0.64590550      18.43865812
Si      12.81913829       3.27014643      33.32416589
Si       6.95432203       2.86422836      11.35422621
22
Lattice="4.6521459890020065 0.541432378859151 2.5518106729364414 2.715597215060971 6.663056735754408 2.182126210653836 8.654885654999962 0.7688960992694648 32.98514628206529" Properties=species:S:1:pos:R:3 unique_starting_index=40 config_type=initial n_minim_iter=11 stress="6.143625013779223e-05 4.3287353528302655e-05 -5.1629910862904406e-05 4.3287353528302655e-05 2.7409962377510522e-05 9.547897064169015e-05 -5.1629910862904406e-05 9.547897064169015e-05 -7.00130743604248e-05" pbc="T T T"
Si      12.84550231       4.40324229      33.03497886
Si       4.27976903       3.48759738      10.52256395
Si       8.30409071       1.16149249      17.67825660
Si       8.53661357       3.10079735      30.01916973
Si      10.54068701       3.91193986      31.76733010
Si       8.93579442       6.68847220      18.32633276
Si       4.64763256       2.40461553      10.08634894
Si       8.48681705       6.46641523      19.19141211
Si       3.71998935       2.59884457       1.12779403
Si      12.42151837       4.28637211      33.83298369
Si       8.75164865       1.93182831      24.79629563
Si       7.35758488       4.83007113      24.15897408
Si       1.48875931       2.87492727      -0.43715281
Si       5.56973501       0.76986334      17.17205321
Si      10.52126873       3.03366896      31.98934596
Si      11.12088654       6.84600211      19.88296399
Si       6.89479240       3.93555475      11.23359234
Si       8.73112292       7.64067167      18.49691512
Si       4.87891249       3.41593532       9.44499793
Si       7.94695780       0.64657833      18.43816196
Si      12.81879760       3.27133225      33.32338997
Si       6.95418800       2.86457594      11.35401788
22
Lattice="4.652121318152994 0.5412742595179798 2.55188784753188 2.7154173658687943 6.662868470032519 2.1821209381753794 8.655133555915818 0.7683390753460242 32.98567874693348" Properties=species:S:1:pos:R:3 unique_starting_index=40 config_type=initial n_minim_iter=12 stress="-1.1818993693040923e-05 -0.00012987719562371582 1.7219127833548992e-05 -0.00012987719562371582 -6.648296794420347e-05 2.538440213437257e-05 1.7219127833548992e-05 2.538440213437257e-05 9.615918179475011e-05" pbc="T T T"
Si      12.84562477       4.40250640      33.03548518
Si       4.27976699       3.48734382      10.52275230
Si       8.30413162       1.16114222      17.67860197
Si       8.53674407       3.10022762      30.01964947
Si      10.54078064       3.91136882      31.76789823
Si       8.93574544       6.68802624      18.32657659
Si       4.64759495       2.40430575      10.08650041
Si       8.48677709       6.46595935      19.19168275
Si       3.71989966       2.59875239       1.12785181
Si      12.42164156       4.28570654      33.83354901
Si       8.75180567       1.93127293      24.79670298
Si       7.35768810       4.82931432      24.15927548
Si       1.48865616       2.87475782      -0.43713230
Si       5.56983081       0.76956265      17.17233926
Si      10.52148528       3.03310083      31.98976496
Si      11.12083512       6.84544389      19.88321213
Si       6.89477275       3.93522111      11.23378728
Si       8.73101824       7.64020185      18.49718587
Si       4.87890050       3.41563252       9.44517253
Si       7.94707651       0.64619452      18.43850067
Si      12.81893723       3.27061780      33.32398536
Si       6.95413765       2.86421625      11.35423851
22
Lattice="4.652150983577161 0.5413892642475066 2.5518059263632993 2.71568061127517 6.6630430656381 2.1818657561802812 8.655338453901683 0.767737518032356 32.98450978550534" Properties=species:S:1:pos:R:3 unique_starting_index=40 config_type=initial n_minim_iter=13 stress="1.3843449434126985e-06 1.2900539120264758e-05 7.48042310551983e-06 1.2900539120264758e-05 2.2587088266878506e-05 -2.255108250509392e-05 7.48042310551983e-06 -2.255108250509392e-05 -1.7399323134678314e-05" pbc="T T T"
Si      12.84596920       4.40211067      33.03418663
Si       4.27999060       3.48729765      10.52232201
Si       8.30420610       1.16106284      17.67802705
Si       8.53699704       3.09975133      30.01851937
Si      10.54104040       3.91104796      31.76676938
Si       8.93611220       6.68807610      18.32571954
Si       4.64768551       2.40418544      10.08607297
Si       8.48712370       6.46593024      19.19081730
Si       3.72000102       2.59898971       1.12779017
Si      12.42197382       4.28538571      33.83228277
Si       8.75204079       1.93083820      24.79580187
Si       7.35807151       4.82860352      24.15821482
Si       1.48872384       2.87474744      -0.43712713
Si       5.56993216       0.76933508      17.17173026
Si      10.52184726       3.03272797      31.98843734
Si      11.12122643       6.84548525      19.88225456
Si       6.89501605       3.93525860      11.23331564
Si       8.73137443       7.64023595      18.49634701
Si       4.87909997       3.41556774       9.44481891
Si       7.94720164       0.64599349      18.43786897
Si      12.81922282       3.27019916      33.32284538
Si       6.95425785       2.86414960      11.35381942
22
Lattice="4.652168031070164 0.5415318215599247 2.5517446518435167 2.7158866855660144 6.663060857372324 2.1818243285182173 8.655243260771863 0.7680308707820618 32.983929977126145" Properties=species:S:1:pos:R:3 unique_starting_index=40 config_type=initial n_minim_iter=14 stress="1.773500328584762e-07 -6.779097939187432e-06 9.044492512939916e-07 -6.779097939187432e-06 -1.1584723584542095e-05 1.0146506248939603e-05 9.044492512939916e-07 1.0146506248939603e-05 -1.1996629588995867e-06" pbc="T T T"
Si      12.84593580       4.40247598      33.03359476
Si       4.28013606       3.48745039      10.52210981
Si       8.30409377       1.16142223      17.67779717
Si       8.53698796       3.09995252      30.01796926
Si      10.54089755       3.91154481      31.76630268
Si       8.93625042       6.68845802      18.32530465
Si       4.64768986       2.40431646      10.08586524
Si       8.48730390       6.46623612      19.19041446
Si       3.72005908       2.59923290       1.12785022
Si      12.42197346       4.28590868      33.83163643
Si       8.75206027       1.93092353      24.79537759
Si       7.35826387       4.82817762      24.15764926
Si       1.48879334       2.87460974      -0.43698403
Si       5.56988501       0.76960306      17.17145665
Si      10.52197760       3.03313406      31.98768092
Si      11.12146712       6.84595809      19.88177929
Si       6.89514992       3.93540779      11.23310992
Si       8.73146994       7.64058804      18.49599677
Si       4.87916361       3.41561296       9.44477094
Si       7.94713708       0.64623510      18.43750186
Si      12.81927621       3.27057763      33.32228856
Si       6.95428025       2.86421294      11.35367623
22
Lattice="4.652191143712063 0.5416943038919557 2.5516713263137634 2.7161700379516 6.663240858799691 2.1816557060802784 8.655072508938304 0.7678057196351623 32.98346904381629" Properties=species:S:1:pos:R:3 unique_starting_index=40 config_type=initial n_minim_iter=15 stress="-5.29071202755362e-06 1.1977670208908833e-05 1.039149162627688e-06 1.1977670208908833e-05 1.1329211647517315e-05 -2.1283224675739753e-05 1.039149162627688e-06 -2.1283224675739753e-05 4.817474871526575e-07" pbc="T T T"
Si      12.84587510       4.40245066      33.03300014
Si       4.28028375       3.48754810      10.52183454
Si       8.30390796       1.16162076      17.67755595
Si       8.53695458       3.09973857      30.01746114
Si      10.54074446       3.91164317      31.76600790
Si       8.93645211       6.68876538      18.32486577
Si       4.64775845       2.40442238      10.08567947
Si       8.48757207       6.46643218      19.18994298
Si       3.72019806       2.59961205       1.12781414
Si      12.42191754       4.28599759      33.83107426
Si       8.75204111       1.93062301      24.79502253
Si       7.35847374       4.82745495      24.15707172
Si       1.48894584       2.87457366      -0.43702430
Si       5.56976523       0.76964023      17.17121589
Si      10.52201735       3.03316384      31.98706858
Si      11.12169675       6.84638759      19.88122112
Si       6.89528516       3.93541768      11.23284859
Si       8.73160716       7.64090377      18.49557940
Si       4.87921127       3.41562826       9.44466774
Si       7.94706771       0.64618883      18.43723000
Si      12.81922894       3.27056271      33.32176411
Si       6.95435374       2.86422697      11.35352852
22
Lattice="4.652213240165207 0.5418126376689478 2.551610361693414 2.7163026840228803 6.663332020657336 2.181674908646267 8.654845559099428 0.7682966500057617 32.98310116549361" Properties=species:S:1:pos:R:3 unique_starting_index=40 config_type=initial n_minim_iter=16 stress="-2.6349944816082154e-06 -1.0204484537760434e-06 -4.2411238926100295e-06 -1.0204484537760434e-06 2.04077956716669e-06 7.681998682766967e-06 -4.2411238926100295e-06 7.681998682766967e-06 1.1428800024359003e-06" pbc="T T T"
Si      12.84576554       4.40298152      33.03261732
Si       4.28030418       3.48779013      10.52169434
Si       8.30372015       1.16212729      17.67738216
Si       8.53681590       3.10015584      30.01716377
Si      10.54046423       3.91231647      31.76576063
Si       8.93647673       6.68927123      18.32465626
Si       4.64780312       2.40466991      10.08560953
Si       8.48764869       6.46688172      19.18969286
Si       3.72032843       2.59987252       1.12779113
Si      12.42177050       4.28667149      33.83072863
Si       8.75194610       1.93080030      24.79477548
Si       7.35852905       4.82729000      24.15670522
Si       1.48896926       2.87451074      -0.43695422
Si       5.56959900       0.76998280      17.17100599
Si      10.52189106       3.03372867      31.98658854
Si      11.12177166       6.84698565      19.88090130
Si       6.89530955       3.93549644      11.23270610
Si       8.73155945       7.64139678      18.49541308
Si       4.87917727       3.41577609       9.44461022
Si       7.94699800       0.64648579      18.43703250
Si      12.81908611       3.27118386      33.32141442
Si       6.95438597       2.86440578      11.35347098
22
Lattice="4.652239519482925 0.5419118263590232 2.5515470436912726 2.716446271442844 6.663412647503578 2.181628849824559 8.654664736683513 0.7684714718453987 32.98269438928844" Properties=species:S:1:pos:R:3 unique_starting_index=40 config_type=initial n_minim_iter=17 stress="-5.022206191024761e-06 6.116601440221166e-06 -1.3436258423072037e-06 6.116601440221166e-06 -3.64466254436063e-06 -5.034520746201358e-06 -1.3436258423072037e-06 -5.034520746201358e-06 -4.748661727423467e-06" pbc="T T T"
Si      12.84566841       4.40318601      33.03215670
Si       4.28030817       3.48794014      10.52153116
Si       8.30354684       1.16251002      17.67722123
Si       8.53667075       3.10029818      30.01681415
Si      10.54031769       3.91267406      31.76542950
Si       8.93652355       6.68964109      18.32434921
Si       4.64790412       2.40481833      10.08555070
Si       8.48773979       6.46717917      19.18937875
Si       3.72043706       2.60008964       1.12770793
Si      12.42163986       4.28708569      33.83027348
Si       8.75188545       1.93068671      24.79450699
Si       7.35864186       4.82685547      24.15625717
Si       1.48905779       2.87446850      -0.43683624
Si       5.56948112       0.77014173      17.17078708
Si      10.52187795       3.03401507      31.98608154
Si      11.12189171       6.84742790      19.88048910
Si       6.89533808       3.93543505      11.23250630
Si       8.73155143       7.64172257      18.49516570
Si       4.87915984       3.41585550       9.44444902
Si       7.94692742       0.64661884      18.43678161
Si      12.81892940       3.27150877      33.32099203
Si       6.95446321       2.86448404      11.35339382
22
Lattice="4.652267925017574 0.5420069403041196 2.5514788490664206 2.7165536259213714 6.663556191247128 2.1816229095238246 8.654364407333947 0.7688127871386508 32.982412989652104" Properties=species:S:1:pos:R:3 unique_starting_index=40 config_type=initial n_minim_iter=18 stress="-1.7547286933677414e-06 1.0261185913849216e-06 -7.570492928664309e-06 1.0261185913849216e-06 9.33785919894656e-06 -3.94893117560228e-08 -7.570492928664309e-06 -3.94893117560228e-08 7.2885511022935815e-06" pbc="T T T"
Si      12.84544630       4.40358837      33.03185120
Si       4.28022434       3.48816972      10.52144738
Si       8.30327451       1.16301649      17.67717776
Si       8.53640792       3.10060100      30.01657474
Si      10.54001267       3.91315008      31.76523798
Si       8.93648185       6.69019156      18.32410063
Si       4.64800813       2.40501497      10.08559061
Si       8.48771982       6.46763288      19.18916902
Si       3.72053932       2.60030120       1.12768340
Si      12.42141369       4.28778379      33.82996762
Si       8.75173850       1.93057923      24.79436283
Si       7.35869322       4.82643394      24.15588572
Si       1.48910146       2.87441433      -0.43680216
Si       5.56933422       0.77038998      17.17066957
Si      10.52168557       3.03456474      31.98568138
Si      11.12192093       6.84807469      19.88012013
Si       6.89530532       3.93541535      11.23233478
Si       8.73146224       7.64222472      18.49503129
Si       4.87910231       3.41600996       9.44425643