24
Lattice="10.495476713394781 0.47619445966096485 -4.103926295288847 -4.862497441394409 6.310843134262929 3.704188144922334 -4.0939584960830775 1.346519622298908 14.130843980423343" Properties=species:S:1:pos:R:3 unique_starting_index=90 config_type=initial n_minim_iter=1 energy=-3953.412692023942 free_energy=-3953.412692023942 pbc="T T T"
Si       5.11962203       1.47968177       6.28565713
Si      -1.21958368       2.48422019       2.96196737
Si       5.19192244       6.28651889       4.10659300
Si      -0.10232302       1.82104946       3.41922800
Si       2.97722976       3.68375098      12.48743295
Si      -7.22453978       5.85689229      14.33642820
Si      -0.82362581       2.16409124       4.64678253
Si       0.20784158       5.14370948      10.52101229
Si      -6.73394711       7.70682161      13.66031694
Si       5.70688233       4.05820836       5.78195123
Si       0.58221184       4.29657554       3.75829330
Si       3.21240078       6.19224611       4.28381263
Si       3.92886569       7.89187742       2.35590674
Si       4.94720210       3.29538079       9.33217241
Si      -2.52470878       3.55740876       1.88395073
Si      -8.46216699       7.46008904      14.51974123
Si      -2.03731370       1.87007871       3.97777012
Si       2.17239056       4.90806102      11.10064377
Si      -0.44551143       2.76294509      10.41916789
Si      -3.21500534       4.08016330       9.05653434
Si       0.02442929       6.17366440       8.81196757
Si       7.33132809       0.87304227      -0.24471660
Si       5.85717313       3.55374137       4.43641667
Si       0.51386646       4.52370669       5.52800804
24
Lattice="10.476434537973727 0.4792649909106728 -4.117434964544284 -4.856886436362463 6.318090828371711 3.7042880411174526 -4.0979629091579275 1.3329398322270078 14.145537627894557" Properties=species:S:1:pos:R:3 unique_starting_index=90 config_type=initial n_minim_iter=2 stress="0.00317235240297516 -0.0004153930413758627 0.001572750067592586 -0.0004153930413758627 0.009699711031234085 -0.00400213880702979 0.001572750067592586 -0.00400213880702979 0.004405285573182898" pbc="T T T"
Si       5.10262750       1.47295193       6.28474237
Si      -1.21989915       2.48496313       2.96264848
Si       5.17553267       6.29159996       4.09781566
Si      -0.10534667       1.81914604       3.42101087
Si       2.95865525       3.67441685      12.49179413
Si      -7.22300121       5.85165494      14.34879683
Si      -0.82644245       2.16269930       4.64939207
Si       0.19759480       5.13927848      10.52459896
Si      -6.73354182       7.70494494      13.66934333
Si       5.68850701       4.05629129       5.77738186
Si       0.57611279       4.29941810       3.75573781
Si       3.19995768       6.19682995       4.27742905
Si       3.91717819       7.90123962       2.34438605
Si       4.92731918       3.28839923       9.33211351
Si      -2.52182220       3.56187028       1.88364084
Si      -8.45858144       7.45705400      14.53126328
Si      -2.03666286       1.86893598       3.98159492
Si       2.15566123       4.90254575      11.10247515
Si      -0.45447019       2.75535071      10.42546371
Si      -3.21700802       4.07683820       9.06274225
Si       0.01534059       6.17384696       8.81212338
Si       7.31526721       0.87241069      -0.25226538
Si       5.83979025       3.55271479       4.43092682
Si       0.50666494       4.52457733       5.52737262
24
Lattice="10.456945206615073 0.47810708574678956 -4.126680431926835 -4.85024675455573 6.313492744234517 3.70776873916814 -4.102697029865871 1.3315048740458673 14.14603634851054" Properties=species:S:1:pos:R:3 unique_starting_index=90 config_type=initial n_minim_iter=3 stress="-0.009524262413608242 -5.338677577345608e-05 -0.0024057995861701854 -5.338677577345608e-05 -0.0027019230822835343 -4.62251200920738e-05 -0.0024057995861701854 -4.62251200920738e-05 -0.0016266136141222139" pbc="T T T"
Si       5.08482075       1.47043175       6.27778494
Si      -1.21997780       2.48281569       2.96281937
Si       5.15930937       6.28707137       4.09094319
Si      -0.10832534       1.81638638       3.42127226
Si       2.93923659       3.67093985      12.48585535
Si      -7.22127390       5.84742339      14.35232091
Si      -0.82921765       2.16125535       4.64932790
Si       0.18719255       5.13434864      10.52194474
Si      -6.73268699       7.69873992      13.67219263
Si       5.66970329       4.05195119       5.77027723
Si       0.57009513       4.29625018       3.75364427
Si       3.18774789       6.19184852       4.27286897
Si       3.90635994       7.89471346       2.33858463
Si       4.90662112       3.28472084       9.32465689
Si      -2.51846552       3.55930997       1.88545155
Si      -8.45442709       7.45102627      14.53545113
Si      -2.03582553       1.86742028       3.98338174
Si       2.13846038       4.89809278      11.09698525
Si      -0.46393517       2.75285090      10.42301711
Si      -3.21892442       4.07337708       9.06359410
Si       0.00650540       6.16909746       8.80928388
Si       7.29863617       0.87045469      -0.25929218
Si       5.82201146       3.54903359       4.42384768
Si       0.49954424       4.52083333       5.52561610
24
Lattice="10.492647590315444 0.4721087955631632 -4.144586326933926 -4.87178537370697 6.308787566428975 3.7198267448250175 -4.135851780195379 1.337068328545697 14.16112937721519" Properties=species:S:1:pos:R:3 unique_starting_index=90 config_type=initial n_minim_iter=4 stress="0.00022373778165760277 -0.00026602514812011695 -0.0018813244666156246 -0.00026602514812011695 -0.0061519100253994196 -0.0008295324802029082 -0.0018813244666156246 -0.0008295324802029082 0.0034825000554145765" pbc="T T T"
Si       5.08829863       1.46509728       6.27124251
Si      -1.22521663       2.47862396       2.96683440
Si       5.16587586       6.28727495       4.08446471
Si      -0.11141659       1.80549648       3.43392955
Si       2.92511416       3.67288258      12.49198002
Si      -7.26433968       5.85126967      14.37639442
Si      -0.83786058       2.16425822       4.65771450
Si       0.17478327       5.12983108      10.53189384
Si      -6.77623673       7.69554695      13.69361718
Si       5.67550614       4.04457385       5.76732402
Si       0.55864048       4.29550346       3.75372093
Si       3.18608016       6.18789353       4.27267308
Si       3.91967334       7.88507011       2.32880780
Si       4.90343600       3.28157140       9.32239588
Si      -2.53156363       3.55762553       1.89124714
Si      -8.50211723       7.44849308      14.55872200
Si      -2.04494799       1.86715350       3.99715427
Si       2.11938800       4.89728820      11.09906550
Si      -0.48222049       2.75550061      10.42912993
Si      -3.24159465       4.07174595       9.07689862
Si      -0.00503564       6.16886358       8.81454131
Si       7.31556462       0.86213696      -0.26973212
Si       5.83050180       3.54339763       4.41826754
Si       0.48954964       4.51824326       5.53312293
24
Lattice="10.4829019461902 0.4691953319257848 -4.12125783035355 -4.864907546673891 6.333800586105135 3.712195573844929 -4.123293077212486 1.3622583283423615 14.107078294648273" Properties=species:S:1:pos:R:3 unique_starting_index=90 config_type=initial n_minim_iter=5 stress="-0.00045357289391844004 0.0025963897849609462 -0.0025783778141928765 0.0025963897849609462 0.0031189531284369918 0.002919743184531759 -0.0025783778141928765 0.002919743184531759 -0.004619743803208778" pbc="T T T"
Si       5.08885052       1.47871037       6.25181467
Si      -1.22104170       2.48970232       2.95778042
Si       5.16672429       6.31516483       4.08176145
Si      -0.10700517       1.81278028       3.42850068
Si       2.93151063       3.70521415      12.45421210
Si      -7.24884825       5.89119112      14.32738616
Si      -0.83308119       2.18060113       4.64470667
Si       0.18327622       5.16178447      10.49995551
Si      -6.76192451       7.73954301      13.64915844
Si       5.67607471       4.06626934       5.75547928
Si       0.55860953       4.31685478       3.74500535
Si       3.18669384       6.21641521       4.26798744
Si       3.92382773       7.91547989       2.33006110
Si       4.90585189       3.30661988       9.29431977
Si      -2.52780850       3.57087584       1.88901693
Si      -8.48538564       7.49234978      14.50896031
Si      -2.03941179       1.87906412       3.98661991
Si       2.12521142       4.93123247      11.06493768
Si      -0.47470114       2.78109242      10.39261976
Si      -3.23202128       4.09757390       9.04749153
Si       0.00403371       6.20340094       8.78952806
Si       7.30857863       0.86429348      -0.26321547
Si       5.82993666       3.56237183       4.41033772
Si       0.49312970       4.54215084       5.52127223
24
Lattice="10.459476241955592 0.454005929942464 -4.095385600650218 -4.860377603144303 6.341309364407051 3.6969015504480236 -4.090108757317318 1.3653045237889243 14.084828471004947" Properties=species:S:1:pos:R:3 unique_starting_index=90 config_type=initial n_minim_iter=6 stress="-0.0027779761688500842 -0.007174917367492421 0.003876679925197976 -0.007174917367492421 -0.00031261550032781935 0.00027530122762607515 0.003876679925197976 0.00027530122762607515 -0.004056779628912328" pbc="T T T"
Si       5.09237936       1.46781575       6.25469877
Si      -1.21590137       2.48954561       2.95090406
Si       5.15942925       6.30546931       4.08801445
Si      -0.10033743       1.80941905       3.42996979
Si       2.94789198       3.69910293      12.45021351
Si      -7.21858260       5.90043130      14.29762570
Si      -0.82467049       2.18380007       4.64026548
Si       0.19661185       5.15908060      10.48860226
Si      -6.73682371       7.74746793      13.62004720
Si       5.67404889       4.05546442       5.76084650
Si       0.55585644       4.31735797       3.73987636
Si       3.18041483       6.21299383       4.26911262
Si       3.91520994       7.91130089       2.32887129
Si       4.91234137       3.29636767       9.29364722
Si      -2.52550458       3.57332743       1.88338042
Si      -8.45530965       7.50211320      14.47488634
Si      -2.03011872       1.88160965       3.98114514
Si       2.13832769       4.92691041      11.05673535
Si      -0.45699432       2.78064890      10.37978703
Si      -3.21439446       4.10051168       9.03193439
Si       0.01533556       6.20343076       8.77816235
Si       7.29466652       0.85171474      -0.24873893
Si       5.82548887       3.55304821       4.41668830
Si       0.49642318       4.54157044       5.51800568
24
Lattice="10.446221357397212 0.47820553257005277 -4.093311549983362 -4.839241329897493 6.326612028756905 3.6944604884856784 -4.073712784092495 1.3487529989611458 14.096535196192782" Properties=species:S:1:pos:R:3 unique_starting_index=90 config_type=initial n_minim_iter=7 stress="1.48945506453522e-05 0.0011535613508250908 0.0019580975019904087 0.0011535613508250908 -0.0010566055834251627 -0.0013913621429673694 0.0019580975019904087 -0.0013913621429673694 1.335782090764571e-05" pbc="T T T"
Si       5.09284147       1.47239993       6.26119034
Si      -1.20575052       2.48163410       2.95006352
Si       5.17125059       6.30775831       4.09448365
Si      -0.09066881       1.80308379       3.44163128
Si       2.95967631       3.69849397      12.46814190
Si      -7.18980435       5.87682725      14.30553730
Si      -0.81474626       2.18315496       4.64753382
Si       0.21198582       5.15142908      10.49579319
Si      -6.70550835       7.72286792      13.62577774
Si       5.67928612       4.06137857       5.76798159
Si       0.56128202       4.31767798       3.73891305
Si       3.19019834       6.21814444       4.27238428
Si       3.93571079       7.91796965       2.32074193
Si       4.91701023       3.29944914       9.30242933
Si      -2.51204335       3.56342813       1.88626389
Si      -8.42156533       7.47221111      14.47977570
Si      -2.01971815       1.87445544       3.98783591
Si       2.15482175       4.92498162      11.06626587
Si      -0.44506035       2.77504380      10.38660387
Si      -3.19561575       4.08710730       9.03848918
Si       0.03817998       6.19857910       8.78127951
Si       7.28444260       0.86481315      -0.24659366
Si       5.82833189       3.56294397       4.42124997
Si       0.50772260       4.53954939       5.52523591
24
Lattice="10.450568105529776 0.4545113027310763 -4.126976182336484 -4.857201806215644 6.3453646993095765 3.7226756414807705 -4.110689745084991 1.3774950508612094 14.133330640672472" Properties=species:S:1:pos:R:3 unique_starting_index=90 config_type=initial n_minim_iter=8 stress="0.002459437709100282 -0.002414464986667299 -0.002231292458536476 -0.002414464986667299 0.0013412708642356142 0.0015508823032191947 -0.002231292458536476 0.0015508823032191947 0.003702260315959793" pbc="T T T"
Si       5.07043982       1.47271613       6.25866029
Si      -1.21329191       2.48501028       2.96155694
Si       5.14769248       6.30631115       4.09945543
Si      -0.09946878       1.80895572       3.45926193
Si       2.91809827       3.71531164      12.49223517
Si      -7.23208236       5.91460738      14.35868384
Si      -0.82914948       2.19606345       4.66481215
Si       0.17221536       5.17061473      10.51824503
Si      -6.75118850       7.76062061      13.67715229
Si       5.65343504       4.06153778       5.76840964
Si       0.53878417       4.32793725       3.74699715
Si       3.16403957       6.22662179       4.28054255
Si       3.91773455       7.92174260       2.32067546
Si       4.88102041       3.30617709       9.30798174
Si      -2.52133020       3.57500625       1.90190928
Si      -8.46971053       7.51319762      14.53636304
Si      -2.03117373       1.88456549       4.00570048
Si       2.11944722       4.94023456      11.08811678
Si      -0.47842239       2.79481661      10.40674115
Si      -3.22334873       4.10859993       9.06947887
Si       0.00908547       6.21682174       8.80178314
Si       7.27921684       0.85250872      -0.26895663
Si       5.80668441       3.56300389       4.41634101
Si       0.48357668       4.55144049       5.54322790
24
Lattice="10.422882561443425 0.47970619360380873 -4.115010756002452 -4.83335256275769 6.325997026938564 3.6990744182358406 -4.089844285315931 1.3377664166054628 14.104946608988545" Properties=species:S:1:pos:R:3 unique_starting_index=90 config_type=initial n_minim_iter=9 stress="0.00047458930976845956 -0.0003772014047820799 0.0005672216391375175 -0.0003772014047820799 -0.0005566674219587292 -0.002131427346908292 0.0005672216391375175 -0.002131427346908292 -0.0026294516574939097" pbc="T T T"
Si       5.06243638       1.46377638       6.24542807
Si      -1.19853084       2.46603130       2.94998803
Si       5.14681444       6.29955781       4.08412035
Si      -0.08924276       1.80084473       3.46423092
Si       2.92193745       3.69128863      12.47232039
Si      -7.19363517       5.86711257      14.31968009
Si      -0.81929055       2.18519171       4.65793287
Si       0.18099200       5.14452825      10.48511200
Si      -6.71509288       7.71489231      13.63166697
Si       5.64788126       4.05121594       5.75246268
Si       0.53874745       4.32146521       3.72675919
Si       3.16390465       6.22268412       4.26165985
Si       3.92356203       7.91744866       2.29767017
Si       4.87380851       3.28852300       9.28394979
Si      -2.50722219       3.56838010       1.88924013
Si      -8.43194823       7.46140367      14.48865195
Si      -2.01882953       1.86924704       3.99740602
Si       2.13235338       4.91239281      11.06303190
Si      -0.46987761       2.77129501      10.37826582
Si      -3.20131028       4.07938008       9.04561830
Si       0.03151544       6.19340631       8.76740168
Si       7.26594739       0.86456601      -0.27449564
Si       5.79899759       3.56079062       4.40081271
Si       0.48958181       4.53830816       5.52931394
24
Lattice="10.384382366381205 0.4896323015806289 -4.124786073935067 -4.805434788929982 6.332572005837425 3.7191775375725404 -4.064852396549512 1.3515713422630373 14.16245865755599" Properties=species:S:1:pos:R:3 unique_starting_index=90 config_type=initial n_minim_iter=10 stress="-0.002671498134217047 0.0006225406885537291 0.002276506602597603 0.0006225406885537291 0.0011559744491008897 0.0024776164846300503 0.002276506602597603 0.0024776164846300503 0.002074888385203764" pbc="T T T"
Si       5.04788250       1.47956103       6.27227894
Si      -1.18453692       2.46007441       2.96022996
Si       5.13819145       6.32133730       4.11509234
Si      -0.07597459       1.81133849       3.50496238
Si       2.92322547       3.72701174      12.53771386
Si      -7.14619507       5.88197522      14.38415542
Si      -0.80837794       2.19463553       4.68927402
Si       0.18799747       5.16692275      10.52733383
Si      -6.67324785       7.73363957      13.69066749
Si       5.63534837       4.06598230       5.78358334
Si       0.53458450       4.33905985       3.74147427
Si       3.15716106       6.24778845       4.29026499
Si       3.92320731       7.93365481       2.31856082
Si       4.85715273       3.30899147       9.32249991
Si      -2.48639361       3.56849004       1.90661634
Si      -8.38938778       7.47679933      14.54935513
Si      -2.00298645       1.87088703       4.01957264
Si       2.14194264       4.93190247      11.11994508
Si      -0.46407572       2.79212938      10.41576567
Si      -3.17440604       4.08906711       9.09030686
Si       0.05836381       6.21160010       8.80197157
Si       7.24994429       0.87569722      -0.28281471
Si       5.78470106       3.57933795       4.42124326
Si       0.49229363       4.55422950       5.56665536
24
Lattice="10.413447142672121 0.49276189227153844 -4.149544689096171 -4.829939054027573 6.323169389653519 3.707390336542643 -4.116726162505459 1.313131473161397 14.138552600845316" Properties=species:S:1:pos:R:3 unique_starting_index=90 config_type=initial n_minim_iter=11 stress="0.0023615776137531253 -0.0003050934821597889 -0.0011218921126954918 -0.0003050934821597889 0.0018839211905686455 -0.002031379004862311 -0.0011218921126954918 -0.002031379004862311 -0.002414444006065482" pbc="T T T"
Si       5.03265855       1.45583333       6.23436983
Si      -1.19677646       2.44390456       2.94607788
Si       5.12747446       6.30187391       4.07329655
Si      -0.08252246       1.80581344       3.50867446
Si       2.88593614       3.69474186      12.49347039
Si      -7.20424258       5.84088634      14.36050032
Si      -0.82553192       2.18116472       4.68050449
Si       0.14915364       5.13657766      10.48093353
Si      -6.73349981       7.69537871      13.65598459
Si       5.62168691       4.03915848       5.73837833
Si       0.51400614       4.33039632       3.71562297
Si       3.13909443       6.23423074       4.25358478
Si       3.91823816       7.91954149       2.27820822
Si       4.82605397       3.27464074       9.26985507
Si      -2.49302491       3.56118358       1.90327330
Si      -8.45862090       7.43716450      14.51809261
Si      -2.01825678       1.85893737       4.01225546
Si       2.10682045       4.89610088      11.07252559
Si      -0.50532134       2.76446844      10.37831961
Si      -3.20802407       4.06094507       9.07094964
Si       0.03580127       6.18182314       8.75810587
Si       7.26568498       0.86795328      -0.31371073
Si       5.77666379       3.55957567       4.37892860
Si       0.46764817       4.53652785       5.54464027
24
Lattice="10.387283328544745 0.4979267962914097 -4.168635045246375 -4.814481215303763 6.321739967796613 3.7250452823173164 -4.1089929959078395 1.3143310983877414 14.196406747896905" Properties=species:S:1:pos:R:3 unique_starting_index=90 config_type=initial n_minim_iter=12 stress="0.004318502961032644 -5.153760086747177e-05 0.0006626039551244756 -5.153760086747177e-05 0.005583342894700235 -0.0021431483048350514 0.0006626039551244756 -0.0021431483048350514 0.001795906003917117" pbc="T T T"
Si       5.01233954       1.46117186       6.25247410
Si      -1.18996741       2.42454967       2.95329002
Si       5.11612685       6.30218080       4.09554103
Si      -0.07095801       1.82031405       3.55902512
Si       2.87627736       3.71296911      12.55419756
Si      -7.18220865       5.83451215      14.43433999
Si      -0.82335026       2.18165705       4.71192544
Si       0.15012060       5.14601413      10.51024736
Si      -6.71722592       7.68982469      13.71212617
Si       5.60473863       4.03833317       5.75436880
Si       0.50416310       4.34210302       3.72822860
Si       3.12409287       6.24514074       4.27592224
Si       3.91896786       7.92186847       2.29168437
Si       4.79696899       3.27699945       9.29266782
Si      -2.47079311       3.56394948       1.91283593
Si      -8.44207148       7.43071377      14.57415090
Si      -2.00650441       1.85858105       4.03025482
Si       2.09722843       4.90788552      11.11007957
Si      -0.51944562       2.77495819      10.40535917
Si      -3.19408163       4.05580734       9.11748367
Si       0.05884457       6.17910794       8.78341150
Si       7.25272333       0.86526617      -0.32598685
Si       5.76184487       3.56230590       4.38908668
Si       0.45866997       4.54080556       5.57980089
24
Lattice="10.362915781890806 0.4963094740839533 -4.188233766356221 -4.804843744880577 6.330136217763912 3.741971750534132 -4.112167177902311 1.323792645196862 14.233092466349497" Properties=species:S:1:pos:R:3 unique_starting_index=90 config_type=initial n_minim_iter=13 stress="0.001849494651211533 -0.0006673922443268514 0.0016536095439680667 -0.0006673922443268514 0.005343994047406554 -0.0018714317408546437 0.0016536095439680667 -0.0018714317408546437 0.0004221857913512291" pbc="T T T"
Si       4.98317929       1.46471197       6.25298962
Si      -1.18348768       2.40695725       2.96173845
Si       5.09801442       6.30848918       4.10620169
Si      -0.06618210       1.83619039       3.60546937
Si       2.85547209       3.73838558      12.58855573
Si      -7.17347216       5.85653201      14.48245358
Si      -0.82995255       2.18692713       4.73516334
Si       0.14087271       5.16449660      10.52230804
Si      -6.71661875       7.69270533      13.75463349
Si       5.58143621       4.03992202       5.75449109
Si       0.48999243       4.35824411       3.74199063
Si       3.10828991       6.25986356       4.29303450
Si       3.91741160       7.93080598       2.30371442
Si       4.75693909       3.28305314       9.29228646
Si      -2.44984752       3.57054336       1.92334084
Si      -8.43616085       7.43607762      14.61188214
Si      -1.99842213       1.86742208       4.04039165
Si       2.07743937       4.91923758      11.13661938
Si      -0.54853652       2.79329155      10.41268243
Si      -3.19014955       4.05719723       9.15458122
Si       0.07400146       6.18900452       8.79574097
Si       7.23262762       0.86422840      -0.34411983
Si       5.74383450       3.56298323       4.39114024
Si       0.44187302       4.55065045       5.60551357
24
Lattice="10.298573223212841 0.5074345867055727 -4.242076689141655 -4.769894935013219 6.325609870773289 3.786080473366925 -4.10660909018091 1.3257265243455283 14.365089397565963" Properties=species:S:1:pos:R:3 unique_starting_index=90 config_type=initial n_minim_iter=14 stress="0.012440268553227265 0.001638299565461749 -0.000215774835618231 0.001638299565461749 0.0008670767953201452 -0.002573060677050132 -0.000215774835618231 -0.002573060677050132 0.0023185602144319907" pbc="T T T"
Si       4.91758312       1.46542524       6.27528787
Si      -1.16306176       2.37328351       2.99117013
Si       5.08049738       6.31837184       4.13726735
Si      -0.05615037       1.85342131       3.71618017
Si       2.82085178       3.76994219      12.70837559
Si      -7.13290787       5.84680288      14.64133634
Si      -0.84385251       2.19000589       4.80285862
Si       0.13007353       5.18265722      10.59253443
Si      -6.69364578       7.66954274      13.88754327
Si       5.53542281       4.03403433       5.77571849
Si       0.46603019       4.37711183       3.79314887
Si       3.07954225       6.27782726       4.34611471
Si       3.91831370       7.93164025       2.33806578
Si       4.67399504       3.28734386       9.32161448
Si      -2.39312254       3.56876575       1.94665950
Si      -8.40531929       7.41809897      14.74011145
Si      -1.97676783       1.87953256       4.07793920
Si       2.05230868       4.93110432      11.23732300
Si      -0.60844731       2.82378274      10.46479612
Si      -3.17301077       4.03983617       9.26775993
Si       0.11662824       6.20174223       8.84901178
Si       7.18086465       0.87984826      -0.38300626
Si       5.70899784       3.56025867       4.41779361
Si       0.41274095       4.55668919       5.67595190
24
Lattice="10.250391865689846 0.5249313520455754 -4.267429526845763 -4.736301209688096 6.319774274438129 3.810207099399224 -4.088853047528762 1.324186016970734 14.443811408165848" Properties=species:S:1:pos:R:3 unique_starting_index=90 config_type=initial n_minim_iter=15 stress="-0.004073824651321906 0.0031563604163598836 0.0013127479653245889 0.0031563604163598836 6.017399718983558e-05 -0.002073518240573878 0.0013127479653245889 -0.002073518240573878 0.004224755446902516" pbc="T T T"
Si       4.88174986       1.47326445       6.29523227
Si      -1.14364054       2.35913624       3.01162203
Si       5.06539624       6.33004501       4.16291884
Si      -0.04716425       1.86256353       3.77422452
Si       2.81302889       3.79325392      12.77994128
Si      -7.08698982       5.83270319      14.73378489
Si      -0.84616850       2.19199671       4.84243575
Si       0.13614865       5.19624170      10.63838573
Si      -6.65621829       7.65376598      13.96491195
Si       5.51327908       4.03947089       5.79490529
Si       0.46057140       4.38791615       3.82711482
Si       3.08222720       6.29439990       4.37832574
Si       3.92436621       7.93861538       2.36104703
Si       4.63517197       3.29653724       9.34713586
Si      -2.35813884       3.56452240       1.95697212
Si      -8.36290316       7.40353168      14.81490326
Si      -1.95998404       1.88429449       4.10035931
Si       2.04940217       4.94304995      11.30211353
Si      -0.63264411       2.84261775      10.50008157
Si      -3.14942238       4.02856508       9.33382299
Si       0.14997170       6.21220859       8.88645065
Si       7.14464609       0.89604028      -0.39530802
Si       5.69201835       3.56842494       4.44060997
Si       0.40494853       4.56117094       5.71679942
24
Lattice="10.231529991861322 0.5390255059236012 -4.308660949410198 -4.71882582555214 6.325108772093785 3.848711661448345 -4.108596232954386 1.3437263724316686 14.514116735637348" Properties=species:S:1:pos:R:3 unique_starting_index=90 config_type=initial n_minim_iter=16 stress="-0.004960676273802978 0.00572188057615044 -0.002089274914385788 0.00572188057615044 -0.0004932739084643043 0.0021484100413147644 -0.002089274914385788 0.0021484100413147644 0.001202040118296548" pbc="T T T"
Si       4.83336177       1.49746385       6.29554400
Si      -1.11337475       2.36506355       3.05256606
Si       5.06980285       6.34536334       4.18658086
Si      -0.04838894       1.87948671       3.82483578
Si       2.79639904       3.83912585      12.81941551
Si      -7.08493996       5.84234705      14.82493701
Si      -0.87222066       2.20441454       4.88637545
Si       0.13252880       5.23780379      10.67248564
Si      -6.66137643       7.65490481      14.04991962
Si       5.49380571       4.05490931       5.79363618
Si       0.45153045       4.40959113       3.88227715
Si       3.08447143       6.32958739       4.40958727
Si       3.93047865       7.95191418       2.39165251
Si       4.58359532       3.31848000       9.34452068
Si      -2.32721914       3.55612449       1.97045890
Si      -8.36766366       7.40745372      14.89031475
Si      -1.96101577       1.89818744       4.12213498
Si       2.02125198       4.97956115      11.35706502
Si      -0.71223120       2.89388918      10.51229747
Si      -3.14753466       4.02799066       9.40766537
Si       0.17094545       6.24562923       8.91813943
Si       7.12682837       0.91930687      -0.41178780
Si       5.68881701       3.59113694       4.45556543
Si       0.38076446       4.57605107       5.75113070
24
Lattice="10.204959033283604 0.5189617114253748 -4.349380779960169 -4.716008354928643 6.3424099463526815 3.8940491169735374 -4.1265637119539464 1.386704642912478 14.593438389393194" Properties=species:S:1:pos:R:3 unique_starting_index=90 config_type=initial n_minim_iter=17 stress="0.0011428035179188584 0.004289154582644011 -0.0032164407840000434 0.004289154582644011 -0.003816369323310108 0.008647775454399197 -0.0032164407840000434 0.008647775454399197 -0.001088073187725176" pbc="T T T"
Si       4.77194438       1.51610375       6.30124633
Si      -1.08631684       2.39164605       3.10112820
Si       5.05075547       6.35716838       4.22237370
Si      -0.05475996       1.89376766       3.88085837
Si       2.76931570       3.85916157      12.87295049
Si      -7.09321822       5.87760586      14.92216921
Si      -0.90724394       2.21894553       4.93864939
Si       0.11542648       5.29255075      10.70743118
Si      -6.68196029       7.67288711      14.14907419
Si       5.46573289       4.04845417       5.80234967
Si       0.43627748       4.43502732       3.95662899
Si       3.07314076       6.35832890       4.45138925
Si       3.91386175       7.95215866       2.43426996
Si       4.51924962       3.32742227       9.35032131
Si      -2.28586595       3.54961073       1.98604757
Si      -8.38821193       7.43339038      14.96956213
Si      -1.96839066       1.91580760       4.14572369
Si       1.98520528       5.01866795      11.42655087
Si      -0.82918784       2.96998991      10.51977227