8
Lattice="2.0230864993885107 -3.1036838612657547e-06 4.4092842161431296e-20 2.2425162516148308e-05 14.617482179551232 1.6454328089761892e-16 -3.9656955734431684e-19 -2.0465828577231237e-16 18.18116691090427" Properties=species:S:1:pos:R:3 unique_starting_index=54 config_type=initial n_minim_iter=1 energy=-1300.5009009448734 free_energy=-1300.5009009448734 pbc="T T T"
Si       0.47998949       1.58175240       2.39559606
Si       1.54311943      13.03572668       2.39559606
Si       0.53156982       8.89049341      11.48617952
Si       1.49153910       5.72698567      11.48617952
Si       0.53774819      13.03716965       0.64206784
Si       1.48536073       1.58030943       0.64206784
Si       0.47382384       5.72842866       9.73265130
Si       1.54928508       8.88905042       9.73265130
8
Lattice="2.0237288705814094 -3.104669344143001e-06 4.4354841153149174e-20 2.2403613722899417e-05 14.603435944609583 1.4246615648017919e-16 -3.9443290408610775e-19 -2.319466214551505e-16 18.183470614631755" Properties=species:S:1:pos:R:3 unique_starting_index=54 config_type=initial n_minim_iter=2 stress="0.004720910630213057 -8.473483013749956e-09 7.140542723399024e-17 -8.473483013749956e-09 -0.0008023932390570159 -1.0216270167727501e-16 7.140542723399024e-17 -1.0216270167727501e-16 0.0012994559992071668" pbc="T T T"
Si       0.47813189       1.58009079       2.39591767
Si       1.54561938      13.02334205       2.39591767
Si       0.53374860       8.88180868      11.48765298
Si       1.49000268       5.72162416      11.48765298
Si       0.53680408      13.02465211       0.64213113
Si       1.48694719       1.57878073       0.64213113
Si       0.47508912       5.72293424       9.73386644
Si       1.54866216       8.88049860       9.73386644
8
Lattice="2.0229896862431778 -3.1035353370198436e-06 3.482517124528762e-20 2.2392525406075474e-05 14.596208203296289 9.974023759910948e-16 -4.78984698911276e-19 8.448269405010834e-16 18.18208110944414" Properties=species:S:1:pos:R:3 unique_starting_index=54 config_type=initial n_minim_iter=3 stress="-0.00024170845405748447 -1.5216967027885419e-09 6.862896656489878e-18 -1.5216967027885419e-09 -0.0012336020172196809 -1.0339580650078912e-16 6.862896656489878e-18 -1.0339580650078912e-16 -0.00041957372638481413" pbc="T T T"
Si       0.47669043       1.57922774       2.39572369
Si       1.54632165      13.01697735       2.39572369
Si       0.53482046       8.87733176      11.48676425
Si       1.48819162       5.71887334      11.48676425
Si       0.53591463      13.01820289       0.64209296
Si       1.48709745       1.57800221       0.64209296
Si       0.47560896       5.72009888       9.73313351
Si       1.54740312       8.87610622       9.73313351
8
Lattice="2.022796365262896 -3.103238756914777e-06 3.481998738746827e-20 2.2413811942526614e-05 14.610083490354507 9.96708131988872e-16 -4.790944471938074e-19 8.443368446528348e-16 18.188372130485806" Properties=species:S:1:pos:R:3 unique_starting_index=54 config_type=initial n_minim_iter=4 stress="-0.00027343803235832433 1.583802484572206e-10 -1.439672753613461e-17 1.583802484572206e-10 -0.00017020042648443549 2.685065525681236e-18 -1.439672753613461e-17 2.685065525681236e-18 0.0006886740712496074" pbc="T T T"
Si       0.47566803       1.58076450       2.39660195
Si       1.54715075      13.02931588       2.39660195
Si       0.53574621       8.88580616      11.49078802
Si       1.48707257       5.72427423      11.49078802
Si       0.53545660      13.03046342       0.64226578
Si       1.48736218       1.57961697       0.64226578
Si       0.47597036       5.72542177       9.73645185
Si       1.54684842       8.88465862       9.73645185
8
Lattice="2.023079859998362 -3.1036736755578923e-06 3.482723832045977e-20 2.2421008987244896e-05 14.614774768414998 9.965370129416637e-16 -4.789869236534507e-19 8.448258778719528e-16 18.182046410806986" Properties=species:S:1:pos:R:3 unique_starting_index=54 config_type=initial n_minim_iter=5 stress="-2.2291295606083245e-05 1.5268353778575432e-10 -7.546554828178409e-17 1.5268353778575432e-10 7.723300179729828e-05 4.243987935388214e-17 -7.546554828178409e-17 4.243987935388214e-17 -0.00010763747268278416" pbc="T T T"
Si       0.47545291       1.58128105       2.39571885
Si       1.54764938      13.03349061       2.39571885
Si       0.53610309       8.88866834      11.48674206
Si       1.48699919       5.72610332      11.48674206
Si       0.53550894      13.03460568       0.64209200
Si       1.48759334       1.58016599       0.64209200
Si       0.47605977       5.72721839       9.73311521
Si       1.54704251       8.88755328       9.73311521
8
Lattice="2.024068178896717 -3.1051898882435767e-06 3.485334426555552e-20 2.2446227900295767e-05 14.631213312030606 9.95773372201686e-16 -4.789501725108853e-19 8.449708903780455e-16 18.179923889654813" Properties=species:S:1:pos:R:3 unique_starting_index=54 config_type=initial n_minim_iter=6 stress="0.0019228115306695172 -3.71046727076433e-09 -2.1593556581686828e-16 -3.71046727076433e-09 -0.0004957970168532 1.1238521793685823e-17 -2.1593556581686828e-16 1.1238521793685823e-17 0.0010322531406737833" pbc="T T T"
Si       0.42195840       1.57726746       2.39542289
Si       1.60213223      13.05394275       2.39542289
Si       0.59009175       8.89287385      11.48538484
Si       1.43399887       5.73833635      11.48538484
Si       0.58676164      13.04329197       0.64203333
Si       1.43732899       1.58791824       0.64203333
Si       0.42530125       5.72768556       9.73199528
Si       1.59878938       8.90352465       9.73199528
