22
Lattice="5.141708008711625 0.1833195767046342 1.3482335315254912 2.6717364843921634 6.60561115449138 1.1191189790908906 4.237508719039077 1.59632531579395 19.48029515524815" Properties=species:S:1:pos:R:3 unique_starting_index=40 config_type=initial n_minim_iter=1 energy=-3594.7766688037373 free_energy=-3594.7766688037373 pbc="T T T"
Si       9.41949027       4.09087812      18.51152061
Si       3.43121727       2.79264511       6.03483615
Si       5.91793239       1.35334900       9.51089056
Si       5.94913225       4.71127377      16.26906589
Si       6.54720041       4.00882339      18.87391881
Si       7.27186538       6.68801304       9.80244052
Si       5.73059980       2.72078958       4.28386863
Si       6.61601126       5.98944460      13.47389133
Si       4.65792989       2.94998026       0.72873235
Si       7.85330614       6.08807072      19.71335747
Si       6.12468576       2.53958397      13.75957040
Si       4.70262481       5.69943954      13.97895323
Si       1.87642585       3.66840434       0.91197449
Si       3.43894864       0.54465213      10.20205418
Si       6.17506678       2.16077370      19.48393247
Si       8.70102958       6.59926186      12.09275635
Si       4.63909142       4.05873919       6.98553928
Si       5.58230826       7.74233215       9.47266134
Si       5.22376948       4.29525726       5.12459558
Si       6.42149309       1.79267445      11.89737970
Si       8.91876865       2.91868856      19.85861517
Si       4.99401731       2.17145019       6.89533568
22
Lattice="5.164174941470125 0.17704846713772232 1.3416910133095399 2.6764350278825106 6.618247380426216 1.1078481943215797 4.203028692972573 1.565421240112584 19.584649817506893" Properties=species:S:1:pos:R:3 unique_starting_index=40 config_type=initial n_minim_iter=2 stress="0.015108781903854718 0.004361787201815813 0.004003171425255279 0.004361787201815813 0.01301223558114833 -0.005459323889269534 0.004003171425255279 -0.005459323889269534 0.017137925449295516" pbc="T T T"
Si       9.41155660       4.06479993      18.59020281
Si       3.42880128       2.78636271       6.05712249
Si       5.91858496       1.33538857       9.54895963
Si       5.92890365       4.69160352      16.34502803
Si       6.52145623       3.98367574      18.96149264
Si       7.27734631       6.68422498       9.83162593
Si       5.74526395       2.71641138       4.28882553
Si       6.60724028       5.97746290      13.52720873
Si       4.67844049       2.95133860       0.71696016
Si       7.83177664       6.06303801      19.80190605
Si       6.11498208       2.51810459      13.82199516
Si       4.68190639       5.68743534      14.04194441
Si       1.88218350       3.67446367       0.90549021
Si       3.42759725       0.52652795      10.25506351
Si       6.15043690       2.13013747      19.58203094
Si       8.70657723       6.58948647      12.13174091
Si       4.63967252       4.05406505       7.00868655
Si       5.57802522       7.74336268       9.50169388
Si       5.23269456       4.29449429       5.13465170
Si       6.41885425       1.77159397      11.94873343
Si       8.90749393       2.88653378      19.95104121
Si       4.99828372       2.15894973       6.92205721
22
Lattice="5.1325369470692275 0.11576100808879515 1.234888669535047 2.5730333301371346 6.523624873233196 1.063429671706763 3.7722071545746054 1.5309115048935542 19.517185752075683" Properties=species:S:1:pos:R:3 unique_starting_index=40 config_type=initial n_minim_iter=3 stress="-0.03416552213482925 -0.0177371005776489 -0.03167520905305756 -0.0177371005776489 -0.01248061533072223 0.0008771546489683004 -0.03167520905305756 0.0008771546489683004 0.015521987787936418" pbc="T T T"
Si       8.96423517       3.95890819      18.40528856
Si       3.26177775       2.72067308       5.99212193
Si       5.68201082       1.25319746       9.43025629
Si       5.51860224       4.59717787      16.25531551
Si       6.04607556       3.90548219      18.82225884
Si       7.00433442       6.56220718       9.70373355
Si       5.61770444       2.63476418       4.17009683
Si       6.25004853       5.86366682      13.40483593
Si       4.64006365       2.85868285       0.63961279
Si       7.33142964       5.92125840      19.66797300
Si       5.79143780       2.43763676      13.70747092
Si       4.31780124       5.59969416      13.96543486
Si       1.83935989       3.61406143       0.86209753
Si       3.20654782       0.49595101      10.20504404
Si       5.71673455       2.07344244      19.47527741
Si       8.37836197       6.45147852      11.96839317
Si       4.44303664       3.97276745       6.92469470
Si       5.29361100       7.63143907       9.40031295
Si       5.07478839       4.20923053       5.04122639
Si       6.13928227       1.68776914      11.82584652
Si       8.46611328       2.78602351      19.79732348
Si       4.82470429       2.06315363       6.84972412
22
Lattice="5.233334172818777 0.12018079962929888 1.228647939905041 2.6294763863416466 6.507353307206255 1.066607246853873 3.8978996020611554 1.5644200577357754 19.265149782983794" Properties=species:S:1:pos:R:3 unique_starting_index=40 config_type=initial n_minim_iter=4 stress="0.014708217491436259 -0.020749150725295287 -0.007772509797222692 -0.020749150725295287 -0.014275575160496197 0.006625074539044473 -0.007772509797222692 0.006625074539044473 -0.014259433390326471" pbc="T T T"
Si       9.17778355       4.00425206      18.17063154
Si       3.33500489       2.71687408       5.91932351
Si       5.79843879       1.25996577       9.31196547
Si       5.65964545       4.61214013      16.06908045
Si       6.18548351       3.94185120      18.56368191
Si       7.17864058       6.57705356       9.60466947
Si       5.73379226       2.64433335       4.12423387
Si       6.40683429       5.87605525      13.24226295
Si       4.74779761       2.84340846       0.66145236
Si       7.51855757       5.92218041      19.43103158
Si       5.93823955       2.45356127      13.53612270
Si       4.44438742       5.61252954      13.79570189
Si       1.90112269       3.59906813       0.84818443
Si       3.29792784       0.51432771      10.08553018
Si       5.88482542       2.11313390      19.22971545
Si       8.58277821       6.46809431      11.83392617
Si       4.55081684       3.97879862       6.84635331
Si       5.43810281       7.64446274       9.29298290
Si       5.19084130       4.21979762       4.99794840
Si       6.28336380       1.69846001      11.68006316
Si       8.69688533       2.82266387      19.56339357
Si       4.93562022       2.04449786       6.79469255
22
Lattice="5.1921651527430415 0.21371657849281403 1.2483493734708166 2.7334553734660316 6.600390441941634 1.0504611868257152 3.956048515192641 1.5752229000553253 19.30793471962433" Properties=species:S:1:pos:R:3 unique_starting_index=40 config_type=initial n_minim_iter=5 stress="-0.013725750594603356 -0.0011368439153994596 0.001038286056967973 -0.0011368439153994596 0.0020935383067069114 6.9908753509015116e-06 0.001038286056967973 6.9908753509015116e-06 -0.006073602066889169" pbc="T T T"
Si       9.21659577       4.15840093      18.20366494
Si       3.36858428       2.76562483       5.92606147
Si       5.77852322       1.33526481       9.33921893
Si       5.73451943       4.68446833      16.11518586
Si       6.23996617       4.02471166      18.57690148
Si       7.27304483       6.73552067       9.62728968
Si       5.74245859       2.76312601       4.13300100
Si       6.49598839       5.99036786      13.25830646
Si       4.77677842       2.93627933       0.68267874
Si       7.62372809       6.00822752      19.46743620
Si       5.97266991       2.52467554      13.56907013
Si       4.56613049       5.68707276      13.80963610
Si       1.97322904       3.64719701       0.83077478
Si       3.31570577       0.54023322      10.12412530
Si       5.94276801       2.17505564      19.27855574
Si       8.67857350       6.64119685      11.85634080
Si       4.61056851       4.06911338       6.85658557
Si       5.58803297       7.78476953       9.29109191
Si       5.24529203       4.34226879       5.01447762
Si       6.29158481       1.77040164      11.71153726
Si       8.75033269       2.94014524      19.62962571
Si       4.95113305       2.09543245       6.84194543
22
Lattice="5.237316726052943 0.2702057741357388 1.2296342000992808 2.8263936780634626 6.563758672235042 1.0517131630466785 3.9343350210852432 1.6362810140999593 19.320825302758045" Properties=species:S:1:pos:R:3 unique_starting_index=40 config_type=initial n_minim_iter=6 stress="0.014663006642722054 0.016412410611565353 -0.006146036414165864 0.016412410611565353 -0.018670690070147163 -0.0009524353490702385 -0.006146036414165864 -0.0009524353490702385 0.0026777724200078307" pbc="T T T"
Si       9.24982637       4.27215796      18.18148757
Si       3.41076974       2.78308905       5.92849133
Si       5.78320568       1.40254287       9.32789857
Si       5.75812792       4.72015449      16.13805325
Si       6.26228815       4.09041271      18.56536497
Si       7.37058678       6.76680078       9.62982204
Si       5.80549256       2.81177782       4.11366900
Si       6.55454666       6.02429004      13.25294225
Si       4.85119675       2.93964388       0.67895149
Si       7.69487884       6.03998534      19.46525054
Si       5.99858155       2.58160731      13.56692074
Si       4.63064112       5.70787482      13.81307925
Si       2.03408956       3.61305156       0.82544006
Si       3.31743696       0.58800695      10.13508467
Si       5.95836303       2.26941440      19.28763514
Si       8.79873841       6.69747781      11.84610189
Si       4.66204023       4.07142315       6.84469740
Si       5.72151410       7.80205328       9.29208001
Si       5.32649381       4.37572761       5.01769259
Si       6.31625349       1.82608453      11.69770707
Si       8.79853176       3.05812975      19.63479306
Si       4.99140416       2.12042400       6.85818977
22
Lattice="5.261546645305408 0.2667288149773185 1.2482641180913412 2.8285910973680473 6.635391771086416 1.0800371701231684 4.013706609509144 1.7014016053558443 19.350491547773327" Properties=species:S:1:pos:R:3 unique_starting_index=40 config_type=initial n_minim_iter=7 stress="0.00421828133703075 -0.007668596648336204 0.009992977212893925 -0.007668596648336204 -0.0037408024954338316 -0.0071505463654426525 0.009992977212893925 -0.0071505463654426525 0.005929967123592025" pbc="T T T"
Si       9.28822559       4.40255870      18.20271258
Si       3.45071864       2.82467530       5.95963826
Si       5.78186802       1.44090407       9.35025872
Si       5.79028069       4.79255368      16.21238849
Si       6.33586784       4.18874914      18.57687377
Si       7.40952414       6.86050679       9.69598208
Si       5.82912905       2.85755578       4.13152442
Si       6.58503377       6.12050877      13.28453555
Si       4.86457602       2.92500114       0.71909746
Si       7.79914316       6.09601632      19.50541133
Si       6.05801035       2.62438093      13.60055214
Si       4.71377078       5.81401964      13.84026182
Si       2.05691848       3.61451670       0.83096597
Si       3.37438484       0.61579799      10.17147845
Si       6.07054971       2.37748327      19.33347309
Si       8.89171601       6.80606351      11.89670587
Si       4.67603324       4.08897813       6.85424398
Si       5.82678085       7.94783448       9.33768928
Si       5.36758322       4.45304129       5.07236997
Si       6.36387530       1.83731371      11.71699940
Si       8.91955244       3.17056767      19.70012800
Si       5.02985582       2.11781459       6.92766101
22
Lattice="5.287463292100822 0.38342652121129334 1.1523822856382262 2.9453631014232924 6.907568763569228 1.1412253997043829 3.76993613630227 2.1719673730803084 19.050421722918745" Properties=species:S:1:pos:R:3 unique_starting_index=40 config_type=initial n_minim_iter=8 stress="0.040492018336751985 0.004087532592966309 -0.008641525896680614 0.004087532592966309 0.034010472183019336 0.005968858769685482 -0.008641525896680614 0.005968858769685482 -0.018033875828401894" pbc="T T T"
Si       9.09008023       5.06692196      17.86751640
Si       3.43670148       3.06751655       5.87766889
Si       5.65812750       1.76532976       9.15355594
Si       5.62644550       5.31610216      16.00821228
Si       6.16231879       4.77006308      18.27904664
Si       7.42199249       7.36119266       9.58901750
Si       5.84949648       3.12843585       4.02494413
Si       6.51616568       6.66604342      13.08743720
Si       4.92547706       3.06448089       0.68821902
Si       7.66795448       6.70708988      19.21031147
Si       5.93291498       3.03955450      13.36006105
Si       4.64194061       6.33403501      13.67052122
Si       2.15040196       3.73367093       0.83411298
Si       3.25636581       0.87657870       9.99979632
Si       5.88619695       2.95646232      19.02401939
Si       8.92370251       7.39264041      11.70812673
Si       4.66081662       4.37535568       6.74247028
Si       5.90446755       8.50338732       9.27966712
Si       5.41865115       4.79459653       5.02022567
Si       6.24576660       2.18347748      11.47855358
Si       8.75648258       3.81946011      19.35118195
Si       5.00488968       2.37521282       6.81540845
22
Lattice="5.291656932469732 0.5104434029005848 1.1770974180424076 3.081886047278823 6.988921903496772 1.2606504512236907 3.8169769861416243 2.5635737949135207 19.338450078923376" Properties=species:S:1:pos:R:3 unique_starting_index=40 config_type=initial n_minim_iter=9 stress="0.0235338815607317 0.0023428380185576817 0.005715592333501162 0.0023428380185576817 0.014905145760613858 0.010490825351896497 0.005715592333501162 0.010490825351896497 -0.0004249425960169236" pbc="T T T"
Si       9.09901988       5.61703038      18.16855809
Si       3.50158914       3.21555162       6.00679204
Si       5.62836047       2.06303396       9.30698655
Si       5.67178293       5.66845677      16.33669595
Si       6.25146393       5.21212194      18.58567243
Si       7.55453089       7.64634081       9.86312608
Si       5.89653976       3.33479647       4.11881714
Si       6.63606893       7.02803833      13.32499737
Si       4.95263802       3.10172946       0.74063698
Si       7.80805170       7.08094154      19.55181739
Si       5.99221302       3.36654651      13.58013586
Si       4.77484016       6.67023979      13.93516878
Si       2.28553226       3.72511120       0.86049986
Si       3.28268636       1.10818327      10.16917154
Si       6.00482640       3.48861702      19.34555248
Si       9.12825708       7.79142948      11.96988349
Si       4.72752262       4.50584770       6.87118995
Si       6.12427863       8.85205796       9.57064697
Si       5.53797118       5.02474626       5.19673622
Si       6.26326005       2.45590845      11.65434951
Si       8.87490275       4.39772955      19.67717265
Si       5.07450568       2.58502574       6.97032758
22
Lattice="5.286669651996259 0.5665782095430172 1.136316233578404 3.16910341510504 7.05609111069865 1.1501958025220405 3.7348913632461076 2.3771122814129892 19.138402101318576" Properties=species:S:1:pos:R:3 unique_starting_index=40 config_type=initial n_minim_iter=10 stress="0.03962854838914754 0.014862764234830126 -0.006040246842078893 0.014862764234830126 0.01737059831415057 -0.026807166073304096 -0.006040246842078893 -0.026807166073304096 0.006831921505433926" pbc="T T T"
Si       8.98690626       5.60280732      17.91204134
Si       3.51106328       3.18135533       5.90630685
Si       5.55032192       2.06640067       9.19235021
Si       5.57750952       5.52719675      16.13770298
Si       6.17740976       5.08934824      18.34888712
Si       7.58179791       7.62635633       9.68923609
Si       5.89922744       3.40988501       4.02093485
Si       6.63609633       6.99902034      13.05384588
Si       4.95540986       3.10898744       0.65835591
Si       7.82546064       6.88898717      19.24776208
Si       5.95612774       3.28283112      13.40764747
Si       4.78142953       6.60489691      13.70759844
Si       2.35736388       3.67390643       0.76247701
Si       3.24669194       1.01999357      10.08693321
Si       5.99827039       3.44694752      19.14858572
Si       9.21957005       7.82625492      11.72794129
Si       4.72291188       4.43945610       6.71306671
Si       6.20497461       8.92688504       9.40456411
Si       5.60304258       5.07981305       5.09160603
Si       6.19518846       2.35355109      11.48793106
Si       8.85755907       4.35652659      19.41608754
Si       5.09967899       2.57038936       6.86774759
22
Lattice="5.273249253657748 0.6455103414266253 1.171846536443486 3.2243648961735847 7.159385246652634 1.3150245187291938 3.7808024491631453 2.8499377587060826 19.463667359447463" Properties=species:S:1:pos:R:3 unique_starting_index=40 config_type=initial n_minim_iter=11 stress="0.033155476690416984 0.014696521879122768 0.004358999962634529 0.014696521879122768 0.03886967377074153 -0.0009896828524129835 0.004358999962634529 -0.0009896828524129835 0.003388313630298859" pbc="T T T"
Si       8.97670225       6.18384298      18.29913115
Si       3.54100800       3.34475285       6.06122553
Si       5.53493304       2.37905245       9.38726229
Si       5.57199209       5.93667976      16.50596904
Si       6.19735952       5.58416128      18.72697604
Si       7.62760561       7.92761182      10.01621814
Si       5.90266954       3.60892027       4.16480884
Si       6.68575215       7.41311378      13.33752132
Si       4.94062705       3.15464482       0.72648294
Si       7.94248364       7.35499162      19.64604463
Si       5.99516188       3.65621222      13.67916204
Si       4.85265712       7.00820959      14.02907430
Si       2.40257993       3.64731418       0.81703807
Si       3.27768955       1.27340378      10.28967905
Si       6.10961044       4.06159805      19.52876350
Si       9.33487273       8.24382313      12.06025354
Si       4.73778073       4.60549800       6.88153542
Si       6.29061416       9.30805206       9.77621299
Si       5.66847196       5.29359762       5.29543730
Si       6.18840359       2.63709336      11.69144351
Si       8.94186737       4.94566997      19.76794068
Si       5.14950282       2.78127577       7.02716430
22
Lattice="5.222569394146604 0.7398547020658053 1.2724118974202447 3.2829525084113302 7.176699089212019 1.534518521190388 3.9221816552512982 3.3464948015474496 20.26243968683783" Properties=species:S:1:pos:R:3 unique_starting_index=40 config_type=initial n_minim_iter=12 stress="-0.035300578387087625 -0.025888599221557 0.03164946663383538 -0.025888599221557 0.031005152600441385 -0.02540325293792129 0.03164946663383538 -0.02540325293792129 0.014133662230492249" pbc="T T T"
Si       8.91474022       6.83768337      19.23801134
Si       3.58693033       3.45252627       6.37496228
Si       5.50281280       2.74908954       9.85201166
Si       5.57200581       6.27739452      17.29183030
Si       6.26463004       6.08239495      19.60511262
Si       7.68699946       8.15385164      10.67602586
Si       5.87528114       3.84467396       4.48387937
Si       6.75842869       7.77835444      13.93283942
Si       4.86177473       3.20450005       0.84093592
Si       8.20083995       7.63957933      20.50427630
Si       6.09394808       4.04908613      14.32859624
Si       4.98326656       7.37374169      14.68927921
Si       2.44937059       3.44174923       0.83786033
Si       3.38354646       1.57182593      10.75143477
Si       6.40355177       4.88707506      20.46631230
Si       9.53604348       8.62637642      12.72952871
Si       4.74159302       4.68331384       7.21262730
Si       6.39860225       9.66529426      10.50408133
Si       5.77745475       5.46838140       5.67703247
Si       6.16731335       2.87933439      12.18416765
Si       9.10838864       5.54992254      20.53693795
Si       5.24991617       2.98669100       7.36768505
22
Lattice="5.204149919239207 0.8217732610072362 1.3292219588984246 3.3367416914068055 7.208107094310539 1.7371254138366719 3.966518826405474 3.8630117923746723 20.883056416538565" Properties=species:S:1:pos:R:3 unique_starting_index=40 config_type=initial n_minim_iter=13 stress="-0.0655657340019812 -0.06134854554755851 0.06481541816704896 -0.06134854554755851 0.0043272154903401935 -0.013752456804755108 0.06481541816704896 -0.013752456804755108 0.006623057771641503" pbc="T T T"
Si       8.89113540       7.44021397      19.96599811
Si       3.61411736       3.59319209       6.62351037
Si       5.49353332       3.08604646      10.20530758
Si       5.54437081       6.66297321      17.89753097
Si       6.30041030       6.61821084      20.29530491
Si       7.73157983       8.41784772      11.19451211
Si       5.86752483       4.04734039       4.74201492
Si       6.79168047       8.14617402      14.43103568
Si       4.85218709       3.23172253       0.92924329
Si       8.32774235       8.03124314      21.19344487
Si       6.14153096       4.45286659      14.82916503
Si       5.04613415       7.74950610      15.23275605
Si       2.46081171       3.32859384       0.86079481
Si       3.43431794       1.87494877      11.10200413
Si       6.54130027       5.62560269      21.18331830
Si       9.65276998       9.01022641      13.25641796
Si       4.74388365       4.82213512       7.47877751
Si       6.46664497       9.99939694      11.06797520
Si       5.84852887       5.63655199       5.97543341
Si       6.14274787       3.16679038      12.56097532
Si       9.16238573       6.15149906      21.13244339
Si       5.30204221       3.19647572       7.62629061
22
Lattice="5.148397269867479 0.9229991264063043 1.3551709103466596 3.3904719371184506 7.282167017168203 1.9291547676392422 3.860649325315656 4.414668944580627 21.531349751835524" Properties=species:S:1:pos:R:3 unique_starting_index=40 config_type=initial n_minim_iter=14 stress="-0.13729270183869613 -0.08893032635096212 0.08542868759953641 -0.08893032635096212 -0.036943032566445086 0.0039518064959716895 0.08542868759953641 0.0039518064959716895 -0.005156499073564289" pbc="T T T"
Si       8.73722786       8.10413457      20.72375389
Si       3.59766707       3.77431421       6.87444197
Si       5.42220682       3.46097870      10.55309079
Si       5.40456694       7.09847658      18.50130287
Si       6.18873937       7.21280537      20.98787324
Si       7.69456192       8.75440312      11.69530124
Si       5.80151700       4.28660625       5.01688651
Si       6.71924435       8.56660680      14.93122543
Si       4.86053682       3.30364289       1.01058772
Si       8.30039507       8.51050111      21.88243306
Si       6.07553009       4.90772446      15.33273889
Si       5.00370519       8.17419104      15.79048808
Si       2.45204860       3.23353795       0.82394644
Si       3.40200330       2.20606558      11.45283289
Si       6.45318993       6.37756077      21.90788174
Si       9.64223821       9.45594662      13.75893344
Si       4.67735560       4.99038930       7.73330939
Si       6.44804828      10.38316034      11.61495336
Si       5.86473501       5.83975508       6.24989337
Si       6.01016524       3.50323553      12.94254380
Si       9.05092334       6.80927320      21.71357294
Si       5.27413229       3.45416600       7.86366483
22
Lattice="5.107033221217592 0.9847527968428863 1.4066944376792885 3.3953380730780935 7.319765093253955 2.1688425757747107 3.8218941172225565 5.0218648771525904 22.284148869566064" Properties=species:S:1:pos:R:3 unique_starting_index=40 config_type=initial n_minim_iter=15 stress="-0.15714376901590335 -0.09939467136980085 0.10755847077426171 -0.09939467136980085 -0.060475704271081426 0.02038804592741185 0.10755847077426171 0.02038804592741185 0.013029467399384199" pbc="T T T"
Si       8.71535955       8.73365362      21.62840061
Si       3.57427393       3.94526765       7.16828917
Si       5.41206882       3.81492502      10.96664565
Si       5.30268329       7.56441756      19.21344664
Si       6.17406543       7.84539538      21.77893759
Si       7.66486644       9.08689238      12.29885008
Si       5.73884107       4.47615468       5.36584612
Si       6.65869622       8.97057539      15.55898229
Si       4.85514328       3.34335641       1.14291473
Si       8.31473045       9.08393932      22.74470670
Si       6.05836239       5.39101507      15.94516652
Si       4.96592336       8.60218974      16.45601721
Si       2.37293334       3.13387905       0.78742071
Si       3.41413157       2.55760387      11.84210150
Si       6.38533913       7.10401517      22.72970664
Si       9.61091148       9.84296312      14.37952121
Si       4.62455612       5.17242956       8.07719599
Si       6.37026839      10.70167067      12.24677572
Si       5.86251885       5.99744774       6.57414482
Si       5.93065188       3.86080006      13.41362849
Si       8.97327695       7.42540696      22.41946763
Si       5.26149488       3.71883525       8.14060644
22
Lattice="5.064748728718363 1.0039299787138853 1.4603499671401743 3.337348597662746 7.313207209528332 2.4455884335252462 3.7672566016433913 5.688702016245732 23.066909044678546" Properties=species:S:1:pos:R:3 unique_starting_index=40 config_type=initial n_minim_iter=16 stress="-0.14732857701146584 -0.08187076829049042 0.0932509396956432 -0.08187076829049042 -0.06636581293798012 0.06134347837338415 0.0932509396956432 0.06134347837338415 0.054825080899069914" pbc="T T T"
Si       8.68087905       9.34458553      22.64638752
Si       3.52377918       4.10853435       7.47537876
Si       5.42546764       4.15848986      11.40619686
Si       5.20149759       8.05874366      19.92950846
Si       6.10367931       8.48130826      22.60268106
Si       7.57789188       9.40113946      12.94860511
Si       5.65686860       4.63534549       5.77145212
Si       6.54397960       9.35830936      16.25469697
Si       4.82553031       3.33576263       1.27391734
Si       8.29450762       9.68534218      23.68918164
Si       6.02577763       5.90101478      16.60527507
Si       4.86334635       9.02903078      17.17167766
Si       2.22699293       3.08655856       0.77691489
Si       3.41995021       2.92441128      12.23226233
Si       6.26188954       7.77283368      23.51738453
Si       9.48585643      10.16528342      15.05011122
Si       4.54988934       5.36997527       8.46269312
Si       6.19092929      10.95559413      12.90065031
Si       5.80810258       6.08983079       6.90512656
Si       5.84888856       4.23378491      13.91038162
Si       8.85551517       8.05768203      23.18056064
Si       5.21683366       3.96926227       8.41653468
22
Lattice="5.035890330857179 1.038860895251983 1.4176348784084338 3.3259921694596364 7.295384457812237 2.5698202110375443 3.4994146784301137 6.101177242048258 23.365760116232494" Properties=species:S:1:pos:R:3 unique_starting_index=40 config_type=initial n_minim_iter=17 stress="-0.1727546602846369 -0.05585813827263171 0.0415280934715677 -0.05585813827263171 -0.09574940320307204 0.08499963738288066 0.0415280934715677 0.08499963738288066 0.029441517827430642" pbc="T T T"
Si       8.52417571       9.74415149      23.11879779
Si       3.43253597       4.18960387       7.56463058
Si       5.37774846       4.41756628      11.55972070
Si       4.91656776       8.34443994      20.20394133
Si       5.88823139       8.92570627      22.89795370
Si       7.44777698       9.62496510      13.20610872
Si       5.56252501       4.78669043       6.00760358
Si       6.32385273       9.59282935      16.49453488
Si       4.74291609       3.27444291       1.30912592
Si       8.10982138      10.00164709      24.01943743
Si       5.87965183       6.26377014      16.87713327
Si       4.65184931       9.27355834      17.44321204
Si       2.13468477       3.04054743       0.61394795
Si       3.32991831       3.16483389      12.36778531
Si       5.95622217       8.23485463      23.72856775
Si       9.30598067      10.36559830      15.26918031
Si       4.43423496       5.50312161       8.60389639
Si       5.97960097      11.09192113      13.15638037
Si       5.75978750       6.13059933       6.98548979
Si       5.65214747       4.45816720      14.05262579
Si       8.58138104       8.47160843      23.38081745
Si       5.11715124       4.12823592       8.44615475
22
Lattice="5.037487487139412 1.0001051959818192 1.4016730950105896 3.268482271655021 7.188722711733145 2.6036802610712773 3.392233426146959 6.159811104078512 23.4950455644914" Properties=species:S:1:pos:R:3 unique_starting_index=40 config_type=initial n_minim_iter=18 stress="-0.15302696906411598 -0.016612009097699165 -0.006591747281949558 -0.016612009097699165 -0.06794549665384497 0.12301244898466433 -0.006591747281949558 0.12301244898466433 0.049722234379669064" pbc="T T T"
Si       8.47941487       9.62712150      23.29142185
Si       3.38209477       4.14301019       7.58886365
Si       5.41324844       4.42256708      11.64126907
Si       4.78782215       8.33886419      20.32160733
Si       5.81021388       8.95958026      23.01000783
Si       7.37295672       9.56397809      13.28721588
Si       5.50511832       4.76028920       6.14616255
Si       6.19128034       9.52214150      16.60572606
Si       4.71109180       3.17478292       1.34708107
Si       8.03646649       9.98293938      24.19692275
Si       5.83084278       6.30782951      17.00885001
Si       4.51992253       9.21581478      17.54390389
Si       2.06374545       3.04389841       0.53573770
Si       3.30654328       3.20127776      12.41254957
Si       5.77642172       8.23295407      23.73508321
Si       9.16974571      10.25600454      15.35295157
Si       4.37489517       5.51205157       8.68901183
Si       5.79101592      10.93677781      13.23038749
Si       5.71391384       5.99439882       6.97160593
Si       5.58675161       4.46374584      14.12741657
Si       8.44640658       8.46155638      23.47798773
Si       5.06381388       4.10276296       8.42362275
22