22
Lattice="9.026887352702065 -2.854840430453827 -1.2429741076792422 -8.174631388867693 9.288797707741372 -1.7664221712012487 -5.076065320817227 -1.5237249052123394 11.850849600781247" Properties=species:S:1:pos:R:3 unique_starting_index=18 config_type=initial n_minim_iter=1 energy=-4252.823233761442 free_energy=-4252.823233761442 pbc="T T T"
Si      -0.94924803       6.23213831       0.06013269
Si       1.02639366       0.03523001       9.58002220
Si      -4.34882599      -1.09929410       9.40136912
Si       0.67590333       0.33976789      10.58994610
Si      -8.31421198       3.73783003      10.80527030
Si       6.12716100       1.05887330      -1.46316770
Si       3.61924099       0.35832440      -2.14007852
Si      -1.87212625       0.13326294       9.37265128
Si      -1.82895360      -0.41732372      10.13196794
Si      -8.05326679       2.52784619       5.24455692
Si       1.07747092      -0.04668526       3.05906374
Si      -5.94364051       4.63055784       5.33314975
Si      -4.08594537      -1.22492736       8.43966308
Si      -3.54537066       5.55813645      -0.19268172
Si       0.58241112       0.57733702       4.17095688
Si      -0.56472010       5.51567870      -0.41339884
Si      -1.59377845      -1.00109612       3.51469500
Si       5.07221413      -4.82921171       7.85948468
Si       0.68876960       0.84961490       3.21915425
Si      -5.77930632       3.83062990       5.95518955
Si      -5.53158528       3.77246847       4.96728381
Si      -1.48833299      -0.61956363       8.95623709
22
Lattice="9.028412690003666 -2.853849388145676 -1.2425942965768513 -8.175412601401298 9.28787897472895 -1.7668201649900837 -5.076811158169954 -1.5243440635801535 11.850678005855187" Properties=species:S:1:pos:R:3 unique_starting_index=18 config_type=initial n_minim_iter=2 stress="0.003890874938299843 -0.0033029109289853405 0.001852323990138636 -0.0033029109289853405 0.007373559978136424 0.004513356564826194 0.001852323990138636 0.004513356564826194 0.0025044860727384444" pbc="T T T"
Si      -0.94876184       6.23199188       0.06004895
Si       1.02699050       0.03528005       9.58007783
Si      -4.34948444      -1.09982144       9.40122548
Si       0.67650566       0.33976475      10.58998244
Si      -8.31511987       3.73682641      10.80493802
Si       6.12849321       1.05954274      -1.46293688
Si       3.61994657       0.35873028      -2.13993511
Si      -1.87211680       0.13298186       9.37258709
Si      -1.82897710      -0.41759329      10.13190968
Si      -8.05446286       2.52693712       5.24422705
Si       1.07782234      -0.04659024       3.05912112
Si      -5.94417734       4.62984295       5.33288390
Si      -4.08658003      -1.22541611       8.43953582
Si      -3.54553004       5.55771802      -0.19286409
Si       0.58276164       0.57735880       4.17097354
Si      -0.56426549       5.51559049      -0.41344749
Si      -1.59408516      -1.00128614       3.51462792
Si       5.07306569      -4.82869179       7.85973157
Si       0.68913666       0.84965415       3.21917664
Si      -5.77986101       3.82994407       5.95493607
Si      -5.53214380       3.77181895       4.96704108
Si      -1.48834695      -0.61977176       8.95620593
22
Lattice="9.025889836307687 -2.84524813422729 -1.242029782801186 -8.168735770812303 9.275616153639467 -1.770233061510129 -5.078984752845215 -1.5326152126818262 11.848748620034021" Properties=species:S:1:pos:R:3 unique_starting_index=18 config_type=initial n_minim_iter=3 stress="-0.0005226189905241044 0.0005537238693405752 -0.0014177379652578759 0.0005537238693405752 -0.003618530274019497 -0.0002449202516701359 -0.0014177379652578759 -0.0002449202516701359 -0.0042227354525687915" pbc="T T T"
Si      -0.94466481       6.22558942       0.05665762
Si       1.02529449       0.03070537       9.57697507
Si      -4.35133659      -1.10669073       9.39982279
Si       0.67500706       0.33399284      10.58632015
Si      -8.31383992       3.72214879      10.80109343
Si       6.12867753       1.06326654      -1.46415014
Si       3.62008424       0.36189478      -2.13994643
Si      -1.87303584       0.12621249       9.36988430
Si      -1.83064857      -0.42404229      10.12923369
Si      -8.05287146       2.51706964       5.24250816
Si       1.07737680      -0.04760022       3.05825587
Si      -5.94176362       4.61884905       5.32952214
Si      -4.08791948      -1.23141688       8.43862283
Si      -3.54197284       5.55053948      -0.19537319
Si       0.58237445       0.57466941       4.16905801
Si      -0.56093431       5.51055019      -0.41599555
Si      -1.59525695      -1.00330468       3.51398162
Si       5.06835432      -4.82560333       7.85916911
Si       0.68911753       0.84733033       3.21751774
Si      -5.77784188       3.81969074       5.95177132
Si      -5.53025950       3.76237190       4.96423764
Si      -1.48983662      -0.62483661       8.95429172
22
Lattice="9.021958430694616 -2.8449975443842606 -1.2394893624101617 -8.165178554763738 9.280454424882315 -1.7796298131475572 -5.073530543018648 -1.5395713491191814 11.864366656996346" Properties=species:S:1:pos:R:3 unique_starting_index=18 config_type=initial n_minim_iter=4 stress="-0.002899467703498275 0.0009435433755947561 0.0009661167499218867 0.0009435433755947561 -0.0010858370308493492 -0.0021515689161170984 0.0009661167499218867 -0.0021515689161170984 0.009600308087670727" pbc="T T T"
Si      -0.94262851       6.22883809       0.05365964
Si       1.02787623       0.02693378       9.59058539
Si      -4.34769849      -1.11192884       9.41277021
Si       0.67859433       0.33007888      10.60091897
Si      -8.30772022       3.71741409      10.81249761
Si       6.12660400       1.06614460      -1.46517184
Si       3.61843383       0.36393231      -2.14170858
Si      -1.86868301       0.12109423       9.38222543
Si      -1.82687934      -0.42882842      10.14279491
Si      -8.04779246       2.51513405       5.24609893
Si       1.07858929      -0.04911649       3.06359841
Si      -5.93792220       4.61732312       5.33269192
Si      -4.08332516      -1.23643966       8.45065620
Si      -3.54054474       5.55299221      -0.19924268
Si       0.58367219       0.57293176       4.17398740
Si      -0.56021899       5.51359829      -0.41836181
Si      -1.59408112      -1.00580117       3.51766494
Si       5.06852351      -4.83086874       7.87359335
Si       0.69003482       0.84614400       3.22150432
Si      -5.77299708       3.81825713       5.95616604
Si      -5.52675501       3.76139274       4.96736666
Si      -1.48611971      -0.62895486       8.96715888
22
Lattice="9.023353896055777 -2.849741795213519 -1.238361129940443 -8.168320623867077 9.289879603342778 -1.7778612713710222 -5.07276237292611 -1.5381122736763284 11.855720285572977" Properties=species:S:1:pos:R:3 unique_starting_index=18 config_type=initial n_minim_iter=5 stress="-0.000710291502465635 -0.0016477958310941604 0.000654166103151915 -0.0016477958310941604 0.000640738854871929 0.00033976708435504567 0.000654166103151915 0.00033976708435504567 -5.591920933582959e-05" pbc="T T T"
Si      -0.94386931       6.23410699       0.05432440
Si       1.02862554       0.02817746       9.58409125
Si      -4.34804068      -1.11031290       9.40660822
Si       0.67945813       0.33213382      10.59338533
Si      -8.30931735       3.72331762      10.80587250
Si       6.12719538       1.06614531      -1.46436399
Si       3.61878716       0.36348742      -2.13990476
Si      -1.86788052       0.12208645       9.37578837
Si      -1.82658182      -0.42700722      10.13540351
Si      -8.04855848       2.51996830       5.24218478
Si       1.07950385      -0.04946227       3.06240955
Si      -5.93978008       4.62236677       5.32905215
Si      -4.08235090      -1.23539588       8.44566346
Si      -3.54279607       5.55818748      -0.19858006
Si       0.58380408       0.57352311       4.17021414
Si      -0.56161856       5.51794992      -0.41664847
Si      -1.59393148      -1.00582678       3.51393271
Si       5.07077332      -4.83472817       7.86741392
Si       0.69003388       0.84669722       3.21911511
Si      -5.77372074       3.82351191       5.95177502
Si      -5.52813228       3.76647053       4.96379132
Si      -1.48507526      -0.62781835       8.96141589
22
Lattice="9.018533214257076 -2.8473740343505844 -1.2423641423359266 -8.158812119388582 9.29560401162304 -1.7770422934499353 -5.076564317599221 -1.5448084032066205 11.864870494977342" Properties=species:S:1:pos:R:3 unique_starting_index=18 config_type=initial n_minim_iter=6 stress="0.00020681998417363868 0.000851147692119804 -0.005657005123815892 0.000851147692119804 0.0034408649638227613 0.0004934798743826735 -0.005657005123815892 0.0004934798743826735 0.0029219539147939764" pbc="T T T"
Si      -0.94133311       6.24008479       0.05310274
Si       1.02514593       0.02821644       9.58856154
Si      -4.35237957      -1.11539087       9.41573818
Si       0.67484616       0.33187110      10.59831350
Si      -8.30806502       3.72010724      10.81691222
Si       6.12652142       1.07335510      -1.46956904
Si       3.61860891       0.36747881      -2.14233999
Si      -1.87158217       0.11821077       9.38205510
Si      -1.83137318      -0.42951091      10.14166694
Si      -8.04612106       2.51712470       5.24842476
Si       1.07836447      -0.05046753       3.06526291
Si      -5.93701273       4.62149080       5.33391189
Si      -4.08540711      -1.24086751       8.45496189
Si      -3.53889884       5.56232010      -0.19708436
Si       0.58198885       0.57285180       4.16998725
Si      -0.55706685       5.52324093      -0.41780342
Si      -1.59452545      -1.00803869       3.51649648
Si       5.06289051      -4.83687033       7.86953680
Si       0.68891947       0.84604811       3.21898509
Si      -5.77113060       3.82313973       5.95615219
Si      -5.52471919       3.76706642       4.96768405
Si      -1.48822096      -0.63162365       8.96792365
22
Lattice="9.013641445709485 -2.8464152814460975 -1.2343443299632555 -8.156117226875676 9.295666542320918 -1.7855539077073723 -5.064893976407251 -1.5476415289017276 11.860866651179458" Properties=species:S:1:pos:R:3 unique_starting_index=18 config_type=initial n_minim_iter=7 stress="-0.00010492719861172369 -0.0010825144387306507 0.0013218722623838332 -0.0010825144387306507 -0.00266805171141013 0.0012915728729252904 0.0013218722623838332 0.0012915728729252904 0.0021123446613892914" pbc="T T T"
Si      -0.94106215       6.24004062       0.05071511
Si       1.03322620       0.02702427       9.58877639
Si      -4.34373542      -1.11757741       9.41332934
Si       0.68330316       0.33029209      10.59832311
Si      -8.29559119       3.71717727      10.81033993
Si       6.12339638       1.07563176      -1.46559008
Si       3.61567046       0.36901932      -2.13899685
Si      -1.86358107       0.11552809       9.38042994
Si      -1.82270551      -0.43116569      10.14010976
Si      -8.03814504       2.51547527       5.24160451
Si       1.08081058      -0.05160597       3.06698874
Si      -5.92994395       4.61928592       5.32819065
Si      -4.07753772      -1.24301235       8.45310720
Si      -3.53782559       5.56241447      -0.20036015
Si       0.58522973       0.57168352       4.16904018
Si      -0.55613888       5.52336208      -0.41952763
Si      -1.59054138      -1.00852931       3.51528604
Si       5.06722683      -4.83717428       7.87414006
Si       0.69131344       0.84454800       3.21830277
Si      -5.76325645       3.82150300       5.95014821
Si      -5.51738139       3.76607401       4.96195332
Si      -1.48009360      -0.63398088       8.96699588
22
Lattice="9.001185847360246 -2.8437197763927275 -1.2228837486217734 -8.14141828187709 9.312110240049435 -1.8023459822036607 -5.052333403160426 -1.5710111136462943 11.848930333909204" Properties=species:S:1:pos:R:3 unique_starting_index=18 config_type=initial n_minim_iter=8 stress="-0.0006226462735388764 0.0011810736371398315 0.0019828028325196783 0.0011810736371398315 0.0048085528782733 -0.003591023246878185 0.0019828028325196783 -0.003591023246878185 -0.001674395139607771" pbc="T T T"
Si      -0.93526046       6.25242723       0.04078454
Si       1.04064362       0.01580679       9.57886221
Si      -4.33476100      -1.13635464       9.40605199
Si       0.68970592       0.31783935      10.58875718
Si      -8.27723181       3.70430501      10.79159425
Si       6.11791256       1.08737452      -1.46294527
Si       3.61146504       0.37719134      -2.13342840
Si      -1.85578971       0.10097955       9.37070493
Si      -1.81444318      -0.44598081      10.13133018
Si      -8.02283467       2.50703627       5.22937649
Si       1.08325597      -0.05643118       3.06656747
Si      -5.91693693       4.61629630       5.31359021
Si      -4.06993126      -1.25957051       8.44640357
Si      -3.53241721       5.57256826      -0.20817581
Si       0.58796527       0.56744278       4.16263766
Si      -0.54999479       5.53575903      -0.42774316
Si      -1.58718428      -1.01579936       3.51235931
Si       5.06479979      -4.85263322       7.87731921
Si       0.69376632       0.84054193       3.21198796
Si      -5.74995313       3.81653304       5.93477006
Si      -5.50334084       3.76355498       4.94739700
Si      -1.47146504      -0.64955772       8.95893270
22
Lattice="8.992623054108327 -2.838819386148877 -1.2221597453979456 -8.128837750711362 9.311915130838178 -1.8024404921982662 -5.049104893299445 -1.5755237916917797 11.8468770860178" Properties=species:S:1:pos:R:3 unique_starting_index=18 config_type=initial n_minim_iter=9 stress="0.006787031721231126 -0.0032047806020447486 -0.0011391883602372976 -0.0032047806020447486 -0.002116353162870586 -0.002953650014910753 -0.0011391883602372976 -0.002953650014910753 0.001345815747800618" pbc="T T T"
Si      -0.93030735       6.25429165       0.03971039
Si       1.04288767       0.01793933       9.57360497
Si      -4.33404740      -1.14092813       9.40861685
Si       0.68903458       0.32036167      10.58697536
Si      -8.26982607       3.70028554      10.79111756
Si       6.11645898       1.09580400      -1.46452488
Si       3.61038972       0.38219556      -2.13055163
Si      -1.85566362       0.09868451       9.36930302
Si      -1.81420184      -0.44516424      10.13110835
Si      -8.01274023       2.50179238       5.23098212
Si       1.08522782      -0.05787462       3.06787002
Si      -5.91076027       4.61295092       5.31364341
Si      -4.06949298      -1.26148120       8.44695292
Si      -3.53009985       5.57332994      -0.20442598
Si       0.58780798       0.56795271       4.15870122
Si      -0.54368702       5.53858521      -0.42915433
Si      -1.58741625      -1.01562754       3.51138496
Si       5.05989174      -4.84952469       7.87660616
Si       0.69445386       0.83837582       3.20682844
Si      -5.74260491       3.81374482       5.93238309
Si      -5.49379990       3.76189566       4.94431241
Si      -1.46860168      -0.65262375       8.95754590
22
Lattice="8.980269555181776 -2.8321599267923947 -1.2207414799252834 -8.111819200231748 9.30822326105205 -1.7993625343594852 -5.04220547935379 -1.5753707397044237 11.840823588448128" Properties=species:S:1:pos:R:3 unique_starting_index=18 config_type=initial n_minim_iter=10 stress="0.002343214647473031 0.0033387541816786697 0.0012843739156241703 0.0033387541816786697 0.00020767256292341963 0.001924804384013102 0.0012843739156241703 0.001924804384013102 -0.0004018992285038277" pbc="T T T"
Si      -0.92346095       6.25650509       0.04203961
Si       1.04528296       0.02431634       9.56923077
Si      -4.32886600      -1.14156841       9.40535520
Si       0.69156360       0.32723968      10.58375678
Si      -8.25552132       3.69960608      10.78781640
Si       6.11180499       1.10289651      -1.46259701
Si       3.60683384       0.38562537      -2.12773518
Si      -1.85176245       0.10115115       9.36568330
Si      -1.81070973      -0.44116855      10.12762754
Si      -7.99999048       2.49748743       5.22943149
Si       1.08587361      -0.05631259       3.06768478
Si      -5.89942985       4.61177234       5.31311876
Si      -4.06477067      -1.26098026       8.44304281
Si      -3.52245940       5.57284737      -0.20105198
Si       0.58870547       0.57096269       4.15655755
Si      -0.53730785       5.54066579      -0.42691875
Si      -1.58604930      -1.01526783       3.50910184
Si       5.05263059      -4.84263996       7.87308160
Si       0.69569884       0.84003195       3.20451022
Si      -5.73097659       3.81291339       5.93041192
Si      -5.48228571       3.76103187       4.94234117
Si      -1.46489321      -0.65045803       8.95392147
22
Lattice="8.967994218359642 -2.8255578319565595 -1.2171959553669338 -8.094397198178031 9.30994200578528 -1.8018157438204638 -5.035969563076578 -1.58459611424577 11.83145876947141" Properties=species:S:1:pos:R:3 unique_starting_index=18 config_type=initial n_minim_iter=11 stress="0.006651730351525031 0.002381753976968625 0.0017908248465400005 0.002381753976968625 0.0005834876934756412 -0.0008698917527338068 0.0017908248465400005 -0.0008698917527338068 -0.0012842302954211829" pbc="T T T"
Si      -0.91796945       6.26187521       0.03829670
Si       1.04861422       0.02494303       9.55924401
Si      -4.32550552      -1.15130176       9.40102839
Si       0.69510657       0.32694416      10.57606661
Si      -8.24322258       3.69311114      10.77919018
Si       6.10946507       1.11345820      -1.46159795
Si       3.60388659       0.39183712      -2.12257291
Si      -1.84947225       0.09597804       9.35739252
Si      -1.80963561      -0.44372008      10.12158717
Si      -7.98729646       2.48946515       5.22591011
Si       1.08798448      -0.05883818       3.06679142
Si      -5.88982108       4.60841436       5.30818167
Si      -4.06042609      -1.26491960       8.43697026
Si      -3.51625304       5.57518934      -0.20007106
Si       0.58837287       0.57161971       4.15088733
Si      -0.52997264       5.54490754      -0.42875114
Si      -1.58417645      -1.01751711       3.50613651
Si       5.04554701      -4.84354388       7.87022383
Si       0.69719117       0.83883536       3.19750259
Si      -5.71767798       3.80905411       5.92361801
Si      -5.46991565       3.75824160       4.93544254
Si      -1.46174063      -0.65481614       8.94756729
22
Lattice="8.957112427296948 -2.817651841417094 -1.2221304680683944 -8.076231892472 9.303086443119302 -1.7918078961085393 -5.036757513596399 -1.5814478677576123 11.830805142324612" Properties=species:S:1:pos:R:3 unique_starting_index=18 config_type=initial n_minim_iter=12 stress="0.00873011429868807 0.0036745271860254714 0.0020660013601811445 0.0036745271860254714 0.0002708302912632066 0.0003263037773680108 0.0020660013601811445 0.0003263037773680108 -0.0009369791531801532" pbc="T T T"
Si      -0.91097534       6.26421794       0.04089384
Si       1.04526079       0.03478287       9.55598967
Si      -4.32706448      -1.15174537       9.40223868
Si       0.69143228       0.33551164      10.57434048
Si      -8.23773376       3.69426461      10.78551897
Si       6.10796925       1.12085433      -1.46366456
Si       3.60295644       0.39645147      -2.12025983
Si      -1.85154675       0.10078066       9.35627058
Si      -1.81266867      -0.43592631      10.12250862
Si      -7.97847071       2.48556383       5.23199088
Si       1.08763622      -0.05819702       3.06717517
Si      -5.88298846       4.60732360       5.31409560
Si      -4.06232992      -1.26112610       8.43697212
Si      -3.50960918       5.57278055      -0.19311566
Si       0.58596533       0.57623780       4.14830585
Si      -0.52132687       5.54542152      -0.42408472
Si      -1.58284869      -1.01600151       3.50551816
Si       5.03452518      -4.83362113       7.86405644
Si       0.69647479       0.84046521       3.19369740
Si      -5.70857341       3.80737757       5.92767484
Si      -5.46123761       3.75811975       4.93942854
Si      -1.46316827      -0.64962969       8.94791332
22
Lattice="8.937264577528985 -2.8033763618843635 -1.2343073805693385 -8.04150126750511 9.293107614191712 -1.7711824157513885 -5.041855392401845 -1.5762715763939148 11.83443692905388" Properties=species:S:1:pos:R:3 unique_starting_index=18 config_type=initial n_minim_iter=13 stress="0.013954716674852952 0.0059098362158456295 0.0034075523951337186 0.0059098362158456295 0.0009861043224657288 0.001048927294775601 0.0034075523951337186 0.001048927294775601 -4.2081646316098526e-05" pbc="T T T"
Si      -0.89852549       6.26933166       0.04434459
Si       1.03740622       0.05466675       9.55362186
Si      -4.33077055      -1.15346946       9.40722806
Si       0.68330675       0.35174399      10.57405747
Si      -8.22943097       3.69867534      10.80365726
Si       6.10762301       1.13442164      -1.46990903
Si       3.60102147       0.40604584      -2.11651038
Si      -1.85979096       0.11034128       9.35683903
Si      -1.82154979      -0.42150144      10.12762388
Si      -7.96160749       2.48121506       5.24796512
Si       1.08700620      -0.05690205       3.06926328
Si      -5.87219050       4.60677298       5.32816464
Si      -4.06998517      -1.25513867       8.44141758
Si      -3.49617379       5.57004194      -0.17947078
Si       0.58135591       0.58645861       4.14395231
Si      -0.50722078       5.54786934      -0.41466513
Si      -1.58458370      -1.01477090       3.50480229
Si       5.01408255      -4.81629221       7.85224747
Si       0.69436591       0.84325586       3.18694049
Si      -5.69463751       3.80307581       5.93873064
Si      -5.44746562       3.76003607       4.95096673
Si      -1.46952076      -0.64094413       8.95187922
22
Lattice="8.926849508171538 -2.7971622068217687 -1.2406378602214712 -8.022763141539642 9.29432689777183 -1.7618319310075652 -5.0460374098100855 -1.5784488505429668 11.834507584532414" Properties=species:S:1:pos:R:3 unique_starting_index=18 config_type=initial n_minim_iter=14 stress="0.016566888641348546 0.006831214627619282 0.004044348594278272 0.006831214627619282 0.0015329556487340653 0.0010616527366695957 0.004044348594278272 0.0010616527366695957 0.0004371666532201724" pbc="T T T"
Si      -0.88990061       6.27433462       0.04478355
Si       1.03152559       0.06288777       9.55013208
Si      -4.33352766      -1.15838555       9.40834478
Si       0.67869943       0.35731100      10.57165222
Si      -8.22689335       3.69967290      10.80897186
Si       6.10837626       1.14168509      -1.47473880
Si       3.59969390       0.41208404      -2.11383283
Si      -1.86663174       0.11226011       9.35455301
Si      -1.82802087      -0.41682478      10.12729434
Si      -7.95406475       2.47995827       5.25564410
Si       1.08542606      -0.05716455       3.06988108
Si      -5.86692643       4.60733042       5.33404610
Si      -4.07488695      -1.25528585       8.44330341
Si      -3.48908499       5.57186139      -0.17282841
Si       0.57710707       0.59150626       4.13922840
Si      -0.49864887       5.55338755      -0.41157958
Si      -1.58565681      -1.01395839       3.50523136
Si       5.00271930      -4.81367758       7.84356005
Si       0.69215278       0.84257900       3.18160739
Si      -5.68599506       3.80111537       5.94323811
Si      -5.44104086       3.76270722       4.95577697
Si      -1.47470787      -0.64018296       8.95161399
22
Lattice="8.91652932571728 -2.7912048084295904 -1.2460735947551633 -8.003426280962305 9.300191724356857 -1.754988699016256 -5.051429328615896 -1.5866341738538863 11.831132724785714" Properties=species:S:1:pos:R:3 unique_starting_index=18 config_type=initial n_minim_iter=15 stress="0.01833920539478307 0.007340207032932904 0.004435216731040287 0.007340207032932904 0.0024007833429963775 0.0011353978461717787 0.004435216731040287 0.0011353978461717787 0.0010066894906906345" pbc="T T T"
Si      -0.88327616       6.28115288       0.04266821
Si       1.02363168       0.06760659       9.54359298
Si      -4.33808392      -1.16882439       9.40757234
Si       0.67322231       0.35773254      10.56485817
Si      -8.22618946       3.69731591      10.80817919
Si       6.10954939       1.15091717      -1.48071024
Si       3.59976232       0.42018505      -2.11061808
Si      -1.87296869       0.11051863       9.34845112
Si      -1.83397641      -0.41532949      10.12265386
Si      -7.94707107       2.47867477       5.26195387
Si       1.08426494      -0.05824882       3.06956512
Si      -5.86245915       4.60656258       5.33753702
Si      -4.08115707      -1.25999846       8.44256571
Si      -3.48149492       5.57490443      -0.16764236
Si       0.57349803       0.59680064       4.13301637
Si      -0.49057189       5.55981007      -0.41201458
Si      -1.58771946      -1.01487386       3.50632781
Si       4.99015996      -4.81691419       7.83218176
Si       0.69096043       0.84092438       3.17419343
Si      -5.67680298       3.79848250       5.94476297
Si      -5.43558529       3.76488851       4.95698094
Si      -1.47964985      -0.64341896       8.94867560
22
Lattice="8.902320225106871 -2.78246212217734 -1.2531916414999045 -7.975433362405477 9.312677572572976 -1.7492708496390381 -5.061412152513645 -1.606619112305151 11.825090773393558" Properties=species:S:1:pos:R:3 unique_starting_index=18 config_type=initial n_minim_iter=16 stress="0.01930686720402441 0.007126071245173492 0.004156940631606321 0.007126071245173492 0.004060653159205534 0.0011560278126381393 0.004156940631606321 0.0011560278126381393 0.002536301485946399" pbc="T T T"
Si      -0.87238659       6.29500630       0.03591064
Si       1.01011544       0.06877905       9.53197559
Si      -4.34396945      -1.19107272       9.40842050
Si       0.66342356       0.35126978      10.55242712
Si      -8.22775589       3.68973249      10.80255783
Si       6.11284503       1.16749305      -1.49058460
Si       3.59964562       0.43297471      -2.10771942
Si      -1.88379368       0.10149203       9.33529781
Si      -1.84546669      -0.41967902      10.11270900
Si      -7.93941930       2.47567137       5.27103009
Si       1.08107756      -0.06342016       3.06799508
Si      -5.85784539       4.60262829       5.34163739
Si      -4.09140653      -1.27267916       8.44032485
Si      -3.46961795       5.57797895      -0.16244857
Si       0.56789574       0.60413104       4.12388586
Si      -0.47746706       5.56956902      -0.41372654
Si      -1.58987409      -1.01871282       3.50727316
Si       4.97365798      -4.82506187       7.81558816
Si       0.68787090       0.83704254       3.16091077
Si      -5.66646988       3.79219759       5.94365074
Si      -5.42882924       3.76518925       4.95339700
Si      -1.48986339      -0.65598731       8.94294018
22
Lattice="8.891387844808136 -2.775914227454312 -1.259262038924208 -7.953340904733168 9.324376426162562 -1.7451560146912353 -5.0704096954188485 -1.6240498736632896 11.821040259938524" Properties=species:S:1:pos:R:3 unique_starting_index=18 config_type=initial n_minim_iter=17 stress="0.020144008147670023 0.0068718957242119485 0.004026175897138793 0.0068718957242119485 0.006054039827299453 0.00118644735773429 0.004026175897138793 0.00118644735773429 0.004050021208966313" pbc="T T T"
Si      -0.86342658       6.30709346       0.02927089
Si       0.99878292       0.06971329       9.52212835
Si      -4.35042902      -1.21143453       9.41030133
Si       0.65566308       0.34517596      10.54345168
Si      -8.22915554       3.68389171      10.79846259
Si       6.11643948       1.18070671      -1.49880997
Si       3.60117364       0.44314831      -2.10550547
Si      -1.89313135       0.09317325       9.32391156
Si      -1.85478239      -0.42377329      10.10512109
Si      -7.93407210       2.47395308       5.27933384
Si       1.07807360      -0.06932931       3.06726341
Si      -5.85346659       4.60018591       5.34630893
Si      -4.10281232      -1.28434445       8.43888016
Si      -3.45968204       5.58084267      -0.15806232
Si       0.56177652       0.61017914       4.11643146
Si      -0.46812247       5.57811066      -0.41369865
Si      -1.59279349      -1.02208169       3.50687435
Si       4.95755253      -4.83320816       7.80168773
Si       0.68414344       0.83335061       3.15009809
Si      -5.65787075       3.78778373       5.94222872
Si      -5.42249919       3.76584518       4.95006225
Si      -1.49780785      -0.66774335       8.93830665
22
Lattice="8.88546705059036 -2.7718034804433884 -1.2654537380163648 -7.940516600489156 9.327805361724764 -1.7383552908200057 -5.07765152383306 -1.629396772970541 11.820621569890093" Properties=species:S:1:pos:R:3 unique_starting_index=18 config_type=initial n_minim_iter=18 stress="0.016609670967123718 0.005046443922842034 0.0032180776894249756 0.005046443922842034 0.006190069687462159 0.0013391552624958866 0.0032180776894249756 0.0013391552624958866 0.00496439822022291" pbc="T T T"
Si      -0.85900906       6.31378193       0.02669471
Si       0.99018285       0.07410568       9.51672169
Si      -4.35460116      -1.21977137       9.41403413
Si       0.64985155       0.34400798      10.54067788
Si      -8.23185864       3.68374691      10.80078148
Si       6.11872734       1.18614103      -1.50525220
Si       3.60289224       0.44738427      -2.10411254
Si      -1.90006103       0.09015740       9.31750705
Si      -1.86108040      -0.42242390      10.10102633
Si      -7.93166806       2.47581339       5.28783708
Si       1.07706564      -0.07248104       3.06917155
Si      -5.85332632       4.59896588       5.35281366
Si      -4.11075940      -1.28536381       8.44044371
Si      -3.45362962       5.58161070      -0.15280120
Si       0.55616233       0.61558691       4.11197199
Si      -0.46251070       5.58199488      -0.41141964
Si      -1.59501328      -1.02091084       3.50862648
Si       4.94638080      -4.83343416       7.79151620
Si       0.68232824       0.83100726       3.14574890
Si      -5.65439374       3.78550869       5.94250023