65
Lattice="10.974463753922292 0.0 0.0 0.0 10.974463753922292 0.0 0.0 0.0 10.974463753922292" Properties=species:S:1:pos:R:3:forces:R:3 cutoff=-1.0 nneightol=1.2 Zs=14 interstitial_position="mean 1 3 4 5 7 18" interstitial_constraint="plane atoms 4 5 7" bulk_struct_test=bulk_Si_diamond supercell_a1_in_bulk_lattice_coords="2 2 -2" n_minim_iter=0 pbc="T T T"
Si      -0.06443417      -0.02954646      -0.06443417      -0.00155542       0.00194176      -0.00155542
Si       2.76954751       2.71768436      -0.12470705      -0.00068695       0.00068696      -0.00013058
Si       2.74198686      -0.02757240       2.74198686       0.00084412       0.00266513       0.00084412
Si      -0.12470705       2.71768436       2.76954751      -0.00013058       0.00068696      -0.00068695
Si       1.34587639       1.24710092       1.34587639       0.00068695      -0.00013058       0.00068695
Si       4.24013095       4.14135548       1.34587639       0.00013057      -0.00068696       0.00068696
Si       4.07155406       1.41567781       4.07155406       0.00442196      -0.00442196       0.00442196
Si       1.34587639       4.14135548       4.24013095       0.00068696      -0.00068696       0.00013057
Si       0.02251456      -0.02877769       5.51600956       0.00244433      -0.00218003       0.00218003
Si       2.74198686       2.74524502       5.51480427       0.00084412      -0.00084412      -0.00266512
Si       2.74521734      -0.01030178       8.22373397       0.00175372      -0.00118866       0.00192283
Si      -0.00292433       2.74752538       8.21870600       0.00109042       0.00095668       0.00025547
Si       1.37571741       1.36888364       6.87118166       0.00095668       0.00109042      -0.00025547
Si       4.11834823       4.11151446       6.87118166      -0.00109042      -0.00095668      -0.00025547
Si       4.17985807       1.30737380       9.57310932       0.00155542      -0.00155543       0.00194176
Si       1.37343705       4.11379483       9.57508338      -0.00084412       0.00084412       0.00266512
Si       0.04386984       5.44336203       0.04386984      -0.00442196       0.00442196      -0.00442196
Si       2.73970649       8.24298963      -0.00292433      -0.00095668      -0.00025547       0.00109043
Si       2.76954751       5.61193892       2.76954751      -0.00068696       0.00013057      -0.00068696
Si      -0.00292433       8.24298963       2.73970649       0.00109043      -0.00025547      -0.00095668
Si       1.37343705       6.88661224       1.37343705      -0.00084412      -0.00266512      -0.00084412
Si       4.11834823       9.59051397       1.37571741      -0.00109042       0.00025547       0.00095668
Si       4.17985807       6.88858630       4.17985807       0.00155543      -0.00194176       0.00155543
Si       1.37571741       9.59051397       4.11834823       0.00095668       0.00025547      -0.00109042
Si      -0.06443417       5.55166604       5.51677833      -0.00155543       0.00155543      -0.00194176
Si       2.74521734       8.23796165       5.49753365       0.00175372      -0.00192283       0.00118866
Si       2.73970649       5.49015620       8.21870600      -0.00095668      -0.00109042       0.00025547
Si      -0.00249170       8.21408326       8.24761237      -0.00235938       0.00192009      -0.00192009
Si       1.37020657       6.86934162       6.86615368      -0.00175372       0.00118866      -0.00192283
Si       4.11791560       9.61942034       6.84227529       0.00235938      -0.00192009       0.00192009
Si       4.09290935       6.88781753       9.57387810      -0.00244433       0.00218003      -0.00218003
Si       1.37020657       9.59554194       9.59235401      -0.00175372       0.00192283      -0.00118866
Si       5.51600956      -0.02877769       0.02251456       0.00218003      -0.00218003       0.00244433
Si       8.21870600       2.74752538      -0.00292433       0.00025547       0.00095668       0.00109042
Si       8.22373397      -0.01030178       2.74521734       0.00192283      -0.00118866       0.00175372
Si       5.51480427       2.74524502       2.74198686      -0.00266512      -0.00084412       0.00084412
Si       6.87118166       1.36888364       1.37571741      -0.00025547       0.00109042       0.00095668
Si       9.57508338       4.11379483       1.37343705       0.00266512       0.00084412      -0.00084412
Si       9.57310932       1.30737380       4.17985807       0.00194176      -0.00155543       0.00155542
Si       6.87118166       4.11151446       4.11834823      -0.00025547      -0.00095668      -0.00109042
Si       5.45080977       0.03642210       5.45080977       0.00108449      -0.00108449       0.00108449
Si       8.22373397       2.74201454       5.49753365       0.00192283      -0.00175372       0.00118866
Si       8.21635899      -0.00008331       8.21635899       0.00115431      -0.00317492       0.00115431
Si       5.49753365       2.74201454       8.22373397       0.00118866      -0.00175372       0.00192283
Si       6.84227529       1.36931627       6.84227529       0.00192009      -0.00235938       0.00192009
Si       9.59235401       4.11702531       6.86615368      -0.00118866       0.00175372      -0.00192283
Si       9.57387810       1.39432253       9.57387810      -0.00218003       0.00244433      -0.00218003
Si       6.86615368       4.11702531       9.59235401      -0.00192283       0.00175372      -0.00118866
Si       5.51677833       5.55166604      -0.06443417      -0.00194176       0.00155543      -0.00155543
Si       8.24761237       8.21408326      -0.00249170      -0.00192009       0.00192009      -0.00235938
Si       8.21870600       5.49015620       2.73970649       0.00025547      -0.00109042      -0.00095668
Si       5.49753365       8.23796165       2.74521734       0.00118866      -0.00192283       0.00175372
Si       6.86615368       6.86934162       1.37020657      -0.00192283       0.00118866      -0.00175372
Si       9.59235401       9.59554194       1.37020657      -0.00118866       0.00192283      -0.00175372
Si       9.57387810       6.88781753       4.09290935      -0.00218003       0.00218003      -0.00244433
Si       6.84227529       9.61942034       4.11791560       0.00192009      -0.00192009       0.00235938
Si       5.51600956       5.46471732       5.51600956       0.00218003      -0.00244433       0.00218003
Si       8.21635899       8.24533663       5.48731518       0.00115431      -0.00115431       0.00317492
Si       8.24761237       5.48972357       8.24761237      -0.00192009       0.00235938      -0.00192009
Si       5.48731518       8.24533663       8.21635899       0.00317492      -0.00115431       0.00115431
Si       6.87352866       6.85912315       6.87352866      -0.00115431       0.00317492      -0.00115431
Si       9.60257248       9.58816696       6.87352866      -0.00317492       0.00115431      -0.00115431
Si       9.63907789       6.82261774       9.63907789      -0.00108449       0.00108449      -0.00108449
Si       6.87352866       9.58816696       9.60257248      -0.00115431       0.00115431      -0.00317492
Si       2.05771195       3.42951992       2.05771195       0.00000001       0.00000001       0.00000001
