4
Lattice="4.921534722997663 -0.29299716458367625 7.155800759890213e-13 1.847683442956428 4.57093177183279 2.6091764667896884e-12 -3.3846090829775495 -2.138967303625996 2.8769066021632628" Properties=species:S:1:pos:R:3:tags:I:1 spacegroup="P 1" unit_cell=conventional n_minim_iter=1 energy=-1924.1143147509524 free_energy=-1924.1143147509524 pbc="T T T"
Ti       0.00000000       0.00000000       0.00000000        0
Al       3.38460908       2.13896730       0.00000000        1
Al       2.46076736      -0.14649858       1.43845330        2
Al       0.92384172       2.28546589       1.43845330        3
4
Lattice="4.390017423550036 -1.0684724314605092 2.3496520460162697e-13 0.9191396540512009 4.423694000743565 2.3724248296688566e-12 -2.654578538801188 -1.6776107846431525 3.248495213548748" Properties=species:S:1:pos:R:3:tags:I:1 spacegroup="P 1" unit_cell=conventional n_minim_iter=2 stress="-0.0006948269982916329 0.004387287019422682 3.420879096579779e-15 0.004387287019422682 -0.004864451213143388 1.8210144349287398e-15 3.420879096579779e-15 1.8210144349287398e-15 -0.007637079678083669" pbc="T T T"
Ti       0.00000000       0.00000000       0.00000000        0
Al       2.65457854       1.67761078       0.00000000        1
Al       2.19500871      -0.53423622       1.62424761        2
Al       0.45956983       2.21184700       1.62424761        3
