4
Lattice="4.502527264520938 -1.0056204652502152 2.881249251516647e-13 1.024197345763025 4.498337924702458 2.4305027396220177e-12 -2.7633623051425538 -1.7463587297277505 3.2554698962677207" Properties=species:S:1:pos:R:3:tags:I:1 spacegroup="P 1" unit_cell=conventional n_minim_iter=2 stress="0.10346414064863214 0.0031769775374755316 2.343471156618652e-15 0.0031769775374755316 0.10044477984282264 1.5141430360835914e-15 2.343471156618652e-15 1.5141430360835914e-15 0.09843702919558017" pbc="T T T"
Ti       0.00000000       0.00000000       0.00000000        0
Al       2.76336231       1.74635873       0.00000000        1
Al       2.25126363      -0.50281023       1.62773495        2
Al       0.51209867       2.24916896       1.62773495        3
