2
Lattice="2.74928474945421 4.005819416389251e-17 2.7492847494542096 2.74928474945421 2.7492847494542096 -8.743770324750608e-17 -7.465667898621951e-17 2.7492847494542096 2.7492847494542096" Properties=species:S:1:pos:R:3 n_minim_iter=1 energy=-326.3489051782469 free_energy=-326.3489051782469 pbc="T T T"
Si       0.00000000      -0.00000000      -0.00000000
Si       1.37464237       1.37464237       1.37464237
