2
Lattice="2.74928474945421 4.005819416389251e-17 2.7492847494542096 2.74928474945421 2.7492847494542096 -8.743770324750608e-17 -7.465667898621951e-17 2.7492847494542096 2.7492847494542096" Properties=species:S:1:pos:R:3 n_minim_iter=1 stress="0.011069320111511806 4.21947203702893e-17 8.952658930019021e-17 4.21947203702893e-17 0.01106932011151159 5.616491918407752e-17 8.952658930019021e-17 5.616491918407752e-17 0.011069320111511462" pbc="T T T"
Si       0.00000000      -0.00000000      -0.00000000
Si       1.37464237       1.37464237       1.37464237
