2
Lattice="2.8567860380093513 4.162453155061297e-17 2.8567860380093513 2.8567860380093513 2.8567860380093513 -9.085665276493056e-17 -7.757587067484303e-17 2.8567860380093513 2.8567860380093513" Properties=species:S:1:pos:R:3 n_minim_iter=1 stress="0.05391269967765645 -9.064767210943888e-17 1.377469062523512e-20 -9.064767210943888e-17 0.05391269967765641 1.5810880135423571e-18 1.377469062523512e-20 1.5810880135423571e-18 0.05391269967765638" pbc="T T T"
Si       0.00000000      -0.00000000      -0.00000000
Si       1.42839302       1.42839302       1.42839302
