2
Lattice="2.8773391622091307 4.1923998908453165e-17 2.8773391622091307 2.8773391622091307 2.8773391622091307 -9.151032022332907e-17 -7.813398965318874e-17 2.8773391622091307 2.8773391622091307" Properties=species:S:1:pos:R:3 n_minim_iter=1 stress="0.05987809988433101 7.814502530692939e-18 -6.094322787938526e-18 7.814502530692939e-18 0.05987809988433101 -9.694305604936198e-18 -6.094322787938526e-18 -9.694305604936198e-18 0.05987809988433101" pbc="T T T"
Si       0.00000000      -0.00000000      -0.00000000
Si       1.43866958       1.43866958       1.43866958
