2
Lattice="2.632646842223229 3.8358732536406944e-17 2.632646842223229 2.632646842223229 2.632646842223229 -8.372817453393897e-17 -7.148938291057785e-17 2.632646842223229 2.632646842223229" Properties=species:S:1:pos:R:3 n_minim_iter=1 stress="-0.07631137009095211 5.8973288368677186e-18 -5.487434632621971e-18 5.8973288368677186e-18 -0.07631137009095211 1.7650703385168993e-17 -5.487434632621971e-18 1.7650703385168993e-17 -0.07631137009095201" pbc="T T T"
Si       0.00000000      -0.00000000      -0.00000000
Si       1.31632342       1.31632342       1.31632342
