4
Lattice="1.9238782120295541 -3.332254810809957 -8.718670489170233e-18 1.9238782120295541 3.332254810809957 8.718670489170232e-18 4.0149434866743043e-33 -1.6549969380796046e-17 6.325358339487339" Properties=species:S:1:pos:R:3:forces:R:3 cutoff=-1.0 nneightol=1.2 n_minim_iter=1 energy=-652.6492349471343 stress="0.0003604608551253118 2.3948238435714296e-16 -6.753856670571974e-18 2.3948238435714296e-16 0.00036046085512559436 -8.687918188574941e-17 -6.753856670571974e-18 -8.687918188574941e-17 -0.0001494647339921035" free_energy=-652.6492349471343 pbc="T T T"
Si       1.92387821       1.11075160       0.39567280       0.00000000      -0.00000000       0.00029513
Si       1.92387821      -1.11075160       3.55835197      -0.00000000       0.00000000       0.00029513
Si       1.92387821       1.11075160       2.76700637       0.00000000      -0.00000000      -0.00029513
Si       1.92387821      -1.11075160      -0.39567280      -0.00000000       0.00000000      -0.00029513
