4
Lattice="1.9844684648987894 -3.437200207222918 -8.871159124814641e-18 1.9844684648987898 3.437200207222918 8.871159124814584e-18 -5.227388055600907e-32 -1.5393264708461162e-17 6.539500354874326" Properties=species:S:1:pos:R:3:forces:R:3 cutoff=-1.0 nneightol=1.2 n_minim_iter=2 energy=-652.4816984065519 stress="0.038211384788512034 -1.1353238962116408e-17 1.9310667640286484e-17 -1.1353238962116408e-17 0.038211384788512166 9.137419143950608e-18 1.9310667640286484e-17 9.137419143950608e-18 0.038186628398900475" free_energy=-652.4816984065519 pbc="T T T"
Si       1.98446846       1.14573340       0.41450646      -0.00000000      -0.00000000      -0.00029652
Si       1.98446846      -1.14573340       3.68425664       0.00000000       0.00000000      -0.00029652
Si       1.98446846       1.14573340       2.85524372      -0.00000000      -0.00000000       0.00029652
Si       1.98446846      -1.14573340      -0.41450646       0.00000000       0.00000000       0.00029652
