4
Lattice="1.9699464762167715 -3.412047384998725 -8.761948330120945e-18 1.9699464762167718 3.412047384998725 8.76194833012094e-18 6.649790203702147e-33 -1.7190194110263415e-17 6.4854467485369875" Properties=species:S:1:pos:R:3:forces:R:3 cutoff=-1.0 nneightol=1.2 n_minim_iter=3 energy=-652.603786037324 stress="0.02130629251211061 1.7143390832795776e-16 -4.287111852524448e-17 1.7143390832795776e-16 0.021306292512110993 -4.9748110305040004e-17 -4.287111852524448e-17 -4.9748110305040004e-17 0.021447484186986825" free_energy=-652.603786037324 pbc="T T T"
Si       1.96994648       1.13734913       0.40813377       0.00000000       0.00000000       0.00248305
Si       1.96994648      -1.13734913       3.65085715      -0.00000000       0.00000000       0.00248305
Si       1.96994648       1.13734913       2.83458960       0.00000000      -0.00000000      -0.00248305
Si       1.96994648      -1.13734913      -0.40813377      -0.00000000      -0.00000000      -0.00248305
