4
Lattice="5.044021782787072 -0.0892991135403793 8.450261875846843e-13 2.0842368919091285 4.594136116324217 2.667568304809341e-12 -3.564129337348589 -2.2524185013933056 2.7701485588577777" Properties=species:S:1:pos:R:3:tags:I:1 spacegroup="P 1" unit_cell=conventional n_minim_iter=1 energy=-1924.6748862203608 free_energy=-1924.6748862203608 pbc="T T T"
Ti       0.00000000       0.00000000       0.00000000        0
Al       3.56412934       2.25241850       0.00000000        1
Al       2.52201089      -0.04464956       1.38507428        2
Al       1.04211845       2.29706806       1.38507428        3
