4
Lattice="4.674749037352388 0.07311379618582028 8.635816119367783e-13 2.0724380362893333 4.19089784833286 2.4680759271250547e-12 -3.3735935368212915 -2.1320058222605613 2.4355783731147835" Properties=species:S:1:pos:R:3:tags:I:1 spacegroup="P 1" unit_cell=conventional n_minim_iter=1 energy=-1923.3584587918263 free_energy=-1923.3584587918263 pbc="T T T"
Ti       0.00000000       0.00000000       0.00000000        0
Al       3.37359354       2.13200582       0.00000000        1
Al       2.33737452       0.03655690       1.21778919        2
Al       1.03621902       2.09544892       1.21778919        3
4
Lattice="4.626050304388969 0.016136532876903163 8.264412581048344e-13 2.0000741420575534 4.171367309732302 2.4454821257375e-12 -3.313062223223696 -2.0937519213058335 2.457727284201147" Properties=species:S:1:pos:R:3:tags:I:1 spacegroup="P 1" unit_cell=conventional n_minim_iter=2 stress="-0.1752997304419757 0.0012908257865679484 1.0519878118772436e-15 0.0012908257865679484 -0.1765265155674978 1.1849875744688118e-15 1.0519878118772436e-15 1.1849875744688118e-15 -0.17734227717672899" pbc="T T T"
Ti       0.00000000       0.00000000       0.00000000        0
Al       3.31306222       2.09375192       0.00000000        1
Al       2.31302515       0.00806827       1.22886364        2
Al       1.00003707       2.08568365       1.22886364        3
