4
Lattice="4.726124019552902 0.07391730883380533 8.717757891907982e-13 2.0952139043360027 4.236955358723668 2.4933675389583026e-12 -3.4106689619448867 -2.1554363337799716 2.4623451138674817" Properties=species:S:1:pos:R:3:tags:I:1 spacegroup="P 1" unit_cell=conventional n_minim_iter=1 energy=-1923.6181447999923 free_energy=-1923.6181447999923 pbc="T T T"
Ti       0.00000000       0.00000000       0.00000000        0
Al       3.41066896       2.15543633       0.00000000        1
Al       2.36306201       0.03695865       1.23117256        2
Al       1.04760695       2.11847768       1.23117256        3
