4
Lattice="5.087887319999521 7.565505387386569e-13 8.949401069404353e-13 2.183719785742836 4.595428737165575 2.682621221191863e-12 -3.635803552871657 -2.297714368584526 2.718094661033344" Properties=species:S:1:pos:R:3:tags:I:1 spacegroup="P 1" unit_cell=conventional n_minim_iter=1 energy=-1924.6607161177155 free_energy=-1924.6607161177155 pbc="T T T"
Ti       0.00000000       0.00000000       0.00000000        0
Al       3.63580355       2.29771437       0.00000000        1
Al       2.54394366      -0.00000000       1.35904733        2
Al       1.09185989       2.29771437       1.35904733        3
4
Lattice="5.02787995860075 -0.032674353154079475 8.678099288887287e-13 2.1284528534883806 4.555253334550156 2.6528359790698134e-12 -3.5781664060450438 -2.261289490699395 2.713657955851528" Properties=species:S:1:pos:R:3:tags:I:1 spacegroup="P 1" unit_cell=conventional n_minim_iter=2 stress="-0.0007253996459062028 0.008535129845853823 6.29050409422299e-15 0.008535129845853823 -0.008837083227256319 4.3271429294633046e-15 6.29050409422299e-15 4.3271429294633046e-15 -0.014231018900447152" pbc="T T T"
Ti       0.00000000       0.00000000       0.00000000        0
Al       3.57816641       2.26128949       0.00000000        1
Al       2.51393998      -0.01633718       1.35682898        2
Al       1.06422643       2.27762667       1.35682898        3
4
Lattice="5.0026754823149515 -0.08856712067053207 8.352589850152316e-13 2.067152214542738 4.556477569145941 2.642524723285704e-12 -3.5349138484293303 -2.2339552242390783 2.7474414018312565" Properties=species:S:1:pos:R:3:tags:I:1 spacegroup="P 1" unit_cell=conventional n_minim_iter=3 stress="-0.0008120899948572568 0.0004234919167854145 -1.1938117209147812e-16 0.0004234919167854145 -0.0012145715610724916 2.759842441341513e-16 -1.1938117209147812e-16 2.759842441341513e-16 -0.0014822052349033423" pbc="T T T"
Ti       0.00000000       0.00000000       0.00000000        0
Al       3.53491385       2.23395522       0.00000000        1
Al       2.50133774      -0.04428356       1.37372070        2
Al       1.03357611       2.27823878       1.37372070        3
