4
Lattice="5.316135970121736 -0.09411660972837817 8.891541956887372e-13 2.1966770145886554 4.841979934141282 2.8159873549364888e-12 -3.75640649235571 -2.3739316622079167 2.9195921489830674" Properties=species:S:1:pos:R:3:tags:I:1 spacegroup="P 1" unit_cell=conventional n_minim_iter=1 stress="0.17826668410220753 -0.0017557764489278308 -1.392593997405846e-15 -0.0017557764489278308 0.1799353526814218 -8.959843903035194e-16 -1.392593997405846e-15 -8.959843903035194e-16 0.18104494859771775" pbc="T T T"
Ti       0.00000000       0.00000000       0.00000000        0
Al       3.75640649       2.37393166       0.00000000        1
Al       2.65806799      -0.04705830       1.45979607        2
Al       1.09833851       2.42098997       1.45979607        3
