4
Lattice="5.241250840729307 -0.0927908470810152 8.801561842904484e-13 2.1657337799920637 4.773773948455139 2.776269033447839e-12 -3.703492310361193 -2.340491550688505 2.878465654649869" Properties=species:S:1:pos:R:3:tags:I:1 spacegroup="P 1" unit_cell=conventional n_minim_iter=1 stress="0.14950256181543023 0.004009689610905082 3.353228915105311e-15 0.004009689610905082 0.1456918015844192 1.9846446574529573e-15 3.353228915105311e-15 1.9846446574529573e-15 0.1431578028964922" pbc="T T T"
Ti       0.00000000       0.00000000       0.00000000        0
Al       3.70349231       2.34049155       0.00000000        1
Al       2.62062542      -0.04639542       1.43923283        2
Al       1.08286689       2.38688697       1.43923283        3
