4
Lattice="4.825650476007666 0.07547391796815636 8.851816261979893e-13 2.1393365753769196 4.326180514742887 2.540968245123948e-12 -3.482493525692735 -2.2008272163567804 2.514199124201966" Properties=species:S:1:pos:R:3:tags:I:1 spacegroup="P 1" unit_cell=conventional n_minim_iter=1 stress="-0.10872770503498275 -0.005560117180350467 -4.751616929019164e-15 -0.005560117180350467 -0.10344343730188497 -2.9313372888767115e-15 -4.751616929019164e-15 -2.9313372888767115e-15 -0.09992961678036438" pbc="T T T"
Ti       0.00000000       0.00000000       0.00000000        0
Al       3.48249353       2.20082722       0.00000000        1
Al       2.41282524       0.03773696       1.25709956        2
Al       1.06966829       2.16309026       1.25709956        3
