4
Lattice="4.876249498314472 0.024389254029960512 8.695588001886361e-13 2.114913501766182 4.393807561281148 2.570864563124226e-12 -3.4955815000407804 -2.2090984076568483 2.5844144805709663" Properties=species:S:1:pos:R:3:tags:I:1 spacegroup="P 1" unit_cell=conventional n_minim_iter=1 stress="-0.09812552311938938 -0.009200381257473952 -6.828605899338421e-15 -0.009200381257473952 -0.08938159268877299 -4.748982972867231e-15 -6.828605899338421e-15 -4.748982972867231e-15 -0.08356723888655919" pbc="T T T"
Ti       0.00000000       0.00000000       0.00000000        0
Al       3.49558150       2.20909841       0.00000000        1
Al       2.43812475       0.01219463       1.29220724        2
Al       1.05745675       2.19690378       1.29220724        3
