4
Lattice="4.922254569020038 0.024619354921332486 8.790126990197971e-13 2.134866694320939 4.435261024151181 2.5978116494388347e-12 -3.5285606316709472 -2.2299401895375626 2.608797189239226" Properties=species:S:1:pos:R:3:tags:I:1 spacegroup="P 1" unit_cell=conventional n_minim_iter=2 stress="-0.08228435151001055 -0.003807505131700996 -3.007367503357409e-15 -0.003807505131700996 -0.07866574494859567 -1.3496702488539692e-15 -3.007367503357409e-15 -1.3496702488539692e-15 -0.07625952054115893" pbc="T T T"
Ti       0.00000000       0.00000000       0.00000000        0
Al       3.52856063       2.22994019       0.00000000        1
Al       2.46112728       0.01230968       1.30439859        2
Al       1.06743335       2.21763051       1.30439859        3
