4
Lattice="5.316135970121737 -0.09411660972837868 8.886421123281355e-13 2.196677014588655 4.841979934141282 2.816433372287257e-12 -3.7564064923557097 -2.3739316622079167 2.9195921489830674" Properties=species:S:1:pos:R:3:tags:I:1 spacegroup="P 1" unit_cell=conventional n_minim_iter=1 stress="0.1856753696293747 -0.005278559095123275 -4.081314200973996e-15 -0.005278559095123275 0.1906920479832374 -2.4784980830033145e-15 -4.081314200973996e-15 -2.4784980830033145e-15 0.19402793258258602" pbc="T T T"
Ti       0.00000000       0.00000000       0.00000000        0
Al       3.75640649       2.37393166       0.00000000        1
Al       2.65806799      -0.04705830       1.45979607        2
Al       1.09833851       2.42098997       1.45979607        3
