4
Lattice="5.164162424474817 -0.09142607755141952 8.666418039937196e-13 2.1338801266940655 4.703561191152314 2.732963137021327e-12 -3.649021275584942 -2.3060675568018687 2.836129127491969" Properties=species:S:1:pos:R:3:tags:I:1 spacegroup="P 1" unit_cell=conventional n_minim_iter=1 stress="0.10036985301708042 0.007055748885973992 5.631771655041663e-15 0.007055748885973992 0.09366415510431868 3.427254743038053e-15 5.631771655041663e-15 3.427254743038053e-15 0.08920514202490865" pbc="T T T"
Ti       0.00000000       0.00000000       0.00000000        0
Al       3.64902128       2.30606756       0.00000000        1
Al       2.58208121      -0.04571304       1.41806456        2
Al       1.06694006       2.35178060       1.41806456        3
