4
Lattice="4.917867988852751 -0.08706569297773857 8.237493598746544e-13 2.0321089664767924 4.479234213461148 2.602326645324155e-12 -3.474988477665248 -2.196084260243058 2.700865600633019" Properties=species:S:1:pos:R:3:tags:I:1 spacegroup="P 1" unit_cell=conventional n_minim_iter=1 stress="-0.06472456290625964 -0.00994836874373905 -8.045930917832895e-15 -0.00994836874373905 -0.05526975426746508 -5.2092904546707095e-15 -8.045930917832895e-15 -5.2092904546707095e-15 -0.048982695719320415" pbc="T T T"
Ti       0.00000000       0.00000000       0.00000000        0
Al       3.47498848       2.19608426       0.00000000        1
Al       2.45893399      -0.04353285       1.35043280        2
Al       1.01605448       2.23961711       1.35043280        3
