4
Lattice="4.87391018225987 0.07622870721967027 8.925313405134141e-13 2.160731360435554 4.369445190017968 2.56416099352112e-12 -3.5173207713481576 -2.2228369486200896 2.5393427834447566" Properties=species:S:1:pos:R:3:tags:I:1 spacegroup="P 1" unit_cell=conventional n_minim_iter=2 stress="-0.09768868986198231 -0.00427735246760577 -3.426595645215343e-15 -0.00427735246760577 -0.09362354610790233 -2.3126178673468352e-15 -3.426595645215343e-15 -2.3126178673468352e-15 -0.09092039284854948" pbc="T T T"
Ti       0.00000000       0.00000000       0.00000000        0
Al       3.51732077       2.22283695       0.00000000        1
Al       2.43695509       0.03811435       1.26967139        2
Al       1.08036568       2.18472260       1.26967139        3
