4
Lattice="4.8743447506560535 -0.08629515970949714 8.164591602016524e-13 2.0141247581185997 4.439592893675185 2.579295998160225e-12 -3.4442347543877987 -2.176648866984185 2.676962881580766" Properties=species:S:1:pos:R:3:tags:I:1 spacegroup="P 1" unit_cell=conventional n_minim_iter=1 stress="-0.06472456290625964 -0.00994836874373905 -8.045930917832895e-15 -0.00994836874373905 -0.05526975426746508 -5.2092904546707095e-15 -8.045930917832895e-15 -5.2092904546707095e-15 -0.048982695719320415" pbc="T T T"
Ti       0.00000000       0.00000000       0.00000000        0
Al       3.44423475       2.17664887       0.00000000        1
Al       2.43717238      -0.04314758       1.33848144        2
Al       1.00706238       2.21979645       1.33848144        3
