2
Lattice="4.965179624761345 4.700479265499833e-18 7.500262300754857e-17 4.700479265499366e-18 4.965179624761345 -3.161056629730246e-16 2.4825898123806724 2.4825898123806724 1.3692149744117041" Properties=species:S:1:pos:R:3 cutoff=-1.0 nneightol=1.2 n_minim_iter=1 energy=-325.6378567503432 free_energy=-325.6378567503432 pbc="T T T"
Si      -0.00000000      -1.24129490      -0.34230374
Si      -0.00000000       1.24129491       0.34230374
