2
Lattice="4.888780095611639 4.628152697318618e-18 7.384855296057718e-17 4.628152697318185e-18 4.888780095611639 -3.112417253840888e-16 2.4443900478058196 2.4443900478058196 1.348146778041103" Properties=species:S:1:pos:R:3 cutoff=-1.0 nneightol=1.2 n_minim_iter=1 energy=-325.6929816029594 free_energy=-325.6929816029594 pbc="T T T"
Si      -0.00000000      -1.22219502      -0.33703669
Si      -0.00000000       1.22219503       0.33703669
