2
Lattice="5.03970037569849 -1.492196913011946e-16 2.2243624308240955e-15 -1.4921969130117545e-16 5.03970037569849 -4.482918302788658e-15 2.5198501878492445 2.5198501878492467 1.5102521501233794" Properties=species:S:1:pos:R:3 cutoff=-1.0 nneightol=1.2 n_minim_iter=1 energy=-325.45113798435113 free_energy=-325.45113798435113 pbc="T T T"
Si      -0.00000000      -1.25992509      -0.37756304
Si      -0.00000000       1.25992510       0.37756304
2
Lattice="4.989988691022442 -1.488184390189641e-16 2.2577485719441078e-15 -1.4881843901894507e-16 4.989988691022442 -4.391837778745167e-15 2.4949943455112207 2.4949943455112225 1.5404931600452083" Properties=species:S:1:pos:R:3 cutoff=-1.0 nneightol=1.2 n_minim_iter=2 stress="0.052912690660074466 -1.457760610534688e-17 9.489062228146973e-17 -1.457760610534688e-17 0.052912690660074604 7.385408786630799e-17 9.489062228146973e-17 7.385408786630799e-17 0.052918393555465675" pbc="T T T"
Si      -0.00000000      -1.24749717      -0.38512329
Si      -0.00000000       1.24749717       0.38512329
