2
Lattice="4.963881727097377 -1.913494835957976e-16 2.2768699886122314e-15 -1.9134948359579868e-16 4.963881727097377 -4.4992833923398595e-15 2.4819408635486884 2.481940863548687 1.4322006751866934" Properties=species:S:1:pos:R:3 cutoff=-1.0 nneightol=1.2 n_minim_iter=2 stress="0.042829534724585325 3.638263710991962e-16 -7.344441131284244e-20 3.638263710991962e-16 0.04282953472458493 -4.496721865527906e-16 -7.344441131284244e-20 -4.496721865527906e-16 0.03464478311267077" pbc="T T T"
Si      -0.00000000      -1.24097043      -0.35805017
Si      -0.00000000       1.24097043       0.35805017
