2
Lattice="4.491499927336069 1.2267220860754637e-17 -3.2459059250276703e-16 1.2267220860753807e-17 4.491499927336069 4.1415602055665673e-16 2.2457499636680347 2.2457499636680347 1.2169033231339514" Properties=species:S:1:pos:R:3 cutoff=-1.0 nneightol=1.2 n_minim_iter=1 stress="-0.19624036702264783 -4.6210211856717787e-17 -2.4459613346294755e-16 -4.6210211856717787e-17 -0.1962403670226486 7.728678299203062e-16 -2.4459613346294755e-16 7.728678299203062e-16 -0.1944914862058303" pbc="T T T"
Si      -0.00000000      -1.12287498      -0.30422583
Si      -0.00000000       1.12287498       0.30422583
