2
Lattice="4.686529053640512 4.4366839286017685e-18 7.07934049497792e-17 4.4366839286013594e-18 4.686529053640512 -2.983655145436113e-16 2.343264526820256 2.343264526820256 1.292373336557493" Properties=species:S:1:pos:R:3 cutoff=-1.0 nneightol=1.2 n_minim_iter=1 stress="-0.0415355279545006 -1.1080261268517056e-16 1.4618468940565177e-16 -1.1080261268517056e-16 -0.04153552795449962 1.3443788866620757e-16 1.4618468940565177e-16 1.3443788866620757e-16 -0.03786586265844882" pbc="T T T"
Si      -0.00000000      -1.17163226      -0.32309333
Si      -0.00000000       1.17163226       0.32309333
