2
Lattice="4.727943873579337 1.8183584521895015e-17 1.6790114205000282e-16 1.818358452189536e-17 4.727943873579337 -2.439206077357463e-16 2.3639719367896683 2.3639719367896683 1.3038774767370513" Properties=species:S:1:pos:R:3:forces:R:3 cutoff=-1.0 nneightol=1.2 n_minim_iter=1 energy=-325.6823595054283 stress="-0.04141412711627609 -3.3661186547655206e-17 7.45361536243083e-17 -3.3661186547655206e-17 -0.04141412711627666 2.5416006025920217e-17 7.45361536243083e-17 2.5416006025920217e-17 -0.03777425631026525" free_energy=-325.6823595054283 pbc="T T T"
Si      -0.00000000      -1.18198597      -0.32596937       0.00000000      -0.00000000       0.00000000
Si      -0.00000000       1.18198597       0.32596937      -0.00000000       0.00000000      -0.00000000
