2
Lattice="4.581927515365594 3.1913408673029726e-17 -1.5407789511064466e-16 3.191340867303026e-17 4.581927515365596 4.448901589267117e-16 2.290963757682797 2.290963757682798 1.242167892346741" Properties=species:S:1:pos:R:3:forces:R:3 cutoff=-1.0 nneightol=1.2 n_minim_iter=2 energy=-325.3981557387994 stress="-0.15593889512000222 9.057139904879132e-17 -9.070802722322945e-17 9.057139904879132e-17 -0.15593889512000114 1.9591549085324754e-16 -9.070802722322945e-17 1.9591549085324754e-16 -0.15639791349027693" free_energy=-325.3981557387994 pbc="T T T"
Si      -0.00000000      -1.14548188      -0.31054197       0.00000000       0.00000000       0.00000000
Si      -0.00000000       1.14548188       0.31054197      -0.00000000      -0.00000000      -0.00000000
