2
Lattice="2.698370960534133 0.0 0.0 0.0 2.698370960534133 0.0 0.0 0.0 3.890106624922616" Properties=species:S:1:pos:R:3:tags:I:1 spacegroup="P 1" unit_cell=conventional n_minim_iter=1 stress="-0.03698358007977069 -2.463508628095666e-18 -9.2755998497234e-19 -2.463508628095666e-18 -0.03698358007977074 9.541212137265258e-19 -9.2755998497234e-19 9.541212137265258e-19 -0.04272032395984784" pbc="T T T"
Ti       1.34918548       1.34918548       1.94505332        0
Al       0.00000000       0.00000000       0.00000000        1
