2
Lattice="2.673838957574991 0.0 0.0 0.0 2.673838957574991 0.0 0.0 0.0 3.8547400616776986" Properties=species:S:1:pos:R:3:tags:I:1 spacegroup="P 1" unit_cell=conventional n_minim_iter=1 stress="-0.10721011555436036 2.0073408170969466e-18 1.1201494018709772e-18 2.0073408170969466e-18 -0.10721011555436029 -3.776729804334165e-19 1.1201494018709772e-18 -3.776729804334165e-19 -0.11693650439732298" pbc="T T T"
Ti       1.33691948       1.33691948       1.92737004        0
Al       0.00000000       0.00000000       0.00000000        1
