2
Lattice="2.722464833262888 0.0 0.0 0.0 2.722464833262888 0.0 0.0 0.0 3.9248415576998426" Properties=species:S:1:pos:R:3:tags:I:1 spacegroup="P 1" unit_cell=conventional n_minim_iter=1 stress="-0.016518966512293738 -3.0201382228953475e-18 -9.116411122079405e-19 -3.0201382228953475e-18 -0.016518966512293724 6.507595970545026e-18 -9.116411122079405e-19 6.507595970545026e-18 -0.020268698608168406" pbc="T T T"
Ti       1.36123242       1.36123242       1.96242078        0
Al       0.00000000       0.00000000       0.00000000        1
