2
Lattice="2.87372092538572 -9.958731592289485e-68 -2.3490710566274492e-50 7.831535351108653e-70 2.87372092538572 1.2449505766856748e-17 1.1073462188701035e-50 1.7947830587042494e-17 4.264142806798711" Properties=species:S:1:pos:R:3:tags:I:1 spacegroup="P 1" unit_cell=conventional n_minim_iter=2 stress="0.07408742735129252 -1.0323061465180054e-18 -8.902009830568911e-19 -1.0323061465180054e-18 0.07408742735129252 -4.423162662676603e-18 -8.902009830568911e-19 -4.423162662676603e-18 0.07973323061131538" pbc="T T T"
Ti       1.43686046       1.43686046       2.13207141        0
Al       0.00000000       0.00000000       0.00000001        1
