2
Lattice="4.926826461257816 1.8948483268513826e-17 1.7496396142729717e-16 1.894848326851416e-17 4.926826461257816 -2.5418121212356144e-16 2.463413230628908 2.463413230628908 1.358725531943094" Properties=species:S:1:pos:R:3:forces:R:3 cutoff=-1.0 nneightol=1.2 n_minim_iter=1 energy=-325.6935888334244 stress="0.027426832038732207 6.081053870559461e-17 -5.281881447929294e-17 6.081053870559461e-17 0.027426832038732363 9.237553923587738e-17 -5.281881447929294e-17 9.237553923587738e-17 0.022660343314640563" free_energy=-325.6935888334244 pbc="T T T"
Si      -0.00000000      -1.23170661      -0.33968138       0.00000000       0.00000000      -0.00000000
Si      -0.00000000       1.23170662       0.33968138      -0.00000000      -0.00000000       0.00000000
