4
Lattice="3.6342411856642793 0.0 0.0 0.0 3.6342411856642793 0.0 0.0 0.0 3.6342411856642793" Properties=species:S:1:pos:R:3 n_minim_iter=1 energy=-437.9108361593014 free_energy=-437.9108361593014 pbc="T T T"
Al       0.00000000       0.00000000       0.00000000
Al       1.81712059       1.81712059       0.00000000
Al       1.81712059       0.00000000       1.81712059
Al       0.00000000       1.81712059       1.81712059
