4
Lattice="4.250634276730445 0.0 0.0 0.0 4.250634276730445 0.0 0.0 0.0 4.250634276730445" Properties=species:S:1:pos:R:3 n_minim_iter=1 stress="0.05612379221281564 -8.910882019786234e-18 -8.195446571860589e-35 -8.910882019786234e-18 0.05612379221281564 -4.429081215259939e-18 -8.195446571860589e-35 -4.429081215259939e-18 0.056123792212815625" pbc="T T T"
Al       0.00000000       0.00000000       0.00000000
Al       2.12531714       2.12531714       0.00000000
Al       2.12531714       0.00000000       2.12531714
Al       0.00000000       2.12531714       2.12531714
