1
Lattice="2.857103385625694 1.1360959707112639e-16 -2.7934356100563357e-50 1.428551692812847 2.474324113190378 -3.3982091733723867e-50 4.6299983667520764e-49 3.556663086525288e-49 2.653631573653661" Properties=species:S:1:pos:R:3 cutoff=-1.0 nneightol=1.2 n_minim_iter=1 stress="0.08008133044928073 -6.41635415236068e-17 -1.9270616163442157e-17 -6.41635415236068e-17 0.08008133044928074 2.800598454018863e-17 -1.9270616163442157e-17 2.800598454018863e-17 0.09271846304939857" pbc="T T T"
Si       0.00000000       0.00000000       0.00000000
