1
Lattice="2.8375335701800566 1.1283142472401402e-16 -2.774301888951559e-50 1.4187667850900283 2.4573761558670832 -3.3749330375828503e-50 4.082939678260684e-49 3.105935377483067e-49 2.6354554444948812" Properties=species:S:1:pos:R:3 cutoff=-1.0 nneightol=1.2 n_minim_iter=1 stress="0.0761062999598156 2.7006624097180684e-18 -1.6517959156127127e-17 2.7006624097180684e-18 0.0761062999598156 1.3315421474352644e-17 -1.6517959156127127e-17 1.3315421474352644e-17 0.08822673446607938" pbc="T T T"
Si       0.00000000       0.00000000       0.00000000
