1
Lattice="2.4635793360267764 1.0450827239992321e-16 8.478556383947889e-50 1.2317896680133882 2.133522289237588 3.142644148772279e-50 2.7310387558106715e-49 3.78397746651544e-50 2.3308446585250358" Properties=species:S:1:pos:R:3 cutoff=-1.0 nneightol=1.2 n_minim_iter=2 stress="-0.17455023285687968 2.0698865739703044e-16 -1.7025932681414113e-17 2.0698865739703044e-16 -0.17455023285687982 -5.972807029367047e-17 -1.7025932681414113e-17 -5.972807029367047e-17 -0.17454119718570843" pbc="T T T"
Si       0.00000000       0.00000000       0.00000000
