1
Lattice="2.624954589294301 1.0437845361847858e-16 -2.56646002430524e-50 1.3124772946471506 2.273277358109412 -3.122093799581692e-50 9.16634791790915e-50 5.067031638982443e-50 2.4380155134053654" Properties=species:S:1:pos:R:3 cutoff=-1.0 nneightol=1.2 n_minim_iter=1 stress="-0.007740059849517638 -1.254864330359644e-16 -2.9787559616240045e-17 -1.254864330359644e-16 -0.007740059849516448 -2.0320196376336404e-18 -2.9787559616240045e-17 -2.0320196376336404e-18 -0.014854040399866873" pbc="T T T"
Si       0.00000000       0.00000000       0.00000000
