2
Lattice="3.217637266967096 0.0 0.0 0.0 3.2176372669670967 0.0 0.0 0.0 3.217637266967096" Properties=species:S:1:pos:R:3 Minim_Constant_Volume=F n_minim_iter=1 stress="0.018558521985976222 -2.688389877365739e-16 -3.395246725442954e-17 -2.688389877365739e-16 0.01855852198597076 -1.2055712393092215e-16 -3.395246725442954e-17 -1.2055712393092215e-16 0.018558521985978408" pbc="T T T"
Ti       0.00000000       0.00000000       0.00000000
Ti       1.60881863       1.60881863       1.60881863
