2
Lattice="3.1120639927938707 0.0 0.0 0.0 3.1120639927938707 0.0 0.0 0.0 3.1120639927938707" Properties=species:S:1:pos:R:3 Minim_Constant_Volume=F n_minim_iter=1 stress="-0.019862459049758363 3.4488857271592955e-16 -1.114859321234582e-16 3.4488857271592955e-16 -0.019862459049756986 1.2536559419617244e-16 -1.114859321234582e-16 1.2536559419617244e-16 -0.019862459049758592" pbc="T T T"
Ti       0.00000000       0.00000000       0.00000000
Ti       1.55603200       1.55603200       1.55603200
