2
Lattice="3.316703102971938 0.0 0.0 0.0 3.316703102971938 0.0 0.0 4.930380657631324e-32 3.316703102971938" Properties=species:S:1:pos:R:3 Minim_Constant_Volume=F n_minim_iter=1 stress="0.073347146862894 2.474326712538659e-16 1.8838502908393298e-16 2.474326712538659e-16 0.07334714686289438 1.9626829656657079e-16 1.8838502908393298e-16 1.9626829656657079e-16 0.07334714686289458" pbc="T T T"
Ti       0.00000000       0.00000000       0.00000000
Ti       1.65835155       1.65835155       1.65835155
