1
Lattice="2.4884656416143276 6.859768354958189e-17 -6.696679579489463e-50 1.2442328208071636 2.1550744620827507 -5.523628961590481e-50 1.1169433873535081e-48 -1.8898493263270653e-48 2.336650393602857" Properties=species:S:1:pos:R:3 cutoff=-1.0 nneightol=1.2 n_minim_iter=1 energy=-162.63174964845842 free_energy=-162.63174964845842 pbc="T T T"
Si       0.00000000       0.00000000       0.00000000
