1
Lattice="2.4884656416143276 6.859768354958189e-17 -6.696679579489463e-50 1.2442328208071636 2.1550744620827507 -5.523628961590481e-50 1.1169433873535081e-48 -1.8898493263270653e-48 2.336650393602857" Properties=species:S:1:pos:R:3 cutoff=-1.0 nneightol=1.2 n_minim_iter=1 stress="-0.17881078617567941 1.4358714612849684e-15 4.22223524974731e-17 1.4358714612849684e-15 -0.1788107861756735 -4.4326548425216023e-16 4.22223524974731e-17 -4.4326548425216023e-16 -0.1902702502964879" pbc="T T T"
Si       0.00000000       0.00000000       0.00000000
