1
Lattice="2.5616974487674744 7.061641037017672e-17 -6.893752803780979e-50 1.2808487243837372 2.218495067442418 -5.686181067649831e-50 6.319588196494223e-49 -2.139702947665652e-48 2.405414505972776" Properties=species:S:1:pos:R:3 cutoff=-1.0 nneightol=1.2 n_minim_iter=2 stress="-0.05809161920081576 4.500807091077319e-16 -3.6412012519698175e-17 4.500807091077319e-16 -0.05809161920081336 1.8533037579752817e-16 -3.6412012519698175e-17 1.8533037579752817e-16 -0.058047728656277595" pbc="T T T"
Si       0.00000000       0.00000000       0.00000000
