1
Lattice="2.489717451886059 -1.4489053273595772e-17 1.1454684691422697e-47 1.2448587259430295 2.1561585615787884 -1.0990219106599133e-48 -7.491145984861689e-48 -2.5964258180635007e-48 2.1220920778003833" Properties=species:S:1:pos:R:3 cutoff=-1.0 nneightol=1.2 n_minim_iter=2 stress="-0.0016026556655982605 -1.5054137523574484e-15 1.4618624340108744e-16 -1.5054137523574484e-15 -0.0016026556656095594 2.046607407615224e-16 1.4618624340108744e-16 2.046607407615224e-16 0.004828549079213545" pbc="T T T"
Si       0.00000000       0.00000000       0.00000000
