1
Lattice="2.7466812533127496 7.718469287650288e-17 -9.110793788692159e-50 1.3733406266563748 2.3786957414673218 2.0532082419306358e-49 5.264920448496097e-49 -1.6932934519378088e-48 2.557285676744497" Properties=species:S:1:pos:R:3 cutoff=-1.0 nneightol=1.2 n_minim_iter=1 stress="0.03617646594579612 -2.3618282707824534e-17 -1.851796589537791e-17 -2.3618282707824534e-17 0.03617646594579851 3.55082202599709e-17 -1.851796589537791e-17 3.55082202599709e-17 0.04810902725601179" pbc="T T T"
Si       0.00000000       0.00000000       0.00000000
