1
Lattice="2.806071466228228 6.599550327797762e-17 5.9399659455696e-50 1.4030357331141141 2.4301291745882923 1.549973698692481e-49 9.403945778672186e-49 -2.5129672488484517e-48 2.561553747504942" Properties=species:S:1:pos:R:3 cutoff=-1.0 nneightol=1.2 n_minim_iter=1 stress="0.0721563685007165 2.0560666451274067e-16 3.531443057337469e-17 2.0560666451274067e-16 0.07215636850071737 2.641818467671795e-16 3.531443057337469e-17 2.641818467671795e-16 0.0826996522056125" pbc="T T T"
Si       0.00000000       0.00000000       0.00000000
