1
Lattice="2.9184450047512027 5.937814866327134e-17 1.0049715473577832e-49 1.4592225023756014 2.527447513662338 3.45743313367791e-49 2.447811409631938e-49 -4.213420433520523e-48 2.574009070795572" Properties=species:S:1:pos:R:3 cutoff=-1.0 nneightol=1.2 n_minim_iter=1 stress="0.08038830337762358 2.046607407615223e-17 -9.104918514461157e-17 2.046607407615223e-17 0.08038830337762383 6.44209584993303e-17 -9.104918514461157e-17 6.44209584993303e-17 0.09107616013293111" pbc="T T T"
Si       0.00000000       0.00000000       0.00000000
