1
Lattice="2.682781627166066 7.538904476003266e-17 -8.898837517357512e-50 1.341390813583033 2.3233570419319656 2.0054417823524007e-49 1.8283461004197077e-49 -6.001578209654385e-49 2.49779220676244" Properties=species:S:1:pos:R:3 cutoff=-1.0 nneightol=1.2 n_minim_iter=1 stress="0.015815850380729662 3.4730291520278736e-16 3.520969794256674e-17 3.4730291520278736e-16 0.0158158503807279 1.085193513964615e-16 3.520969794256674e-17 1.085193513964615e-16 0.015192646363230708" pbc="T T T"
Si       0.00000000       0.00000000       0.00000000
