1
Lattice="2.513351948958815 6.928370589499283e-17 -6.763650818077517e-50 1.2566759744794076 2.1766266364494635 -5.578868915759942e-50 1.0010932242329237e-48 -1.9563921842309523e-48 2.360018447748099" Properties=species:S:1:pos:R:3 cutoff=-1.0 nneightol=1.2 n_minim_iter=1 stress="-0.14282038890754828 -7.947533361373454e-17 -1.1192384260395752e-16 -7.947533361373454e-17 -0.14282038890755744 -3.0688362125742975e-16 -1.1192384260395752e-16 -3.0688362125742975e-16 -0.15301771306636439" pbc="T T T"
Si       0.00000000       0.00000000       0.00000000
