1
Lattice="2.463071363161649 6.789765834202598e-17 -6.62834134603907e-50 1.2315356815808243 2.1330823718319554 -5.467261467672055e-50 1.1055452105332196e-48 -1.8705638038654317e-48 2.312805358433628" Properties=species:S:1:pos:R:3 cutoff=-1.0 nneightol=1.2 n_minim_iter=1 stress="-0.17881078617567941 1.4358714612849684e-15 4.22223524974731e-17 1.4358714612849684e-15 -0.1788107861756735 -4.4326548425216023e-16 4.22223524974731e-17 -4.4326548425216023e-16 -0.1902702502964879" pbc="T T T"
Si       0.00000000       0.00000000       0.00000000
