1
Lattice="2.7855884625169094 6.551376710167483e-17 5.896606984127413e-50 1.392794231258455 2.4123903730284804 1.5386596187038358e-49 1.0411858129196575e-48 -2.2324043307160642e-48 2.5428556082920406" Properties=species:S:1:pos:R:3 cutoff=-1.0 nneightol=1.2 n_minim_iter=1 stress="0.060719980525879326 6.238002819350584e-16 -6.302174258492066e-17 6.238002819350584e-16 0.06071998052587898 2.3579680326403256e-17 -6.302174258492066e-17 2.3579680326403256e-17 0.06516619117210683" pbc="T T T"
Si       0.00000000       0.00000000       0.00000000
