4
Lattice="1.891672382191993 -3.2764726772313826 1.9035833072040383e-17 1.8916723821919932 3.2764726772313826 -1.9035833072040392e-17 7.224936682124813e-33 3.6163309280947603e-17 6.224476456001649" Properties=species:S:1:pos:R:3:forces:R:3 cutoff=-1.0 nneightol=1.2 n_minim_iter=1 energy=-652.5963356187771 stress="-0.02778660689121297 -3.178906909392594e-17 2.0872307653500195e-17 -3.178906909392594e-17 -0.02778660689121353 -2.9374279182824735e-17 2.0872307653500195e-17 -2.9374279182824735e-17 -0.0279347419225477" free_energy=-652.5963356187771 pbc="T T T"
Si       1.89167238       1.09215756       0.38954658      -0.00000000       0.00000000       0.00372151
Si       1.89167238      -1.09215756       3.50178481       0.00000000      -0.00000000       0.00372151
Si       1.89167238       1.09215756       2.72269165      -0.00000000       0.00000000      -0.00372151
Si       1.89167238      -1.09215756      -0.38954658       0.00000000      -0.00000000      -0.00372151
