4
Lattice="1.9859286721444223 -3.4397293603619343 1.7108367375817806e-17 1.9859286721444223 3.4397293603619343 -1.7108367375817745e-17 -1.0146897778538887e-31 3.252525851559723e-17 6.539378317746351" Properties=species:S:1:pos:R:3:forces:R:3 cutoff=-1.0 nneightol=1.2 n_minim_iter=1 energy=-652.4808839323318 stress="0.03841976436731887 2.0435830131809534e-17 -1.7213372537959328e-18 2.0435830131809534e-17 0.038419764367318775 -8.885113734996823e-17 -1.7213372537959328e-18 -8.885113734996823e-17 0.03817678112460957" free_energy=-652.4808839323318 pbc="T T T"
Si       1.98592867       1.14657645       0.41316151       0.00000000       0.00000000       0.03295145
Si       1.98592867      -1.14657645       3.68285067      -0.00000000       0.00000000       0.03295145
Si       1.98592867       1.14657645       2.85652765       0.00000000      -0.00000000      -0.03295145
Si       1.98592867      -1.14657645      -0.41316151      -0.00000000      -0.00000000      -0.03295145
4
Lattice="1.9850543121578403 -3.43821492444107 2.0291157366023513e-17 1.9850543121578403 3.43821492444107 -2.0291157366023506e-17 -8.753107124820014e-32 2.6488221022120915e-17 6.5451404069354" Properties=species:S:1:pos:R:3:forces:R:3 cutoff=-1.0 nneightol=1.2 n_minim_iter=2 energy=-652.4810253109995 stress="0.038189880344023 -7.720202494239157e-17 -1.3777823346491482e-18 -7.720202494239157e-17 0.038189880344022854 -5.644433415931818e-19 -1.3777823346491482e-18 -5.644433415931818e-19 0.038293563216963616" free_energy=-652.4810253109995 pbc="T T T"
Si       1.98505431       1.14607164       0.41553267      -0.00000000      -0.00000000       0.00086676
Si       1.98505431      -1.14607164       3.68810287       0.00000000       0.00000000       0.00086676
Si       1.98505431       1.14607164       2.85703754      -0.00000000      -0.00000000      -0.00086676
Si       1.98505431      -1.14607164      -0.41553267       0.00000000      -0.00000000      -0.00086676
