4
Lattice="1.8748340167447408 -3.24730777276033 1.8906042536832322e-17 1.8748340167447408 3.24730777276033 -1.890604253683233e-17 1.2337726748983117e-32 3.577164233274648e-17 6.170028261098835" Properties=species:S:1:pos:R:3:forces:R:3 cutoff=-1.0 nneightol=1.2 n_minim_iter=2 energy=-652.521576093663 stress="-0.04601471890785727 -3.814688291271113e-16 2.0533247381782875e-17 -3.814688291271113e-16 -0.046014718907857806 -6.780460911056787e-17 2.0533247381782875e-17 -6.780460911056787e-17 -0.04706926641149356" free_energy=-652.521576093663 pbc="T T T"
Si       1.87483402       1.08243592       0.38718503      -0.00000000       0.00000000      -0.00201960
Si       1.87483402      -1.08243592       3.47219916       0.00000000      -0.00000000      -0.00201960
Si       1.87483402       1.08243592       2.69782910      -0.00000000       0.00000000       0.00201960
Si       1.87483402      -1.08243592      -0.38718503       0.00000000      -0.00000000       0.00201960
