4
Lattice="1.9247799306946534 -3.333816633352042 1.9523723434626053e-17 1.9247799306946534 3.333816633352042 -1.9523723434626086e-17 6.375662887287554e-32 3.7062084715104455e-17 6.328618355184367" Properties=species:S:1:pos:R:3:forces:R:3 cutoff=-1.0 nneightol=1.2 n_minim_iter=1 energy=-652.6487112672603 stress="0.000612467931783519 -7.198663079416935e-17 -6.733361407965539e-17 -7.198663079416935e-17 0.0006124679317833317 -8.642376484466053e-17 -6.733361407965539e-17 -8.642376484466053e-17 -0.00032071110688120555" free_energy=-652.6487112672603 pbc="T T T"
Si       1.92477993       1.11127221       0.39614866       0.00000000       0.00000000       0.00449487
Si       1.92477993      -1.11127221       3.56045784       0.00000000       0.00000000       0.00449487
Si       1.92477993       1.11127221       2.76816052      -0.00000000      -0.00000000      -0.00449487
Si       1.92477993      -1.11127221      -0.39614866      -0.00000000      -0.00000000      -0.00449487
