4
Lattice="1.7792691887529346 -3.081784635261941 1.6682043410403817e-17 1.7792691887529342 3.081784635261941 -1.6682043410403912e-17 1.644072888171394e-31 3.830577992985256e-17 5.924855194089455" Properties=species:S:1:pos:R:3:forces:R:3 cutoff=-1.0 nneightol=1.2 n_minim_iter=3 energy=-651.3113880759879 stress="-0.2154493965701518 -4.3596437614527003e-16 -5.902460743037562e-17 -4.3596437614527003e-16 -0.2154493965701543 -6.85537086248233e-17 -5.902460743037562e-17 -6.85537086248233e-17 -0.21550385308546524" free_energy=-651.3113880759879 pbc="T T T"
Si       1.77926919       1.02726155       0.38993438      -0.00000000       0.00000000      -0.00133723
Si       1.77926919      -1.02726155       3.35236198       0.00000000      -0.00000000      -0.00133723
Si       1.77926919       1.02726155       2.57249322      -0.00000000       0.00000000       0.00133723
Si       1.77926919      -1.02726155      -0.38993438       0.00000000      -0.00000000       0.00133723
