4
Lattice="2.0530190266390953 -3.5559332630445146 1.9799747687283177e-17 2.0530190266390957 3.5559332630445146 -1.979974768728318e-17 -8.273116515500769e-33 3.6522009901396314e-17 6.81429938173918" Properties=species:S:1:pos:R:3:forces:R:3 cutoff=-1.0 nneightol=1.2 n_minim_iter=3 energy=-651.9321499230007 stress="0.0676421179007195 -1.588276109008415e-34 -2.8695891171229604e-17 -1.588276109008415e-34 0.06764211790071907 -1.8372655669681426e-17 -2.8695891171229604e-17 -1.8372655669681426e-17 0.06785975998042225" free_energy=-651.9321499230007 pbc="T T T"
Si       2.05301903       1.18531109       0.44218111      -0.00000000       0.00000000       0.00497100
Si       2.05301903      -1.18531109       3.84933080       0.00000000       0.00000000       0.00497100
Si       2.05301903       1.18531109       2.96496858      -0.00000000      -0.00000000      -0.00497100
Si       2.05301903      -1.18531109      -0.44218111       0.00000000      -0.00000000      -0.00497100
