4
Lattice="1.9999800929874056 -3.4640671351805143 2.04437281877731e-17 1.9999800929874056 3.4640671351805143 -2.0443728187773095e-17 -8.818922431596559e-32 2.6687388057057852e-17 6.594353836822089" Properties=species:S:1:pos:R:3:forces:R:3 cutoff=-1.0 nneightol=1.2 n_minim_iter=2 energy=-652.4810253109995 stress="0.038189880344023 -7.720202494239157e-17 -1.3777823346491482e-18 -7.720202494239157e-17 0.038189880344022854 -5.644433415931818e-19 -1.3777823346491482e-18 -5.644433415931818e-19 0.038293563216963616" free_energy=-652.4810253109995 pbc="T T T"
Si       1.99998009       1.15468905       0.41865709      -0.00000000      -0.00000000       0.00086676
Si       1.99998009      -1.15468905       3.71583401       0.00000000       0.00000000       0.00086676
Si       1.99998009       1.15468905       2.87851983      -0.00000000      -0.00000000      -0.00086676
Si       1.99998009      -1.15468905      -0.41865709       0.00000000      -0.00000000      -0.00086676
