4
Lattice="1.8388393025460892 -3.1849630989643445 1.9246454877660806e-17 1.8388393025460887 3.1849630989643445 -1.9246454877660815e-17 2.124138328780303e-32 3.5304874061323875e-17 6.06724549348993" Properties=species:S:1:pos:R:3:forces:R:3 cutoff=-1.0 nneightol=1.2 n_minim_iter=3 energy=-652.2358274789891 stress="-0.0975267789398331 -1.9981700573324878e-16 -5.407537339237365e-17 -1.9981700573324878e-16 -0.09752677893983219 -1.3612844745473012e-16 -5.407537339237365e-17 -1.3612844745473012e-16 -0.09755247685052838" free_energy=-652.2358274789891 pbc="T T T"
Si       1.83883930       1.06165437       0.38546548      -0.00000000      -0.00000000      -0.00050124
Si       1.83883930      -1.06165437       3.41908823       0.00000000       0.00000000      -0.00050124
Si       1.83883930       1.06165437       2.64815727      -0.00000000      -0.00000000       0.00050124
Si       1.83883930      -1.06165437      -0.38546548       0.00000000       0.00000000       0.00050124
