4
Lattice="1.7594924580167761 -3.047530332819308 -2.269349075369128e-17 1.7594924580167761 3.047530332819308 2.2693490753691984e-17 9.230623431777862e-31 1.0685153191001747e-16 5.869457377892539" Properties=species:S:1:pos:R:3:forces:R:3 cutoff=-1.0 nneightol=1.2 n_minim_iter=3 energy=-650.8203431624624 stress="-0.26897309281329296 2.543125527514075e-16 1.73518723949654e-16 2.543125527514075e-16 -0.2689730928132929 -1.404515709666057e-16 1.73518723949654e-16 -1.404515709666057e-16 -0.2692987051262645" free_energy=-650.8203431624624 pbc="T T T"
Si       1.75949246       1.01584344       0.39006755       0.00000000       0.00000000       0.00574853
Si       1.75949246      -1.01584344       3.32479624      -0.00000000       0.00000000       0.00574853
Si       1.75949246       1.01584344       2.54466114       0.00000000      -0.00000000      -0.00574853
Si       1.75949246      -1.01584344      -0.39006755      -0.00000000      -0.00000000      -0.00574853
