4
Lattice="1.9859286721444227 -3.4397293603619343 1.7108367375817806e-17 1.9859286721444227 3.4397293603619343 -1.7108367375817745e-17 -1.2790271429936005e-31 3.82447403990816e-17 6.539378317746353" Properties=species:S:1:pos:R:3:forces:R:3 cutoff=-1.0 nneightol=1.2 n_minim_iter=3 energy=-652.5507257389177 stress="0.030404929449270025 -1.4078016313024345e-16 1.7188167457272223e-18 -1.4078016313024345e-16 0.03040492944926975 3.6425931198530113e-19 1.7188167457272223e-18 3.6425931198530113e-19 0.030102238985713695" free_energy=-652.5507257389177 pbc="T T T"
Si       1.98592867       1.14657645       0.41316151      -0.00000000      -0.00000000       0.00497915
Si       1.98592867      -1.14657645       3.68285067       0.00000000       0.00000000       0.00497915
Si       1.98592867       1.14657645       2.85652765      -0.00000000      -0.00000000      -0.00497915
Si       1.98592867      -1.14657645      -0.41316151       0.00000000       0.00000000      -0.00497915
