4
Lattice="1.8572508400797425 -3.2168528174180935 1.9078825334085415e-17 1.8572508400797427 3.2168528174180935 -1.9078825334085427e-17 1.8433214455715905e-32 3.4951183009012255e-17 6.117478510744863" Properties=species:S:1:pos:R:3:forces:R:3 cutoff=-1.0 nneightol=1.2 n_minim_iter=3 energy=-652.4047012734218 stress="-0.069472076246858 2.770190306756403e-16 -6.417928354157805e-17 2.770190306756403e-16 -0.06947207624685871 -1.0375104753767996e-16 -6.417928354157805e-17 -1.0375104753767996e-16 -0.06997491189785136" free_energy=-652.4047012734218 pbc="T T T"
Si       1.85725084       1.07228427       0.38559571       0.00000000       0.00000000       0.00297662
Si       1.85725084      -1.07228427       3.44433497      -0.00000000       0.00000000       0.00297662
Si       1.85725084       1.07228427       2.67314354       0.00000000      -0.00000000      -0.00297662
Si       1.85725084      -1.07228427      -0.38559571      -0.00000000      -0.00000000      -0.00297662
