4
Lattice="1.9397712322945195 -3.3597823293945996 1.8554995843614065e-17 1.93977123229452 3.3597823293945996 -1.8554995843614143e-17 5.619976748391644e-32 3.9531461422122455e-17 6.386955743007915" Properties=species:S:1:pos:R:3:forces:R:3 cutoff=-1.0 nneightol=1.2 n_minim_iter=3 energy=-652.6366636428502 stress="0.011360525781482647 7.833734883860321e-17 -2.0197621570373574e-18 7.833734883860321e-17 0.011360525781482455 -6.64839123578496e-17 -2.0197621570373574e-18 -6.64839123578496e-17 0.011421387055808804" free_energy=-652.6366636428502 pbc="T T T"
Si       1.93977123       1.11992744       0.40141787       0.00000000       0.00000000       0.00147691
Si       1.93977123      -1.11992744       3.59489574      -0.00000000       0.00000000       0.00147691
Si       1.93977123       1.11992744       2.79206000       0.00000000      -0.00000000      -0.00147691
Si       1.93977123      -1.11992744      -0.40141787      -0.00000000      -0.00000000      -0.00147691
