4
Lattice="1.7917086333523262 -3.103330385326026 1.6578230516404934e-18 1.7917086333523262 3.103330385326026 -1.657823051640493e-18 -6.494343974393599e-34 3.2275453150308217e-18 6.04174217280932" Properties=species:S:1:pos:R:3 cutoff=-1.0 nneightol=1.2 n_minim_iter=1 energy=-651.6311246245496 free_energy=-651.6311246245496 pbc="T T T"
Si       1.79170863       1.03444346       0.39968818
Si       1.79170863      -1.03444346       3.42055926
Si       1.79170863       1.03444346       2.62118291
Si       1.79170863      -1.03444346      -0.39968818
4
Lattice="1.7833522725337059 -3.0888567438217986 1.65453550349856e-18 1.7833522725337059 3.0888567438217986 -1.6545355034985593e-18 -8.231902573175891e-34 3.249210605504942e-18 6.098495135507178" Properties=species:S:1:pos:R:3 cutoff=-1.0 nneightol=1.2 n_minim_iter=2 stress="-0.16848466455750147 3.3182517849523164e-16 -2.0426854922235628e-16 3.3182517849523164e-16 -0.16848466455750039 -1.778372874336963e-16 -2.0426854922235628e-16 -1.778372874336963e-16 -0.15764653250405838" pbc="T T T"
Si       1.78335227       1.02961891       0.40533898
Si       1.78335227      -1.02961891       3.45458655
Si       1.78335227       1.02961891       2.64390859
Si       1.78335227      -1.02961891      -0.40533898
4
Lattice="1.784164524705636 -3.0902636058521393 1.99277791896934e-18 1.784164524705636 3.0902636058521393 -1.9927779189693405e-18 -5.8943567349767225e-34 2.5888112412355962e-18 6.092943642591548" Properties=species:S:1:pos:R:3 cutoff=-1.0 nneightol=1.2 n_minim_iter=3 stress="-0.16028536471843202 2.0585097497653916e-16 -1.291734249838145e-16 2.0585097497653916e-16 -0.1602853647184331 -7.0463105616763e-17 -1.291734249838145e-16 -7.0463105616763e-17 -0.16668361120947756" pbc="T T T"
Si       1.78416452       1.03008787       0.41335486
Si       1.78416452      -1.03008787       3.45982668
Si       1.78416452       1.03008787       2.63311696
Si       1.78416452      -1.03008787      -0.41335486
