4
Lattice="2.002732385658686 -3.4688342459244708 -8.755272481385863e-18 2.002732385658685 3.4688342459244708 8.755272481385863e-18 -1.5428489088536596e-33 -1.6643160902163092e-17 6.594011393774025" Properties=species:S:1:pos:R:3 cutoff=-1.0 nneightol=1.2 n_minim_iter=1 energy=-652.3979718248119 free_energy=-652.3979718248119 pbc="T T T"
Si       2.00273239       1.15627808       0.41280160
Si       2.00273239      -1.15627808       3.70980729
Si       2.00273239       1.15627808       2.88420410
Si       2.00273239      -1.15627808      -0.41280160
4
Lattice="2.0018037157354858 -3.4672257424340276 -8.75502388987783e-18 2.001803715735485 3.4672257424340276 8.75502388987783e-18 -1.5550776309036373e-33 -1.6651361657614332e-17 6.6001309552876615" Properties=species:S:1:pos:R:3 cutoff=-1.0 nneightol=1.2 n_minim_iter=2 stress="0.046228157132936376 1.6541897781587933e-16 -4.582046203037033e-17 1.6541897781587933e-16 0.04622815713293721 -1.7997866214052224e-16 -4.582046203037033e-17 -1.7997866214052224e-16 0.04622172952514041" pbc="T T T"
Si       2.00180372       1.15574191       0.41345327
Si       2.00180372      -1.15574191       3.71351875
Si       2.00180372       1.15574191       2.88661221
Si       2.00180372      -1.15574191      -0.41345327
4
Lattice="2.001221300594501 -3.4662169698187433 -8.766679894652111e-18 2.0012213005945 3.4662169698187433 8.766679894652113e-18 -1.6085120349442377e-33 -1.6634073930921352e-17 6.603973184591774" Properties=species:S:1:pos:R:3 cutoff=-1.0 nneightol=1.2 n_minim_iter=3 stress="0.04605577565315412 -7.26426234327383e-17 -1.8449362893550765e-16 -7.26426234327383e-17 0.046055775653153386 1.806679185457863e-16 -1.8449362893550765e-16 1.806679185457863e-16 0.04648322631792352" pbc="T T T"
Si       2.00122130       1.15540566       0.41470087
Si       2.00122130      -1.15540566       3.71668746
Si       2.00122130       1.15540566       2.88728573
Si       2.00122130      -1.15540566      -0.41470087
