4
Lattice="1.9268023113073578 -3.3373194993254884 -8.399307882204e-18 1.926802311307357 3.3373194993254884 8.399307882204005e-18 -1.056415479892742e-32 -1.5937287604264937e-17 6.332405173617131" Properties=species:S:1:pos:R:3 cutoff=-1.0 nneightol=1.2 n_minim_iter=1 energy=-652.6479745343208 free_energy=-652.6479745343208 pbc="T T T"
Si       1.92680231       1.11243983       0.39648053
Si       1.92680231      -1.11243983       3.56268312
Si       1.92680231       1.11243983       2.76972205
Si       1.92680231      -1.11243983      -0.39648053
