4
Lattice="1.8144524794231716 -3.142723882280256 1.791967390640801e-18 1.8144524794231716 3.142723882280256 -1.791967390640806e-18 7.086932776693084e-33 3.4609443602652388e-18 6.069749122141786" Properties=species:S:1:pos:R:3 cutoff=-1.0 nneightol=1.2 n_minim_iter=1 energy=-651.941137165316 free_energy=-651.941137165316 pbc="T T T"
Si       1.81445248       1.04757463       0.39502870
Si       1.81445248      -1.04757463       3.42990326
Si       1.81445248       1.04757463       2.63984586
Si       1.81445248      -1.04757463      -0.39502870
4
Lattice="1.8093083167372612 -3.1338139311458595 2.2543507381986743e-18 1.8093083167372612 3.1338139311458595 -2.2543507381986723e-18 7.003861568035704e-33 2.577808932290543e-18 6.104312788088405" Properties=species:S:1:pos:R:3 cutoff=-1.0 nneightol=1.2 n_minim_iter=2 stress="-0.141183373374164 -9.368239991515292e-17 -1.4021587637207513e-16 -9.368239991515292e-17 -0.14118337337416467 -4.946572700432434e-17 -1.4021587637207513e-16 -4.946572700432434e-17 -0.13517515644985542" pbc="T T T"
Si       1.80930832       1.04460464       0.39848914
Si       1.80930832      -1.04460464       3.45064553
Si       1.80930832       1.04460464       2.65366725
Si       1.80930832      -1.04460464      -0.39848914
4
Lattice="1.809626908363128 -3.1343657480287264 1.6744023820101646e-18 1.809626908363128 3.1343657480287264 -1.6744023820101644e-18 6.63876009960667e-33 3.695770324901857e-18 6.102163602823979" Properties=species:S:1:pos:R:3 cutoff=-1.0 nneightol=1.2 n_minim_iter=3 stress="-0.1370102003869444 -1.1499238614887075e-16 -3.146258572631079e-16 -1.1499238614887075e-16 -0.13701020038694434 2.6575093054201036e-16 -3.146258572631079e-16 2.6575093054201036e-16 -0.1405452434061799" pbc="T T T"
Si       1.80962691       1.04478858       0.40368532
Si       1.80962691      -1.04478858       3.45476713
Si       1.80962691       1.04478858       2.64739648
Si       1.80962691      -1.04478858      -0.40368532
