4
Lattice="2.030904169626237 -3.5176292070961246 -8.888692901313339e-18 2.0309041696262367 3.5176292070961246 8.888692901313339e-18 1.5645516617856257e-33 -1.69234872924696e-17 6.697334900288355" Properties=species:S:1:pos:R:3 cutoff=-1.0 nneightol=1.2 n_minim_iter=1 energy=-652.1788256480025 free_energy=-652.1788256480025 pbc="T T T"
Si       2.03090417       1.17254307       0.42124054
Si       2.03090417      -1.17254307       3.76990799
Si       2.03090417       1.17254307       2.92742691
Si       2.03090417      -1.17254307      -0.42124054
4
Lattice="2.0294929651991604 -3.5151849293285604 -1.0363105364957149e-17 2.02949296519916 3.5151849293285604 1.0363105364957146e-17 1.0620120232991437e-33 -1.413088985726758e-17 6.706652099015919" Properties=species:S:1:pos:R:3 cutoff=-1.0 nneightol=1.2 n_minim_iter=2 stress="0.06110582175362594 -7.4259846921785e-17 -1.2733367011218102e-16 -7.4259846921785e-17 0.0611058217536244 -3.9397549070576445e-17 -1.2733367011218102e-16 -3.9397549070576445e-17 0.061586659152327874" pbc="T T T"
Si       2.02949297       1.17172831       0.42261865
Si       2.02949297      -1.17172831       3.77594470
Si       2.02949297       1.17172831       2.93070740
Si       2.02949297      -1.17172831      -0.42261865
4
Lattice="2.0298043551423337 -3.5157242725311026 -1.0421809231441083e-17 2.0298043551423333 3.5157242725311026 1.0421809231441078e-17 1.1981836438469357e-33 -1.4015212109183387e-17 6.704594537337706" Properties=species:S:1:pos:R:3 cutoff=-1.0 nneightol=1.2 n_minim_iter=3 stress="0.06121875208325592 5.030213745411101e-16 -7.878589554492293e-17 5.030213745411101e-16 0.06121875208325605 1.280442254440892e-16 -7.878589554492293e-17 1.280442254440892e-16 0.06122010300136963" pbc="T T T"
Si       2.02980436       1.17190809       0.42367470
Si       2.02980436      -1.17190809       3.77597197
Si       2.02980436       1.17190809       2.92862257
Si       2.02980436      -1.17190809      -0.42367470
