4
Lattice="1.9268023113073571 -3.337319499325488 -8.399307882203999e-18 1.9268023113073574 3.337319499325488 8.399307882204005e-18 -8.127345720575869e-35 1.5815160604683882e-17 6.332405173617129" Properties=species:S:1:pos:R:3 cutoff=-1.0 nneightol=1.2 n_minim_iter=4 stress="0.00010854337229978819 -1.1503557172161906e-16 -1.2036835384208792e-16 -1.1503557172161906e-16 0.00010854337229970328 -2.013882814727222e-17 -1.2036835384208792e-16 -2.013882814727222e-17 4.284144953737119e-05" pbc="T T T"
Si       1.92680231       1.11243983       0.39648053
Si       1.92680231      -1.11243983       3.56268312
Si       1.92680231       1.11243983       2.76972205
Si       1.92680231      -1.11243983      -0.39648053
