4
Lattice="1.9877860645660776 -3.442946458405835 -8.689932191940736e-18 1.9877860645660776 3.442946458405835 8.689932191940736e-18 0.0 -1.6518953579896295e-17 6.544800519527715" Properties=species:S:1:pos:R:3 cutoff=-1.0 nneightol=1.2 n_minim_iter=1 stress="0.03847715127653189 -6.473762034952659e-19 -1.9248208739842852e-17 -6.473762034952659e-19 0.03847715127653182 -1.7342636296559545e-16 -1.9248208739842852e-17 -1.7342636296559545e-16 0.03754208068829203" pbc="T T T"
Si       1.98778606       1.14764882       0.40972087
Si       1.98778606      -1.14764882       3.68212113
Si       1.98778606       1.14764882       2.86267939
Si       1.98778606      -1.14764882      -0.40972087
