4
Lattice="1.765957493839671 -3.0587281033373133 1.97244203145601e-18 1.765957493839671 3.0587281033373133 -1.9724420314560103e-18 -5.8342060406194095e-34 2.5623929566420775e-18 6.030766409814458" Properties=species:S:1:pos:R:3 cutoff=-1.0 nneightol=1.2 n_minim_iter=3 stress="-0.16028536471843202 2.0585097497653916e-16 -1.291734249838145e-16 2.0585097497653916e-16 -0.1602853647184331 -7.0463105616763e-17 -1.291734249838145e-16 -7.0463105616763e-17 -0.16668361120947756" pbc="T T T"
Si       1.76595749       1.01957603       0.40913666
Si       1.76595749      -1.01957603       3.42451987
Si       1.76595749       1.01957603       2.60624654
Si       1.76595749      -1.01957603      -0.40913666
