4
Lattice="4.812826319833944 -0.0032585051374611315 8.452168333887244e-13 2.0627205698050095 4.3483895471364304 2.5385289905470134e-12 -3.4377734448199297 -2.172565521000773 2.5739037670028835" Properties=species:S:1:pos:R:3:tags:I:1 spacegroup="P 1" unit_cell=conventional n_minim_iter=1 energy=-1924.2779582968838 free_energy=-1924.2779582968838 pbc="T T T"
Ti       0.00000000       0.00000000       0.00000000        0
Al       3.43777344       2.17256552       0.00000000        1
Al       2.40641316      -0.00162925       1.28695188        2
Al       1.03136028       2.17419477       1.28695188        3
4
Lattice="4.844716430750407 0.034358663379820645 8.696791277003452e-13 2.110383984527201 4.361047723882796 2.553296203553977e-12 -3.477550207639256 -2.1977031936325884 2.559141074301593" Properties=species:S:1:pos:R:3:tags:I:1 spacegroup="P 1" unit_cell=conventional n_minim_iter=2 stress="-0.059978325979977536 0.0028761321330882115 1.90961284452498e-15 0.0028761321330882115 -0.06271176697304008 1.7452882218888138e-15 1.90961284452498e-15 1.7452882218888138e-15 -0.06452939271437728" pbc="T T T"
Ti       0.00000000       0.00000000       0.00000000        0
Al       3.47755021       2.19770319       0.00000000        1
Al       2.42235822       0.01717933       1.27957054        2
Al       1.05519199       2.18052386       1.27957054        3
