4
Lattice="4.856983156275239 -0.0032884013499645476 8.543096909346136e-13 2.0816456688574343 4.388285257734722 2.5618327028081042e-12 -3.469314412566794 -2.192498428193678 2.5975188821352937" Properties=species:S:1:pos:R:3:tags:I:1 spacegroup="P 1" unit_cell=conventional n_minim_iter=1 energy=-1924.3626917644262 free_energy=-1924.3626917644262 pbc="T T T"
Ti       0.00000000       0.00000000       0.00000000        0
Al       3.46931441       2.19249843       0.00000000        1
Al       2.42849158      -0.00164420       1.29875944        2
Al       1.04082283       2.19414263       1.29875944        3
