4
Lattice="4.90035137203377 -0.003317763629933289 8.616706798863527e-13 2.100232774390871 4.4274684493876615 2.5838486356848957e-12 -3.5002920732127825 -2.212075342880175 2.620712242229978" Properties=species:S:1:pos:R:3:tags:I:1 spacegroup="P 1" unit_cell=conventional n_minim_iter=1 energy=-1924.4256640399276 free_energy=-1924.4256640399276 pbc="T T T"
Ti       0.00000000       0.00000000       0.00000000        0
Al       3.50029207       2.21207534       0.00000000        1
Al       2.45017569      -0.00165888       1.31035612        2
Al       1.05011639       2.21373422       1.31035612        3
