4
Lattice="4.94296526203733 -0.0033466151966173585 8.695857582730565e-13 2.1184965848066977 4.465970107569396 2.6075288810212763e-12 -3.5307309234224795 -2.231311746187712 2.643502188244608" Properties=species:S:1:pos:R:3:tags:I:1 spacegroup="P 1" unit_cell=conventional n_minim_iter=1 energy=-1924.4640558303108 free_energy=-1924.4640558303108 pbc="T T T"
Ti       0.00000000       0.00000000       0.00000000        0
Al       3.53073092       2.23131175       0.00000000        1
Al       2.47148263      -0.00167331       1.32175109        2
Al       1.05924829       2.23298505       1.32175109        3
