4
Lattice="5.066590286189392 -0.003430315033171123 8.960909849021019e-13 2.171480811395182 4.577665341733978 2.6749106270363344e-12 -3.619035548792768 -2.28711751335176 2.709616960358757" Properties=species:S:1:pos:R:3:tags:I:1 spacegroup="P 1" unit_cell=conventional n_minim_iter=1 stress="0.016632692040597717 -0.0008452299210526586 -8.499802279560855e-16 -0.0008452299210526586 0.017435988275909222 -6.163874785029179e-16 -8.499802279560855e-16 -6.163874785029179e-16 0.017970147205596917" pbc="T T T"
Ti       0.00000000       0.00000000       0.00000000        0
Al       3.61903555       2.28711751       0.00000000        1
Al       2.53329514      -0.00171516       1.35480848        2
Al       1.08574041       2.28883267       1.35480848        3
