4
Lattice="4.753284775779388 0.03371023131979897 8.545218181831893e-13 2.0705558742367987 4.278744081037708 2.506701353736445e-12 -3.411920325008536 -2.1562271561800106 2.510843819535028" Properties=species:S:1:pos:R:3:tags:I:1 spacegroup="P 1" unit_cell=conventional n_minim_iter=1 stress="-0.0723359867503551 0.0030915633942766333 2.7034171892190614e-15 0.0030915633942766333 -0.07527417099347414 1.4183174186539897e-15 2.7034171892190614e-15 1.4183174186539897e-15 -0.0772279425680708" pbc="T T T"
Ti       0.00000000       0.00000000       0.00000000        0
Al       3.41192033       2.15622716       0.00000000        1
Al       2.37664239       0.01685512       1.25542191        2
Al       1.03527794       2.13937204       1.25542191        3
