4
Lattice="5.260156215740093 -0.0035613680847409513 9.321023893968613e-13 2.2544408847417374 4.752552197981276 2.7787152342915746e-12 -3.7572985502414142 -2.3744954149496755 2.8131361904587027" Properties=species:S:1:pos:R:3:tags:I:1 spacegroup="P 1" unit_cell=conventional n_minim_iter=1 stress="0.0958107884676036 0.0008854229114093112 8.088230770182663e-16 0.0008854229114093112 0.09496929330317776 3.542993173723764e-16 8.088230770182663e-16 3.542993173723764e-16 0.09440973365804475" pbc="T T T"
Ti       0.00000000       0.00000000       0.00000000        0
Al       3.75729855       2.37449541       0.00000000        1
Al       2.63007811      -0.00178068       1.40656810        2
Al       1.12722044       2.37627610       1.40656810        3
