4
Lattice="5.369774202532579 -0.0036355845117175137 9.477164720883227e-13 2.301421860399565 4.851592071076683 2.8319768709911718e-12 -3.83559803146658 -2.4239782432839183 2.8717599866205807" Properties=species:S:1:pos:R:3:tags:I:1 spacegroup="P 1" unit_cell=conventional n_minim_iter=1 stress="0.12328120040789924 -0.003445216145097873 -2.691661270090568e-15 -0.003445216145097873 0.12655549192344917 -1.7139285664538765e-15 -2.691661270090568e-15 -1.7139285664538765e-15 0.1287327609987305" pbc="T T T"
Ti       0.00000000       0.00000000       0.00000000        0
Al       3.83559803       2.42397824       0.00000000        1
Al       2.68488710      -0.00181779       1.43587999        2
Al       1.15071093       2.42579604       1.43587999        3
