4
Lattice="4.942965262037329 -0.003346615196618288 8.725099171334395e-13 2.1184965848066977 4.465970107569395 2.6088383224575104e-12 -3.5307309234224795 -2.231311746187711 2.6435021882446055" Properties=species:S:1:pos:R:3:tags:I:1 spacegroup="P 1" unit_cell=conventional n_minim_iter=1 stress="-0.0019311624043114014 -0.0022785498745575895 -1.293190358738811e-15 -0.0022785498745575895 0.0002343436794323701 -1.1649085642687793e-15 -1.293190358738811e-15 -1.1649085642687793e-15 0.0016743160844780347" pbc="T T T"
Ti       0.00000000       0.00000000       0.00000000        0
Al       3.53073092       2.23131175       0.00000000        1
Al       2.47148263      -0.00167331       1.32175109        2
Al       1.05924829       2.23298505       1.32175109        3
