4
Lattice="5.184459990274364 -0.003510118252899074 9.154066726940785e-13 2.2219983757151205 4.68416064306138 2.735768922173492e-12 -3.703229182995234 -2.3403252624056274 2.7726537822173754" Properties=species:S:1:pos:R:3:tags:I:1 spacegroup="P 1" unit_cell=conventional n_minim_iter=1 stress="0.06767331791710685 0.002356271792217883 1.8404446373183785e-15 0.002356271792217883 0.06543394586825416 1.333795681338842e-15 1.8404446373183785e-15 1.333795681338842e-15 0.06394485563702047" pbc="T T T"
Ti       0.00000000       0.00000000       0.00000000        0
Al       3.70322918       2.34032526       0.00000000        1
Al       2.59223000      -0.00175506       1.38632689        2
Al       1.11099919       2.34208032       1.38632689        3
