4
Lattice="5.0260558274186184 -0.0034028713372279457 8.889219499040709e-13 2.1541082206686437 4.54104245008894 2.653510425243295e-12 -3.5900820240441083 -2.268819789377202 2.6879390960041762" Properties=species:S:1:pos:R:3:tags:I:1 spacegroup="P 1" unit_cell=conventional n_minim_iter=1 stress="0.016632692040597717 -0.0008452299210526586 -8.499802279560855e-16 -0.0008452299210526586 0.017435988275909222 -6.163874785029179e-16 -8.499802279560855e-16 -6.163874785029179e-16 0.017970147205596917" pbc="T T T"
Ti       0.00000000       0.00000000       0.00000000        0
Al       3.59008202       2.26881979       0.00000000        1
Al       2.51302791      -0.00170144       1.34396955        2
Al       1.07705411       2.27052123       1.34396955        3
