4
Lattice="5.333734363594157 -0.003611183880460573 9.409546413983804e-13 2.2859756106971036 4.819030069353396 2.8131800270470955e-12 -3.8098549871461347 -2.4077094427378936 2.852485848922427" Properties=species:S:1:pos:R:3:tags:I:1 spacegroup="P 1" unit_cell=conventional n_minim_iter=1 stress="0.11620663384147635 -0.0018212356230624652 -1.3926922594520629e-15 -0.0018212356230624652 0.11793751402352105 -7.583909819491387e-16 -1.3926922594520629e-15 -7.583909819491387e-16 0.11908847809482853" pbc="T T T"
Ti       0.00000000       0.00000000       0.00000000        0
Al       3.80985499       2.40770944       0.00000000        1
Al       2.66686718      -0.00180559       1.42624292        2
Al       1.14298781       2.40951503       1.42624292        3
