4
Lattice="5.066590286189391 -0.003430315033171128 8.979486475876534e-13 2.171480811395181 4.577665341733978 2.6791904682962548e-12 -3.619035548792766 -2.2871175133517596 2.7096169603587548" Properties=species:S:1:pos:R:3:tags:I:1 spacegroup="P 1" unit_cell=conventional n_minim_iter=1 stress="0.0347013161706483 0.0003948652093976905 6.369856202866982e-16 0.0003948652093976905 0.0343260410789081 5.349606791358879e-16 6.369856202866982e-16 5.349606791358879e-16 0.034076498590682014" pbc="T T T"
Ti       0.00000000       0.00000000       0.00000000        0
Al       3.61903555       2.28711751       0.00000000        1
Al       2.53329514      -0.00171516       1.35480848        2
Al       1.08574041       2.28883267       1.35480848        3
