4
Lattice="4.799436057941596 0.034037535588485754 8.615508098329951e-13 2.0906596157318256 4.320287883839105 2.529432226035206e-12 -3.4450478368371584 -2.177162709715063 2.5352224686265097" Properties=species:S:1:pos:R:3:tags:I:1 spacegroup="P 1" unit_cell=conventional n_minim_iter=2 stress="-0.059978325979977536 0.0028761321330882115 1.90961284452498e-15 0.0028761321330882115 -0.06271176697304008 1.7452882218888138e-15 1.90961284452498e-15 1.7452882218888138e-15 -0.06452939271437728" pbc="T T T"
Ti       0.00000000       0.00000000       0.00000000        0
Al       3.44504784       2.17716271       0.00000000        1
Al       2.39971803       0.01701877       1.26761123        2
Al       1.04532981       2.16014394       1.26761123        3
