4
Lattice="5.260156215740094 -0.0035613680847402943 9.312953292232524e-13 2.2544408847417365 4.752552197981277 2.7782623529896626e-12 -3.7572985502414133 -2.3744954149496755 2.813136190458704" Properties=species:S:1:pos:R:3:tags:I:1 spacegroup="P 1" unit_cell=conventional n_minim_iter=1 stress="0.10703551277898093 -0.0003529900390948175 -3.390290902905473e-16 -0.0003529900390948175 0.10737099021824908 -4.98691136454644e-17 -3.390290902905473e-16 -4.98691136454644e-17 0.1075940689058076" pbc="T T T"
Ti       0.00000000       0.00000000       0.00000000        0
Al       3.75729855       2.37449541       0.00000000        1
Al       2.63007811      -0.00178068       1.40656810        2
Al       1.12722044       2.37627610       1.40656810        3
