2
Lattice="2.675521927183623 7.244266069897047e-18 2.675521927183623 2.675521927183623 2.675521927183623 4.455350803760881e-17 4.236083714953887e-17 2.675521927183623 2.675521927183623" Properties=species:S:1:pos:R:3:forces:R:3 n_minim_iter=1 energy=-326.3110373123276 stress="-0.03795522453722513 -8.498649905221216e-17 1.8294994045373505e-16 -8.498649905221216e-17 -0.037955224537225225 -2.734750218799117e-16 1.8294994045373505e-16 -2.734750218799117e-16 -0.037955224537225205" free_energy=-326.3110373123276 pbc="T T T"
Si       0.00000000      -0.00000000      -0.00000000      -0.00000000       0.00000000      -0.00000000
Si       1.33776096       1.33776096       1.33776096       0.00000000      -0.00000000       0.00000000
