2
Lattice="2.8346024971583033 7.674993982734805e-18 2.8346024971583033 2.8346024971583033 2.8346024971583033 4.72025603144687e-17 4.487951810292084e-17 2.8346024971583033 2.8346024971583033" Properties=species:S:1:pos:R:3:forces:R:3 n_minim_iter=1 energy=-326.2712003851099 stress="0.04022378529566064 -1.1638292346151374e-16 8.79753778565816e-17 -1.1638292346151374e-16 0.04022378529566047 2.8341955169641334e-17 8.79753778565816e-17 2.8341955169641334e-17 0.04022378529566068" free_energy=-326.2712003851099 pbc="T T T"
Si       0.00000000      -0.00000000      -0.00000000      -0.00000000      -0.00000000       0.00000000
Si       1.41730125       1.41730125       1.41730125       0.00000000       0.00000000      -0.00000000
