4
Lattice="2.069480128422076 -3.5844447276812015 -2.831923700772242e-18 2.0694801284220774 3.5844447276812015 2.831923700772194e-18 7.84373584659328e-32 -5.4246663868862235e-18 6.866151381338979" Properties=species:S:1:pos:R:3:forces:R:3 cutoff=-1.0 nneightol=1.2 n_minim_iter=1 energy=-651.721749258406 stress="0.07556482914319973 3.6330364678772504e-17 -2.2526857500784992e-17 3.6330364678772504e-17 0.07556482914319965 6.581458244277985e-18 -2.2526857500784992e-17 6.581458244277985e-18 0.07446154596214077" free_energy=-651.721749258406 pbc="T T T"
Si       2.06948013       1.19481491       0.44233145       0.00000000       0.00000000       0.02617090
Si       2.06948013      -1.19481491       3.87540714      -0.00000000      -0.00000000       0.02617090
Si       2.06948013       1.19481491       2.99074424       0.00000000       0.00000000      -0.02617090
Si       2.06948013      -1.19481491      -0.44233145      -0.00000000      -0.00000000      -0.02617090
4
Lattice="2.0683728947725815 -3.5825269427444275 -3.121438057130709e-18 2.068372894772583 3.5825269427444275 3.121438057130657e-18 7.992854236484634e-32 -4.872996743648201e-18 6.873504473931131" Properties=species:S:1:pos:R:3:forces:R:3 cutoff=-1.0 nneightol=1.2 n_minim_iter=2 energy=-651.721851089578 stress="0.07514155932990933 1.4532145871509002e-16 1.1059533734223075e-17 1.4532145871509002e-16 0.07514155932990925 -2.147375952342578e-17 1.1059533734223075e-17 -2.147375952342578e-17 0.07506459165574768" free_energy=-651.721851089578 pbc="T T T"
Si       2.06837289       1.19417565       0.44317942       0.00000000      -0.00000000       0.02394141
Si       2.06837289      -1.19417565       3.87993166      -0.00000000       0.00000000       0.02394141
Si       2.06837289       1.19417565       2.99357281       0.00000000      -0.00000000      -0.02394141
Si       2.06837289      -1.19417565      -0.44317942      -0.00000000       0.00000000      -0.02394141
4
Lattice="2.067610458002545 -3.5812063635211673 -3.654492091259308e-18 2.0676104580025463 3.5812063635211673 3.654492091259266e-18 8.603741619619292e-32 -3.853698967236853e-18 6.8785746541233825" Properties=species:S:1:pos:R:3:forces:R:3 cutoff=-1.0 nneightol=1.2 n_minim_iter=3 energy=-651.7219075462631 stress="0.07484622867418216 9.536720728177782e-17 -1.2949417446603535e-17 9.536720728177782e-17 0.07484622867418225 4.025320890826093e-17 -1.2949417446603535e-17 4.025320890826093e-17 0.07535967030006846" free_energy=-651.7219075462631 pbc="T T T"
Si       2.06761046       1.19373545       0.44462636       0.00000000      -0.00000000       0.00857400
Si       2.06761046      -1.19373545       3.88391369      -0.00000000       0.00000000       0.00857400
Si       2.06761046       1.19373545       2.99466097       0.00000000       0.00000000      -0.00857400
Si       2.06761046      -1.19373545      -0.44462636      -0.00000000      -0.00000000      -0.00857400
