4
Lattice="2.043800787150441 -3.539966803893828 -1.86655765659394e-18 2.043800787150441 3.539966803893828 1.8665576565939353e-18 7.248486338685433e-33 -3.563462758555278e-18 6.758183883382639" Properties=species:S:1:pos:R:3:forces:R:3 cutoff=-1.0 nneightol=1.2 n_minim_iter=1 energy=-652.0112350483297 stress="0.06724221107702508 -3.178906909392594e-17 -5.579112192809104e-17 -3.178906909392594e-17 0.06724221107702506 -4.558570417911186e-17 -5.579112192809104e-17 -4.558570417911186e-17 0.06661857641471852" free_energy=-652.0112350483297 pbc="T T T"
Si       2.04380079       1.17998893       0.43116621       0.00000000       0.00000000       0.03395951
Si       2.04380079      -1.17998893       3.81025815       0.00000000       0.00000000       0.03395951
Si       2.04380079       1.17998893       2.94792573      -0.00000000      -0.00000000      -0.03395951
Si       2.04380079      -1.17998893      -0.43116621      -0.00000000      -0.00000000      -0.03395951
4
Lattice="2.0423594252803534 -3.5374702919027454 -3.308264607907794e-18 2.0423594252803534 3.5374702919027454 3.3082646079078198e-18 6.864732093228443e-33 -8.151975136365682e-19 6.767726205573206" Properties=species:S:1:pos:R:3:forces:R:3 cutoff=-1.0 nneightol=1.2 n_minim_iter=2 energy=-652.0113580417433 stress="0.06666296832374326 -2.7247773509079377e-17 6.55198763700706e-18 -2.7247773509079377e-17 0.06666296832374359 6.932348198867656e-18 6.55198763700706e-18 6.932348198867656e-18 0.06739368888654051" free_energy=-652.0113580417433 pbc="T T T"
Si       2.04235943       1.17915676       0.43295520       0.00000000      -0.00000000       0.02128331
Si       2.04235943      -1.17915676       3.81681831      -0.00000000       0.00000000       0.02128331
Si       2.04235943       1.17915676       2.95090790       0.00000000      -0.00000000      -0.02128331
Si       2.04235943      -1.17915676      -0.43295520       0.00000000       0.00000000      -0.02128331
4
Lattice="2.0426192383292157 -3.5379203013038447 -4.0359286909384036e-18 2.0426192383292157 3.5379203013038447 4.035928690938435e-18 8.507845016445631e-33 5.757246587895245e-19 6.766004659316136" Properties=species:S:1:pos:R:3:forces:R:3 cutoff=-1.0 nneightol=1.2 n_minim_iter=3 energy=-652.0114099446879 stress="0.06678777325722081 4.541295584846563e-18 -2.3550753319772536e-17 4.541295584846563e-18 0.06678777325722116 -2.6713254190182133e-17 -2.3550753319772536e-17 -2.6713254190182133e-17 0.06707672445929615" free_energy=-652.0114099446879 pbc="T T T"
Si       2.04261924       1.17930677       0.43350501       0.00000000      -0.00000000       0.00840880
Si       2.04261924      -1.17930677       3.81650734       0.00000000       0.00000000       0.00840880
Si       2.04261924       1.17930677       2.94949732      -0.00000000      -0.00000000      -0.00840880
Si       2.04261924      -1.17930677      -0.43350501      -0.00000000       0.00000000      -0.00840880
