4
Lattice="1.739739942877088 -3.0133179730200927 -1.0848566557425992e-16 1.7397399428770872 3.0133179730200927 1.0848566557425965e-16 4.336545432647398e-31 -2.0986783021776534e-16 5.829327786361205" Properties=species:S:1:pos:R:3:forces:R:3 cutoff=-1.0 nneightol=1.2 n_minim_iter=1 energy=-650.4205171671857 stress="-0.2824480916935072 -7.266072935754501e-16 -8.571242516391065e-17 -7.266072935754501e-16 -0.28244809169350776 -6.230752243316356e-17 -8.571242516391065e-17 -6.230752243316356e-17 -0.28885287992941244" free_energy=-650.4205171671857 pbc="T T T"
Si       1.73973994       1.00443932       0.38680303      -0.00000000       0.00000000       0.06801991
Si       1.73973994      -1.00443932       3.30146693       0.00000000      -0.00000000       0.06801991
Si       1.73973994       1.00443932       2.52786086      -0.00000000       0.00000000      -0.06801991
Si       1.73973994      -1.00443932      -0.38680303       0.00000000      -0.00000000      -0.06801991
4
Lattice="1.7364999588584948 -3.0077061560841782 -1.327381039484246e-16 1.736499958858494 3.0077061560841782 1.327381039484247e-16 4.239722919392473e-31 -1.6334400568738608e-16 5.851100949681183" Properties=species:S:1:pos:R:3:forces:R:3 cutoff=-1.0 nneightol=1.2 n_minim_iter=2 energy=-650.4211166785262 stress="-0.2854685996484531 -2.361473704120213e-16 3.675157314804494e-17 -2.361473704120213e-16 -0.2854685996484531 -3.230941290837273e-16 3.675157314804494e-17 -3.230941290837273e-16 -0.2797515987706904" free_energy=-650.4211166785262 pbc="T T T"
Si       1.73649996       1.00256872       0.38922313      -0.00000000       0.00000000       0.20013665
Si       1.73649996      -1.00256872       3.31477360      -0.00000000       0.00000000       0.20013665
Si       1.73649996       1.00256872       2.53632735       0.00000000      -0.00000000      -0.20013665
Si       1.73649996      -1.00256872      -0.38922313       0.00000000      -0.00000000      -0.20013665
4
Lattice="1.7326685787514102 -3.0010700110755995 -1.4877511660817684e-16 1.7326685787514093 3.0010700110755995 1.4877511660817674e-16 9.415769008617943e-32 -1.3340095864185825e-16 5.877006166452038" Properties=species:S:1:pos:R:3:forces:R:3 cutoff=-1.0 nneightol=1.2 n_minim_iter=3 energy=-650.4238290637953 stress="-0.2794777193878254 -5.4495547018158766e-17 1.69265219343035e-16 -5.4495547018158766e-17 -0.2794777193878262 -5.970042902067922e-16 1.69265219343035e-16 -5.970042902067922e-16 -0.2837106727903841" free_energy=-650.4238290637953 pbc="T T T"
Si       1.73266858       1.00035667       0.39978245      -0.00000000       0.00000000      -0.03683048
Si       1.73266858      -1.00035667       3.33828553      -0.00000000      -0.00000000      -0.03683048
Si       1.73266858       1.00035667       2.53872063       0.00000000       0.00000000       0.03683048
Si       1.73266858      -1.00035667      -0.39978245       0.00000000      -0.00000000       0.03683048
4
Lattice="1.7312451631608665 -2.9986045829524905 -1.6602350853815988e-16 1.7312451631608656 2.9986045829524905 1.6602350853815973e-16 1.319632862260204e-31 -1.0039744844039616e-16 5.886674191954067" Properties=species:S:1:pos:R:3:forces:R:3 cutoff=-1.0 nneightol=1.2 n_minim_iter=4 energy=-650.4239844429891 stress="-0.2801295191665402 -1.1444064873813339e-15 -9.229620238047049e-17 -1.1444064873813339e-15 -0.2801295191665421 -1.161749103038633e-16 -9.229620238047049e-17 -1.161749103038633e-16 -0.28039021268357445" free_energy=-650.4239844429891 pbc="T T T"
Si       1.73124516       0.99953486       0.40133189      -0.00000000       0.00000000      -0.00269908
Si       1.73124516      -0.99953486       3.34466899       0.00000000      -0.00000000      -0.00269908
Si       1.73124516       0.99953486       2.54200521      -0.00000000       0.00000000       0.00269908
Si       1.73124516      -0.99953486      -0.40133189       0.00000000      -0.00000000       0.00269908
