4
Lattice="1.8435238766678583 -3.1930770193550706 -1.656297393250037e-18 1.8435238766678577 3.1930770193550706 1.6562973932500813e-18 -7.304326858439933e-32 -3.141704441607304e-18 6.056704728863571" Properties=species:S:1:pos:R:3:forces:R:3 cutoff=-1.0 nneightol=1.2 n_minim_iter=1 energy=-652.2463357553895 stress="-0.09247387239388691 -4.495882628998098e-16 -9.939193282773084e-17 -4.495882628998098e-16 -0.09247387239388732 -3.1848299555227437e-16 -9.939193282773084e-17 -3.1848299555227437e-16 -0.09098571593261842" free_energy=-652.2463357553895 pbc="T T T"
Si       1.84352388       1.06435901       0.38086047      -0.00000000       0.00000000       0.05496932
Si       1.84352388      -1.06435901       3.40921283       0.00000000       0.00000000       0.05496932
Si       1.84352388       1.06435901       2.64749190      -0.00000000      -0.00000000      -0.05496932
Si       1.84352388      -1.06435901      -0.38086047       0.00000000      -0.00000000      -0.05496932
4
Lattice="1.844093008632162 -3.1940627848334544 1.2966096224243326e-18 1.8440930086321614 3.1940627848334544 -1.296609622424386e-18 -8.496686920864042e-32 -8.74029020823881e-18 6.052966812913054" Properties=species:S:1:pos:R:3:forces:R:3 cutoff=-1.0 nneightol=1.2 n_minim_iter=2 energy=-652.2464214363413 stress="-0.09155940484264286 -3.0880809976956626e-16 -4.904132935894029e-17 -3.0880809976956626e-16 -0.09155940484264427 -2.964353206253927e-16 -4.904132935894029e-17 -2.964353206253927e-16 -0.09255300961195297" free_energy=-652.2464214363413 pbc="T T T"
Si       1.84409301       1.06468759       0.38110482      -0.00000000       0.00000000       0.02293898
Si       1.84409301      -1.06468759       3.40758822       0.00000000      -0.00000000       0.02293898
Si       1.84409301       1.06468759       2.64537859      -0.00000000       0.00000000      -0.02293898
Si       1.84409301      -1.06468759      -0.38110482       0.00000000      -0.00000000      -0.02293898
4
Lattice="1.842890776688936 -3.1919804580253044 -2.324672693858772e-19 1.8428907766889353 3.1919804580253044 2.324672693857095e-19 -5.359696111703212e-32 -5.8321184887222906e-18 6.060866840183136" Properties=species:S:1:pos:R:3:forces:R:3 cutoff=-1.0 nneightol=1.2 n_minim_iter=3 energy=-652.246550293472 stress="-0.0917328813026407 -9.082591169693126e-18 2.133525313367346e-17 -9.082591169693126e-18 -0.09173288130264223 -7.058714746208732e-17 2.133525313367346e-17 -7.058714746208732e-17 -0.09174932278227625" free_energy=-652.246550293472 pbc="T T T"
Si       1.84289078       1.06399349       0.38341061       0.00000000       0.00000000      -0.00031973
Si       1.84289078      -1.06399349       3.41384403      -0.00000000      -0.00000000      -0.00031973
Si       1.84289078       1.06399349       2.64702281       0.00000000       0.00000000       0.00031973
Si       1.84289078      -1.06399349      -0.38341061      -0.00000000      -0.00000000       0.00031973
