4
Lattice="1.9882468358043541 -3.4437445376011966 -2.0978640076917903e-18 1.9882468358043546 3.4437445376011966 2.0978640076917864e-18 -4.6035204210495186e-33 -3.932343853843391e-18 6.546029643287" Properties=species:S:1:pos:R:3:forces:R:3 cutoff=-1.0 nneightol=1.2 n_minim_iter=3 energy=-652.5456100045869 stress="0.033822561377619076 1.226149807908572e-16 3.294562581799716e-17 1.226149807908572e-16 0.033822561377618854 -5.057082080304618e-17 3.294562581799716e-17 -5.057082080304618e-17 0.033571238003413904" free_energy=-652.5456100045869 pbc="T T T"
Si       1.98824684       1.14791485       0.41176280      -0.00000000       0.00000000       0.00310941
Si       1.98824684      -1.14791485       3.68477762      -0.00000000       0.00000000       0.00310941
Si       1.98824684       1.14791485       2.86125202       0.00000000      -0.00000000      -0.00310941
Si       1.98824684      -1.14791485      -0.41176280       0.00000000      -0.00000000      -0.00310941
