4
Lattice="2.0025283318769382 -3.4684808144070085 -1.995483486169678e-18 2.0025283318769382 3.4684808144070085 1.995483486169678e-18 8.632057418753686e-33 -4.243613837312588e-18 6.599652465902809" Properties=species:S:1:pos:R:3:forces:R:3 cutoff=-1.0 nneightol=1.2 n_minim_iter=2 energy=-652.4676199790556 stress="0.04252284722319272 -7.720202494239157e-17 -2.226956339974158e-17 -7.720202494239157e-17 0.042522847223192314 -3.3793003979944965e-17 -2.226956339974158e-17 -3.3793003979944965e-17 0.04270995195437617" free_energy=-652.4676199790556 pbc="T T T"
Si       2.00252833       1.15616027       0.41654234       0.00000000       0.00000000       0.00193953
Si       2.00252833      -1.15616027       3.71636857       0.00000000      -0.00000000       0.00193953
Si       2.00252833       1.15616027       2.88328390      -0.00000000       0.00000000      -0.00193953
Si       2.00252833      -1.15616027      -0.41654234       0.00000000      -0.00000000      -0.00193953
