4
Lattice="1.8782337659756514 -3.2531963111612603 -1.1608205125589447e-18 1.8782337659756512 3.2531963111612603 1.1608205125589253e-18 -4.717330907197167e-33 -6.6403233523377905e-19 6.168340332948948" Properties=species:S:1:pos:R:3:forces:R:3 cutoff=-1.0 nneightol=1.2 n_minim_iter=2 energy=-652.5222185672062 stress="-0.045845981184549675 -4.3596437614527003e-16 -1.1784911137678508e-16 -4.3596437614527003e-16 -0.04584598118454957 -1.0697965774693447e-16 -1.1784911137678508e-16 -1.0697965774693447e-16 -0.04600136322819199" free_energy=-652.5222185672062 pbc="T T T"
Si       1.87823377       1.08439877       0.38602828      -0.00000000       0.00000000       0.00751672
Si       1.87823377      -1.08439877       3.47019845       0.00000000       0.00000000       0.00751672
Si       1.87823377       1.08439877       2.69814188      -0.00000000      -0.00000000      -0.00751672
Si       1.87823377      -1.08439877      -0.38602828       0.00000000      -0.00000000      -0.00751672
