4
Lattice="1.8945903538828184 -3.2815267524549396 -7.622247958611787e-19 1.8945903538828184 3.2815267524549396 7.622247958611814e-19 -4.257207533810284e-33 -6.4449709166074694e-18 6.22613945763276" Properties=species:S:1:pos:R:3:forces:R:3 cutoff=-1.0 nneightol=1.2 n_minim_iter=2 energy=-652.5975071268444 stress="-0.0284764452118233 2.452299615817144e-16 -1.0456648742827778e-16 2.452299615817144e-16 -0.028476445211823423 5.203703866924497e-17 -1.0456648742827778e-16 5.203703866924497e-17 -0.028454483181353747" free_energy=-652.5975071268444 pbc="T T T"
Si       1.89459035       1.09384225       0.38947181       0.00000000       0.00000000      -0.00235454
Si       1.89459035      -1.09384225       3.50254154       0.00000000      -0.00000000      -0.00235454
Si       1.89459035       1.09384225       2.72359792      -0.00000000       0.00000000       0.00235454
Si       1.89459035      -1.09384225      -0.38947181      -0.00000000      -0.00000000       0.00235454
