20
Lattice="0.960346078255506 1.7374533728745887e-16 -4.731995864176509e-31 -5.1987599258891853e-14 287.3520973031716 2.9072132514381987e-13 2.6485497489400384e-27 -3.965205502880972e-12 3919.2519397304573" Properties=species:S:1:pos:R:3 unique_starting_index=4 config_type=initial n_minim_iter=1 energy=-2183.6500131564057 free_energy=-2183.6500131564057 pbc="T T T"
Si       0.59066058     120.04697863    2249.02223469
Si       0.59066058     167.30511867    1670.22970504
Si       0.39238650     106.81950142    2058.68014495
Si       0.39238650     180.53259588    1860.57179478
Si       0.36968550     -23.62907002    3629.85567490
Si       0.36968550     310.98116732     289.39626483
Si       0.56795957     250.49555007    3820.19776465
Si       0.56795957      36.85654723      99.05417508
Si       0.50919870     189.45080337     928.24433950
Si       0.50919870      97.90129394    2991.00760023
Si       0.46799649     240.99687509    3238.38598138
Si       0.46799649      46.35522222     680.86595835
Si       0.45114738      45.77475471    1031.38163036
Si       0.45114738     241.57734259    2887.87030937
Si       0.49234958      97.32082644    2640.49192822
Si       0.49234958     190.03127087    1278.76001151
Si       0.92509366     158.79386031    3638.52745532
Si       0.92509366     128.55823700     280.72448441
Si       0.03525241     272.23428565    1678.90148546
Si       0.03525241      15.11781165    2240.35045428
