65
Lattice="10.989396633524017 0.0 0.0 0.0 10.989396633524017 0.0 0.0 0.0 10.989396633524017" Properties=species:S:1:pos:R:3:forces:R:3 cutoff=-1.0 nneightol=1.2 Zs=14 interstitial_position="mean 4 5 6 7" bulk_struct_test=bulk_Si_diamond supercell_a1_in_bulk_lattice_coords="2 2 -2" n_minim_iter=0 energy=-10603.16311353439 stress="0.004575341094213706 -4.182895450433161e-11 -4.182902573603078e-11 -4.182895450433161e-11 0.004575341094213716 -4.1828991110962685e-11 -4.182902573603078e-11 -4.1828991110962685e-11 0.0045753410942136865" free_energy=-10603.16311353439 pbc="T T T"
Si      -0.06201127      -0.06201127      -0.06201127      -0.00045787      -0.00045787      -0.00045787
Si       2.74734916       2.74734916      -0.04133441      -0.00000000      -0.00000000      -0.00042220
Si       2.74734916      -0.04133441       2.74734916      -0.00000000      -0.00042220      -0.00000000
Si      -0.04133441       2.74734916       2.74734916      -0.00042220      -0.00000000      -0.00000000
Si       1.30972494       1.30972494       1.30972494      -0.00006478      -0.00006478      -0.00006478
Si       4.18497337       4.18497337       1.30972494       0.00006478       0.00006478      -0.00006478
Si       4.18497337       1.30972494       4.18497337       0.00006478      -0.00006478       0.00006478
Si       1.30972494       4.18497337       4.18497337      -0.00006478       0.00006478       0.00006478
Si      -0.00591208      -0.00591208       5.50061039       0.00122832       0.00122832      -0.00122832
Si       2.74734916       2.74734916       5.53603273      -0.00000000      -0.00000000       0.00042220
Si       2.74734916       0.00041000       8.24204747      -0.00000001       0.00641878      -0.00000000
Si       0.00041000       2.74734916       8.24204747       0.00641878      -0.00000001      -0.00000000
Si       1.35944759       1.35944759       6.87809464       0.00322539       0.00322539      -0.00373731
Si       4.13525072       4.13525072       6.87809464      -0.00322538      -0.00322538      -0.00373732
Si       4.13525072       1.35944759       9.60600031      -0.00322538       0.00322539       0.00373732
Si       1.35944759       4.13525072       9.60600031       0.00322539      -0.00322538       0.00373732
Si      -0.00591208       5.50061039      -0.00591208       0.00122832      -0.00122832       0.00122832
Si       2.74734916       8.24204747       0.00041000      -0.00000001      -0.00000000       0.00641878
Si       2.74734916       5.53603273       2.74734916      -0.00000000       0.00042220      -0.00000000
Si       0.00041000       8.24204747       2.74734916       0.00641878      -0.00000000      -0.00000001
Si       1.35944759       6.87809464       1.35944759       0.00322539      -0.00373731       0.00322539
Si       4.13525072       9.60600031       1.35944759      -0.00322538       0.00373732       0.00322539
Si       4.13525072       6.87809464       4.13525072      -0.00322538      -0.00373732      -0.00322538
Si       1.35944759       9.60600031       4.13525072       0.00322539       0.00373732      -0.00322538
Si      -0.06201127       5.55670959       5.55670959      -0.00045788       0.00045787       0.00045787
Si       2.74734916       8.24204747       5.49428831      -0.00000001       0.00000000      -0.00641878
Si       2.74734916       5.49428831       8.24204747      -0.00000001      -0.00641878       0.00000000
Si       0.00268784       8.24204747       8.24204747       0.00575917      -0.00000000      -0.00000000
Si       1.38283414       6.87963751       6.87963751       0.00598666       0.00130404       0.00130404
Si       4.11186418       9.60445744       6.87963751      -0.00598665      -0.00130404       0.00130404
Si       4.11186418       6.87963751       9.60445744      -0.00598665       0.00130404      -0.00130404
Si       1.38283414       9.60445744       9.60445744       0.00598666      -0.00130404      -0.00130404
Si       5.50061039      -0.00591208      -0.00591208      -0.00122832       0.00122832       0.00122832
Si       8.24204747       2.74734916       0.00041000      -0.00000000      -0.00000001       0.00641878
Si       8.24204747       0.00041000       2.74734916      -0.00000000       0.00641878      -0.00000001
Si       5.53603273       2.74734916       2.74734916       0.00042220      -0.00000000      -0.00000000
Si       6.87809464       1.35944759       1.35944759      -0.00373731       0.00322539       0.00322539
Si       9.60600031       4.13525072       1.35944759       0.00373732      -0.00322538       0.00322539
Si       9.60600031       1.35944759       4.13525072       0.00373732       0.00322539      -0.00322538
Si       6.87809464       4.13525072       4.13525072      -0.00373732      -0.00322538      -0.00322538
Si       5.55670959      -0.06201127       5.55670959       0.00045787      -0.00045788       0.00045787
Si       8.24204747       2.74734916       5.49428831       0.00000000      -0.00000001      -0.00641878
Si       8.24204747       0.00268784       8.24204747      -0.00000000       0.00575917      -0.00000000
Si       5.49428831       2.74734916       8.24204747      -0.00641878      -0.00000001       0.00000000
Si       6.87963751       1.38283414       6.87963751       0.00130404       0.00598666       0.00130404
Si       9.60445744       4.11186418       6.87963751      -0.00130404      -0.00598665       0.00130404
Si       9.60445744       1.38283414       9.60445744      -0.00130404       0.00598666      -0.00130404
Si       6.87963751       4.11186418       9.60445744       0.00130404      -0.00598665      -0.00130404
Si       5.55670959       5.55670959      -0.06201127       0.00045787       0.00045787      -0.00045788
Si       8.24204747       8.24204747       0.00268784      -0.00000000      -0.00000000       0.00575917
Si       8.24204747       5.49428831       2.74734916       0.00000000      -0.00641878      -0.00000001
Si       5.49428831       8.24204747       2.74734916      -0.00641878       0.00000000      -0.00000001
Si       6.87963751       6.87963751       1.38283414       0.00130404       0.00130404       0.00598666
Si       9.60445744       9.60445744       1.38283414      -0.00130404      -0.00130404       0.00598666
Si       9.60445744       6.87963751       4.11186418      -0.00130404       0.00130404      -0.00598665
Si       6.87963751       9.60445744       4.11186418       0.00130404      -0.00130404      -0.00598665
Si       5.50061039       5.50061039       5.50061039      -0.00122832      -0.00122832      -0.00122832
Si       8.24204747       8.24204747       5.49201047      -0.00000000      -0.00000000      -0.00575917
Si       8.24204747       5.49201047       8.24204747      -0.00000000      -0.00575917      -0.00000000
Si       5.49201047       8.24204747       8.24204747      -0.00575917      -0.00000000      -0.00000000
Si       6.87089974       6.87089974       6.87089974      -0.00533928      -0.00533928      -0.00533928
Si       9.61319521       9.61319521       6.87089974       0.00533929       0.00533929      -0.00533928
Si       9.61319521       6.87089974       9.61319521       0.00533929      -0.00533928       0.00533929
Si       6.87089974       9.61319521       9.61319521      -0.00533928       0.00533929       0.00533929
Si       2.74734916       2.74734916       2.74734916       0.00000000       0.00000000       0.00000000
