8
Lattice="6.509906107214921 -6.829127173769603e-16 2.4704761607185194e-48 -3.2549530536074602 5.637744065099584 -7.252143035999675e-48 -2.2644333635421906e-48 1.370915884604446e-50 4.534859037770017" Properties=species:S:1:pos:R:3:tags:I:1 spacegroup="P 1" unit_cell=conventional n_minim_iter=4 stress="-0.1000726810240987 1.4466329304867923e-16 6.350527337379764e-19 1.4466329304867923e-16 -0.10007268102409916 1.7039422136679864e-18 6.350527337379764e-19 1.7039422136679864e-18 -0.10001722848099748" pbc="T T T"
Ti       3.25495306       3.66451265       1.13371476        0
Ti      -1.54607963       4.65113118       3.40114428        1
Ti       1.54607964       4.65113118       3.40114428        2
Ti       1.70887343       0.98662417       1.13371476        3
Ti       4.80103269       0.98662417       1.13371476        4
Ti       0.00000001       1.97324270       3.40114428        5
Al       0.00000001       3.75850169       1.13371476        6
Al       3.25495306       1.87925366       3.40114428        7
