8
Lattice="6.699106676834235 -7.453316627587015e-16 8.831800718033307e-48 -3.349553338417117 5.801596564800398 -1.0157110784281658e-47 -5.536247838124189e-48 5.607098009592952e-48 4.567811545684058" Properties=species:S:1:pos:R:3:tags:I:1 spacegroup="P 1" unit_cell=conventional n_minim_iter=4 stress="-0.04454581447681533 -8.488063053541603e-16 -6.19703482778656e-17 -8.488063053541603e-16 -0.04454581447681529 -7.057081297157937e-17 -6.19703482778656e-17 -7.057081297157937e-17 -0.044513267443147916" pbc="T T T"
Ti       3.34955334       3.75622883       1.14195288        0
Ti      -1.57820788       4.77891560       3.42585866        1
Ti       1.57820790       4.77891560       3.42585866        2
Ti       1.77134545       1.02269258       1.14195288        3
Ti       4.92776123       1.02269258       1.14195288        4
Ti       0.00000001       2.04537935       3.42585866        5
Al       0.00000001       3.86773685       1.14195288        6
Al       3.34955334       1.93387133       3.42585866        7
