8
Lattice="6.139352278470728 7.49305221639509e-17 4.0082539328763747e-48 -3.069676139235364 5.316835035937526 -3.629797914409566e-48 -4.138945802306149e-48 -7.340909611530855e-48 4.75888171091975" Properties=species:S:1:pos:R:3:tags:I:1 spacegroup="P 1" unit_cell=conventional n_minim_iter=4 stress="0.1664989121066849 1.256864642235368e-16 -1.571847015325622e-18 1.256864642235368e-16 0.1664989121066874 1.0659483816703996e-17 -1.571847015325622e-18 1.0659483816703996e-17 0.16661707575151483" pbc="T T T"
Ti       3.06967614       3.41508445       1.18972043        0
Ti      -1.42270720       4.36596240       3.56916128        1
Ti       1.42270721       4.36596240       3.56916128        2
Ti       1.64696894       0.95088328       1.18972043        3
Ti       4.49238335       0.95088328       1.18972043        4
Ti       0.00000001       1.90176123       3.56916128        5
Al       0.00000001       3.54456201       1.18972043        6
Al       3.06967614       1.77228367       3.56916128        7
