8
Lattice="5.656123378419044 1.114927284271646e-16 9.918913075497157e-49 -2.828061689209522 4.8983465326499545 8.887470327566634e-48 -8.428457921396833e-49 -9.231906764989904e-48 4.805797641082183" Properties=species:S:1:pos:R:3:tags:I:1 spacegroup="P 1" unit_cell=conventional n_minim_iter=3 stress="-0.3941997665389704 -1.2525859172224477e-16 7.877932125530556e-19 -1.2525859172224477e-16 -0.39419976653896943 -3.627045286114924e-18 7.877932125530556e-19 -3.627045286114924e-18 -0.3942362160541776" pbc="T T T"
Ti       2.82806169       3.15817218       1.20144941        0
Ti      -1.32102224       4.02826181       3.60434823        1
Ti       1.32102225       4.02826181       3.60434823        2
Ti       1.50703945       0.87009453       1.20144941        3
Ti       4.14908394       0.87009453       1.20144941        4
Ti       0.00000000       1.74018416       3.60434823        5
Al       0.00000000       3.26556926       1.20144941        6
Al       2.82806169       1.63278708       3.60434823        7
