8
Lattice="5.712334870017034 8.830212152442553e-17 1.0048977040234892e-48 -2.856167435008517 4.947027112358431 8.985980844059841e-48 -2.943124983030231e-48 -1.4694274313810433e-48 4.842561378863243" Properties=species:S:1:pos:R:3:tags:I:1 spacegroup="P 1" unit_cell=conventional n_minim_iter=4 stress="-0.36404351174402155 -9.948940856321552e-16 -7.992042916981894e-17 -9.948940856321552e-16 -0.36404351174401783 -1.3945394192948818e-16 -7.992042916981894e-17 -1.3945394192948818e-16 -0.36408036815391914" pbc="T T T"
Ti       2.85616744       3.18659731       1.21064034        0
Ti      -1.33158621       4.06681469       3.63192103        1
Ti       1.33158622       4.06681469       3.63192103        2
Ti       1.52458122       0.88022233       1.21064034        3
Ti       4.18775366       0.88022233       1.21064034        4
Ti       0.00000000       1.76043970       3.63192103        5
Al       0.00000000       3.29802303       1.21064034        6
Al       2.85616744       1.64901399       3.63192103        7
