2
Lattice="5.002494492693667 2.2894633828767883e-17 1.7451292861450117e-16 2.289463382876748e-17 5.002494492693667 -2.746819684106984e-16 2.5012472463468334 2.5012472463468334 1.3796004711882512" Properties=species:S:1:pos:R:3:forces:R:3 cutoff=-1.0 nneightol=1.2 n_minim_iter=1 energy=-325.5987718966076 stress="0.05892168899054735 7.025012359706766e-17 2.5047947267420917e-17 7.025012359706766e-17 0.05892168899054728 1.992098343876829e-17 2.5047947267420917e-17 1.992098343876829e-17 0.04379270071566636" free_energy=-325.5987718966076 pbc="T T T"
Si      -0.00000000      -1.25062362      -0.34490012       0.00000000       0.00000000      -0.00000000
Si      -0.00000000       1.25062362       0.34490012      -0.00000000      -0.00000000       0.00000000
2
Lattice="4.941409438155068 -1.497758349322772e-17 2.041573869860064e-15 -1.497758349322757e-17 4.941409438155067 -3.51133640030068e-15 2.470704719077534 2.470704719077532 1.4139201756285973" Properties=species:S:1:pos:R:3:forces:R:3 cutoff=-1.0 nneightol=1.2 n_minim_iter=2 energy=-325.6049746104974 stress="0.05008660838127229 -1.3148527849910702e-17 7.544125022141479e-17 -1.3148527849910702e-17 0.05008660838127235 -3.8380473321939547e-16 7.544125022141479e-17 -3.8380473321939547e-16 0.05024196556837181" free_energy=-325.6049746104974 pbc="T T T"
Si      -0.00000000      -1.23535236      -0.35348004       0.00000000       0.00000000       0.00000000
Si      -0.00000000       1.23535236       0.35348004      -0.00000000      -0.00000000      -0.00000000
