2
Lattice="4.927257581967545 2.2550301311461172e-17 1.7188827532404777e-16 2.2550301311460685e-17 4.927257581967545 -2.7055078490503435e-16 2.4636287909837726 2.4636287909837726 1.358851447348224" Properties=species:S:1:pos:R:3:forces:R:3 cutoff=-1.0 nneightol=1.2 n_minim_iter=1 energy=-325.6933275347754 stress="0.02834383848256411 -6.315817302720655e-17 -1.3133039781728554e-17 -6.315817302720655e-17 0.02834383848256357 -1.0580658665420844e-16 -1.3133039781728554e-17 -1.0580658665420844e-16 0.022091713397378143" free_energy=-325.6933275347754 pbc="T T T"
Si      -0.00000000      -1.23181439      -0.33971286       0.00000000       0.00000000      -0.00000000
Si      -0.00000000       1.23181440       0.33971286      -0.00000000      -0.00000000       0.00000000
