2
Lattice="4.439098662316804 1.2843908425883525e-18 -8.567035211598194e-17 1.2843908425881855e-18 4.439098662316804 2.202706525355773e-16 2.219549331158402 2.219549331158402 1.2069413238957718" Properties=species:S:1:pos:R:3:forces:R:3 cutoff=-1.0 nneightol=1.2 n_minim_iter=1 energy=-324.8917522274729 stress="-0.29777360995887003 -5.604381576759358e-17 -2.344506280937894e-18 -5.604381576759358e-17 -0.2977736099588698 -2.5234173170114695e-16 -2.344506280937894e-18 -2.5234173170114695e-16 -0.2846168078100283" free_energy=-324.8917522274729 pbc="T T T"
Si      -0.00000000      -1.10977466      -0.30173533      -0.00000000      -0.00000000      -0.00000000
Si      -0.00000000       1.10977467       0.30173533       0.00000000       0.00000000       0.00000000
