2
Lattice="4.977744635985914 -1.508771673882599e-17 2.0565859815614067e-15 -1.5087716738823028e-17 4.977744635985914 -3.537155977559434e-15 2.4888723179929566 2.4888723179929575 1.4243170208893439" Properties=species:S:1:pos:R:3:forces:R:3 cutoff=-1.0 nneightol=1.2 n_minim_iter=1 energy=-325.5639013037707 stress="0.0585420997763497 1.9922123826980192e-17 2.211470456230218e-17 1.9922123826980192e-17 0.05854209977634968 1.0794270348020263e-16 2.211470456230218e-17 1.0794270348020263e-16 0.05326857428762338" free_energy=-325.5639013037707 pbc="T T T"
Si      -0.00000000      -1.24443616      -0.35607926      -0.00000000       0.00000000       0.00000000
Si      -0.00000000       1.24443616       0.35607926       0.00000000      -0.00000000      -0.00000000
