2
Lattice="4.4863266608508825 1.2980556005595593e-18 -8.658180724954179e-17 1.298055600559408e-18 4.4863266608508825 2.2261413323884725e-16 2.2431633304254412 2.2431633304254412 1.219782088972599" Properties=species:S:1:pos:R:3:forces:R:3 cutoff=-1.0 nneightol=1.2 n_minim_iter=1 energy=-325.2643539757391 stress="-0.19869071726627013 -1.827707326209575e-17 -8.605620503294212e-17 -1.827707326209575e-17 -0.19869071726627013 5.983545741644551e-17 -8.605620503294212e-17 5.983545741644551e-17 -0.19149076954680805" free_energy=-325.2643539757391 pbc="T T T"
Si      -0.00000000      -1.12158166      -0.30494552       0.00000000      -0.00000000       0.00000000
Si      -0.00000000       1.12158167       0.30494552      -0.00000000       0.00000000      -0.00000000
