2
Lattice="5.083685740524231 -1.5408827903251063e-17 2.1003562041014543e-15 -1.540882790324254e-17 5.083685740524231 -3.612437101560431e-15 2.541842870262115 2.5418428702621165 1.4546306929316732" Properties=species:S:1:pos:R:3:forces:R:3 cutoff=-1.0 nneightol=1.2 n_minim_iter=1 energy=-325.4671745651393 stress="0.07357521071533095 5.3952421052102286e-18 1.3018798321352256e-16 5.3952421052102286e-18 0.07357521071533109 1.6038616802629112e-17 1.3018798321352256e-16 1.6038616802629112e-17 0.06021630622634209" free_energy=-325.4671745651393 pbc="T T T"
Si      -0.00000000      -1.27092143      -0.36365767      -0.00000000       0.00000000      -0.00000000
Si      -0.00000000       1.27092144       0.36365767       0.00000000      -0.00000000       0.00000000
