2
Lattice="4.532580711853726 1.3114385604934987e-18 -8.747446612866119e-17 1.3114385604933633e-18 4.532580711853726 2.2490928610023744e-16 2.266290355926863 2.266290355926863 1.232358048598551" Properties=species:S:1:pos:R:3:forces:R:3 cutoff=-1.0 nneightol=1.2 n_minim_iter=1 energy=-325.3991982165849 stress="-0.15716556055856593 1.796728296635556e-16 6.749921873018638e-17 1.796728296635556e-16 -0.1571655605585653 9.858687634290771e-17 6.749921873018638e-17 9.858687634290771e-17 -0.153756261012806" free_energy=-325.3991982165849 pbc="T T T"
Si      -0.00000000      -1.13314518      -0.30808951       0.00000000      -0.00000000      -0.00000000
Si      -0.00000000       1.13314518       0.30808951      -0.00000000       0.00000000       0.00000000
