2
Lattice="4.577909526032457 1.324553816149061e-18 -8.834926882332917e-17 1.3245538161489242e-18 4.577909526032457 2.2715852817331225e-16 2.2889547630162284 2.2889547630162284 1.2446824466706023" Properties=species:S:1:pos:R:3:forces:R:3 cutoff=-1.0 nneightol=1.2 n_minim_iter=1 energy=-325.3991982165849 stress="-0.15716556055856593 1.796728296635556e-16 6.749921873018638e-17 1.796728296635556e-16 -0.1571655605585653 9.858687634290771e-17 6.749921873018638e-17 9.858687634290771e-17 -0.153756261012806" free_energy=-325.3991982165849 pbc="T T T"
Si      -0.00000000      -1.14447738      -0.31117061       0.00000000      -0.00000000      -0.00000000
Si      -0.00000000       1.14447738       0.31117061      -0.00000000       0.00000000       0.00000000
