2
Lattice="4.6865115240453346 2.1448492433930458e-17 1.6348980538434803e-16 2.144849243393005e-17 4.6865115240453346 -2.573316596918487e-16 2.3432557620226673 2.3432557620226673 1.292457896004731" Properties=species:S:1:pos:R:3:forces:R:3 cutoff=-1.0 nneightol=1.2 n_minim_iter=1 energy=-325.6432076095878 stress="-0.06560424301267641 2.7499636560411572e-17 2.422878918624748e-17 2.7499636560411572e-17 -0.06560424301267691 -1.0263706471893093e-17 2.422878918624748e-17 -1.0263706471893093e-17 -0.05943164504484199" free_energy=-325.6432076095878 pbc="T T T"
Si      -0.00000000      -1.17162788      -0.32311447      -0.00000000       0.00000000      -0.00000000
Si      -0.00000000       1.17162788       0.32311447       0.00000000      -0.00000000       0.00000000
