2
Lattice="5.013556979779607 -1.5196265195692638e-17 2.071382072883672e-15 -1.5196265195686858e-17 5.013556979779607 -3.562604017823393e-15 2.506778489889803 2.506778489889804 1.434564258253539" Properties=species:S:1:pos:R:3:forces:R:3 cutoff=-1.0 nneightol=1.2 n_minim_iter=1 energy=-325.5179054386865 stress="0.06635854147585868 5.577871640986009e-17 1.2725599164194093e-16 5.577871640986009e-17 0.06635854147585898 -3.29305447297406e-17 1.2725599164194093e-16 -3.29305447297406e-17 0.056524170872886456" free_energy=-325.5179054386865 pbc="T T T"
Si      -0.00000000      -1.25338924      -0.35864106      -0.00000000       0.00000000      -0.00000000
Si      -0.00000000       1.25338925       0.35864106       0.00000000      -0.00000000       0.00000000
