2
Lattice="4.64390451549927 2.125349534585249e-17 1.620034521556265e-16 2.1253495345852086e-17 4.64390451549927 -2.5499215147397505e-16 2.321952257749635 2.321952257749635 1.2807076283828627" Properties=species:S:1:pos:R:3:forces:R:3 cutoff=-1.0 nneightol=1.2 n_minim_iter=1 energy=-325.6432076095878 stress="-0.06560424301267641 2.7499636560411572e-17 2.422878918624748e-17 2.7499636560411572e-17 -0.06560424301267691 -1.0263706471893093e-17 2.422878918624748e-17 -1.0263706471893093e-17 -0.05943164504484199" free_energy=-325.6432076095878 pbc="T T T"
Si      -0.00000000      -1.16097613      -0.32017691      -0.00000000       0.00000000      -0.00000000
Si      -0.00000000       1.16097613       0.32017691       0.00000000      -0.00000000       0.00000000
