1
Lattice="2.6474721404433383 1.5281364383433792e-17 0.0 1.3237360702216692 2.292778129435494 0.0 0.0 0.0 2.460042565683378" Properties=species:S:1:pos:R:3 cutoff=-1.0 nneightol=1.2 n_minim_iter=1 energy=-162.8345297690976 free_energy=-162.8345297690976 pbc="T T T"
Si       0.00000000       0.00000000       0.00000000
