1
Lattice="2.7350546899290857 1.5786895992955367e-17 0.0 1.367527344964543 2.3686268422183594 0.0 0.0 0.0 2.541424649541654" Properties=species:S:1:pos:R:3 cutoff=-1.0 nneightol=1.2 n_minim_iter=1 energy=-162.80386862721465 free_energy=-162.80386862721465 pbc="T T T"
Si       0.00000000       0.00000000       0.00000000
