1
Lattice="2.4112401937218686 7.949242649557363e-18 -1.3988045771523682e-49 1.2056200968609343 2.0881952623892492 -5.5338992022331925e-50 5.530963422264742e-49 1.8210819751627236e-49 2.2812932628451326" Properties=species:S:1:pos:R:3 cutoff=-1.0 nneightol=1.2 n_minim_iter=1 stress="-0.27455809677513887 5.2413980203827536e-18 5.238771897858654e-17 5.2413980203827536e-18 -0.2745580967751382 1.2788074899964457e-18 5.238771897858654e-17 1.2788074899964457e-18 -0.274257978289039" pbc="T T T"
Si       0.00000000       0.00000000       0.00000000
