1
Lattice="2.8760727312529895 1.6600860393633762e-17 0.0 1.438036365626495 2.4907520483967827 0.0 0.0 0.0 2.6724592235742275" Properties=species:S:1:pos:R:3 cutoff=-1.0 nneightol=1.2 n_minim_iter=1 stress="0.0824433271716623 -2.098513461059008e-17 -2.399994765229492e-17 -2.098513461059008e-17 0.0824433271716625 -6.443379536530237e-19 -2.399994765229492e-17 -6.443379536530237e-19 0.09598090312679443" pbc="T T T"
Si       0.00000000       0.00000000       0.00000000
