12
Lattice="5.710380729920395 -1.687255593617958e-63 -2.4127993194358977e-48 1.9151438605846103e-63 5.710380729920395 5.393439718664911e-16 2.917112635149508e-48 -6.520754139599555e-16 6.903940847703646" Properties=species:S:1:pos:R:3:forces:R:3 cutoff=-1.0 nneightol=1.2 n_minim_iter=1 energy=-1956.001499648303 stress="0.014032666359856137 4.209343398241616e-17 -4.705194842435196e-17 4.209343398241616e-17 0.014032666359856411 4.3927398630214244e-17 -4.705194842435196e-17 4.3927398630214244e-17 0.01339990379984995" free_energy=-1956.001499648303 pbc="T T T"
Si       0.46246808       0.46246808       0.00000000      -0.00277125      -0.00277125      -0.00000000
Si      -0.46246809      -0.46246809       3.45197042       0.00277125       0.00277125       0.00000000
Si       2.39272227       3.31765845       5.17795564       0.00277125      -0.00277125      -0.00000000
Si       3.31765845       2.39272227       1.72598521      -0.00277125       0.00277125       0.00000000
Si       0.71902922       3.80130341      -0.07831572       0.02024215       0.01000467      -0.06722720
Si       0.94611304       2.13616114       1.64766949       0.01000467      -0.02024215      -0.06722720
Si       1.90907732       4.99135151       3.53028615      -0.01000467      -0.02024215       0.06722720
Si       2.13616114       0.94611304       5.25627136      -0.02024215       0.01000467       0.06722720
Si       3.57421958       4.76426768       1.80430093       0.02024215      -0.01000467       0.06722720
Si       3.80130341       0.71902922       0.07831572       0.01000467       0.02024215       0.06722720
Si       4.76426768       3.57421958       5.09963991      -0.01000467       0.02024215      -0.06722720
Si       4.99135151       1.90907732       3.37365470      -0.02024215      -0.01000467      -0.06722720
12
Lattice="5.706508452668805 -1.8123327328361005e-63 -2.4096959136831154e-48 2.0211789165408432e-63 5.706508452668805 5.404359849611117e-16 2.922846858588268e-48 -6.511982332823428e-16 6.913313669553095" Properties=species:S:1:pos:R:3:forces:R:3 cutoff=-1.0 nneightol=1.2 n_minim_iter=2 energy=-1956.002023469032 stress="0.013397258078345098 -7.299457235191583e-17 -4.257310379439834e-18 -7.299457235191583e-17 0.013397258078345105 4.0518284005165797e-17 -4.257310379439834e-18 4.0518284005165797e-17 0.014269982653071217" free_energy=-1956.002023469032 pbc="T T T"
Si       0.46211492       0.46211492       0.00000000       0.00315034       0.00315034       0.00000000
Si      -0.46211492      -0.46211492       3.45665683      -0.00315034      -0.00315034       0.00000000
Si       2.39113930       3.31536914       5.18498525      -0.00315034       0.00315034      -0.00000000
Si       3.31536914       2.39113930       1.72832842       0.00315034      -0.00315034       0.00000000
Si       0.71883061       3.79886853      -0.07938374       0.01860280      -0.00168501      -0.06557754
Si       0.94561430       2.13442361       1.64894468      -0.00168501      -0.01860280      -0.06557754
Si       1.90763992       4.98767783       3.53604057       0.00168501      -0.01860280       0.06557754
Si       2.13442361       0.94561430       5.26436899      -0.01860280      -0.00168501       0.06557754
Si       3.57208484       4.76089415       1.80771215       0.01860280       0.00168501       0.06557754
Si       3.79886853       0.71883061       0.07938374      -0.00168501       0.01860280       0.06557754
Si       4.76089415       3.57208484       5.10560152       0.00168501       0.01860280      -0.06557754
Si       4.98767783       1.90763992       3.37727310      -0.01860280       0.00168501      -0.06557754
12
Lattice="5.703047391088039 -1.6497302079841708e-63 -2.4071529477990044e-48 1.8120835780492064e-63 5.703047391088039 5.472625996084376e-16 2.927700092696971e-48 -6.433523409167556e-16 6.921707310082366" Properties=species:S:1:pos:R:3:forces:R:3 cutoff=-1.0 nneightol=1.2 n_minim_iter=3 energy=-1956.00441878243 stress="0.012289772570558834 1.9733885758815137e-17 7.938824346022363e-17 1.9733885758815137e-17 0.012289772570559208 -7.203554870511575e-17 7.938824346022363e-17 -7.203554870511575e-17 0.013548659193331489" free_energy=-1956.00441878243 pbc="T T T"
Si       0.46176519       0.46176519       0.00000000      -0.02208337      -0.02208337      -0.00000000
Si      -0.46176519      -0.46176519       3.46085366       0.02208337       0.02208337       0.00000000
Si       2.38975850       3.31328888       5.19128048       0.02208337      -0.02208337      -0.00000000
Si       3.31328888       2.38975850       1.73042683      -0.02208337       0.02208337      -0.00000000
Si       0.72100537       3.79730491      -0.08838358      -0.01947483      -0.02064734      -0.01162027
Si       0.94578121       2.13051832       1.64204324      -0.02064734       0.01947483      -0.01162027
Si       1.90574248       4.98204202       3.54923724       0.02064734       0.01947483       0.01162027
Si       2.13051832       0.94578121       5.27966407       0.01947483      -0.02064734       0.01162027
Si       3.57252906       4.75726617       1.81881041      -0.01947483       0.02064734       0.01162027
Si       3.79730491       0.72100537       0.08838358      -0.02064734      -0.01947483       0.01162027
Si       4.75726617       3.57252906       5.10289690       0.02064734      -0.01947483      -0.01162027
Si       4.98204202       1.90574248       3.37247007       0.01947483       0.02064734      -0.01162027
12
Lattice="5.705617321493191 -1.7044779891207946e-63 -2.409393477798586e-48 1.7581116646124903e-63 5.7056173214931905 5.459176197058669e-16 2.923669411443379e-48 -6.446644548877715e-16 6.9154733483721715" Properties=species:S:1:pos:R:3:forces:R:3 cutoff=-1.0 nneightol=1.2 n_minim_iter=4 energy=-1956.004723405764 stress="0.012631276648419511 4.5559000214367296e-17 -7.900489288759544e-17 4.5559000214367296e-17 0.012631276648419535 8.147551299129682e-17 -7.900489288759544e-17 8.147551299129682e-17 0.012821321854251382" free_energy=-1956.004723405764 pbc="T T T"
Si       0.46161281       0.46161281       0.00000000      -0.02576041      -0.02576041       0.00000000
Si      -0.46161282      -0.46161282       3.45773667       0.02576041       0.02576041       0.00000000
Si       2.39119584       3.31442147       5.18660501       0.02576041      -0.02576041      -0.00000000
Si       3.31442147       2.39119584       1.72886834      -0.02576041       0.02576041      -0.00000000
Si       0.72115106       3.79883748      -0.08876700      -0.01992574      -0.01440001      -0.00756157
Si       0.94602882       2.13165760       1.64010134      -0.01440001       0.01992574      -0.00756157
Si       1.90677984       4.98446626       3.54650367       0.01440001       0.01992574       0.00756157
Si       2.13165760       0.94602882       5.27537201       0.01992574      -0.01440001       0.00756157
Si       3.57395972       4.75958850       1.81763533      -0.01992574       0.01440001       0.00756157
Si       3.79883748       0.72115106       0.08876700      -0.01440001      -0.01992574       0.00756157
Si       4.75958850       3.57395972       5.09783802       0.01440001      -0.01992574      -0.00756157
Si       4.98446626       1.90677984       3.36896968       0.01992574       0.01440001      -0.00756157
12
Lattice="5.709732528600019 -8.01680832049166e-64 -2.4127970314035976e-48 1.3333076825684103e-63 5.709732528600019 5.471868790336107e-16 2.917444909382417e-48 -6.426352132982898e-16 6.9055084859678875" Properties=species:S:1:pos:R:3:forces:R:3 cutoff=-1.0 nneightol=1.2 n_minim_iter=5 energy=-1956.005134672313 stress="0.013066755386172585 8.427740804982473e-17 -2.2552186702308578e-17 8.427740804982473e-17 0.013066755386173214 1.4637552698619321e-16 -2.2552186702308578e-17 1.4637552698619321e-16 0.01160885820932776" free_energy=-1956.005134672313 pbc="T T T"
Si       0.46007930       0.46007930       0.00000000      -0.02216405      -0.02216405       0.00000000
Si      -0.46007930      -0.46007930       3.45275424       0.02216405       0.02216405       0.00000000
Si       2.39478696       3.31494556       5.17913136       0.02216405      -0.02216405      -0.00000000
Si       3.31494556       2.39478696       1.72637712      -0.02216405       0.02216405      -0.00000000
Si       0.72069771       3.80072430      -0.09068502      -0.01431399      -0.00555846       0.00043184
Si       0.94585803       2.13416854       1.63569210      -0.00555846       0.01431399       0.00043184
Si       1.90900823       4.98903481       3.54343926       0.00555846       0.01431399      -0.00043184
Si       2.13416854       0.94585803       5.26981638       0.01431399      -0.00555846      -0.00043184
Si       3.57556398       4.76387449       1.81706214      -0.01431399       0.00555846      -0.00043184
Si       3.80072430       0.72069771       0.09068502      -0.00555846      -0.01431399      -0.00043184
Si       4.76387449       3.57556398       5.08844635       0.00555846      -0.01431399       0.00043184
Si       4.98903481       1.90900823       3.36206923       0.01431399       0.00555846       0.00043184
12
Lattice="5.706244566804813 -6.337200272533492e-63 -2.4100221313916925e-48 9.84300116051757e-63 5.706244566804814 5.429586184536318e-16 2.922587271150252e-48 -6.481611025014316e-16 6.913953098134366" Properties=species:S:1:pos:R:3:forces:R:3 cutoff=-1.0 nneightol=1.2 n_minim_iter=6 energy=-1956.005714985857 stress="0.012342249316696887 6.798404552072871e-17 2.3403648778196515e-17 6.798404552072871e-17 0.012342249316697413 -1.55904173994231e-17 2.3403648778196515e-17 -1.55904173994231e-17 0.012364289342279509" free_energy=-1956.005714985857 pbc="T T T"
Si       0.45687020       0.45687020       0.00000000       0.00540723       0.00540723       0.00000000
Si      -0.45687021      -0.45687021       3.45697655      -0.00540723      -0.00540723       0.00000000
Si       2.39625207       3.30999249       5.18546482      -0.00540723       0.00540723      -0.00000000
Si       3.30999249       2.39625207       1.72848827       0.00540723      -0.00540723      -0.00000000
Si       0.71866701       3.79685683      -0.09375189       0.00301331      -0.01332527      -0.00020441
Si       0.94373455       2.13445527       1.63473639      -0.01332527      -0.00301331      -0.00020441
Si       1.90938773       4.98757755       3.55072844       0.01332527      -0.00301331       0.00020441
Si       2.13445527       0.94373455       5.27921671      -0.00301331      -0.01332527       0.00020441
Si       3.57178929       4.76251001       1.82224016       0.00301331       0.01332527       0.00020441
Si       3.79685683       0.71866701       0.09375189      -0.01332527       0.00301331       0.00020441
Si       4.76251001       3.57178929       5.09171293       0.01332527       0.00301331      -0.00020441
Si       4.98757755       1.90938773       3.36322466      -0.00301331       0.01332527      -0.00020441
12
Lattice="5.705499776602637 -6.338317994557945e-63 -2.409569584252885e-48 9.82641944109421e-63 5.705499776602637 5.348693698038834e-16 2.92351699434068e-48 -6.580246674781663e-16 6.915758296917674" Properties=species:S:1:pos:R:3:forces:R:3 cutoff=-1.0 nneightol=1.2 n_minim_iter=7 energy=-1956.005777251638 stress="0.012334827085858497 3.9573722680919514e-17 -9.653114168042041e-17 3.9573722680919514e-17 0.012334827085859154 2.6744621911651153e-17 -9.653114168042041e-17 2.6744621911651153e-17 0.01234869029074169" free_energy=-1956.005777251638 pbc="T T T"
Si       0.45691045       0.45691045       0.00000000      -0.00249377      -0.00249377       0.00000000
Si      -0.45691046      -0.45691046       3.45787915       0.00249377       0.00249377       0.00000000
Si       2.39583943       3.30966034       5.18681872       0.00249377      -0.00249377      -0.00000000
Si       3.30966034       2.39583943       1.72893957      -0.00249377       0.00249377      -0.00000000
Si       0.71860109       3.79527404      -0.09393854       0.00363973      -0.00085096       0.00054284
Si       0.94252415       2.13414879       1.63500104      -0.00085096      -0.00363973       0.00054284
Si       1.91022573       4.98689868       3.55181769       0.00085096      -0.00363973      -0.00054284
Si       2.13414879       0.94252415       5.28075726      -0.00363973      -0.00085096      -0.00054284
Si       3.57135098       4.76297562       1.82287811       0.00363973       0.00085096      -0.00054284
Si       3.79527404       0.71860109       0.09393854      -0.00085096       0.00363973      -0.00054284
Si       4.76297562       3.57135098       5.09288018       0.00085096       0.00363973       0.00054284
Si       4.98689868       1.91022573       3.36394061      -0.00363973       0.00085096       0.00054284
