12
Lattice="5.40125980597798 -2.2612336681326615e-64 -2.4703113693331547e-48 4.334110854002611e-64 5.40125980597798 7.752303905650386e-16 2.565166673207555e-48 -6.370910574447157e-16 6.022865681367215" Properties=species:S:1:pos:R:3:forces:R:3 cutoff=-1.0 nneightol=1.2 n_minim_iter=9 energy=-1952.98421042305 stress="-0.16166544630202984 -4.415180020721737e-16 -4.459508542653364e-17 -4.415180020721737e-16 -0.16166544630203034 5.899108096618591e-16 -4.459508542653364e-17 5.899108096618591e-16 -0.1616352371592728" free_energy=-1952.98421042305 pbc="T T T"
Si       0.50009577       0.50009577       0.00000000      -0.00315517      -0.00315517      -0.00000000
Si      -0.50009577      -0.50009577       3.01143284       0.00315517       0.00315517      -0.00000000
Si       2.20053413       3.20072567       4.51714926       0.00315517      -0.00315517      -0.00000000
Si       3.20072567       2.20053413       1.50571642      -0.00315517       0.00315517      -0.00000000
Si       0.69768371       3.66404128       0.12496394      -0.00018632       0.00472450      -0.00690970
Si       0.96341137       2.00294618       1.63068036       0.00472450       0.00018632      -0.00690970
Si       1.73721852       4.70357609       2.88646890      -0.00472450       0.00018632       0.00690970
Si       2.00294618       0.96341137       4.39218532       0.00018632       0.00472450       0.00690970
Si       3.39831362       4.43784843       1.38075248      -0.00018632      -0.00472450       0.00690970
Si       3.66404128       0.69768371      -0.12496394       0.00472450      -0.00018632       0.00690970
Si       4.43784843       3.39831362       4.64211320      -0.00472450      -0.00018632      -0.00690970
Si       4.70357609       1.73721852       3.13639678       0.00018632      -0.00472450      -0.00690970
