12
Lattice="5.751513858698518 -6.389435669778512e-63 -2.4290024362390035e-48 9.905668181533265e-63 5.751513858698518 5.391830187490041e-16 2.947094762503594e-48 -6.633315472005392e-16 6.9715329498822785" Properties=species:S:1:pos:R:3:forces:R:3 cutoff=-1.0 nneightol=1.2 n_minim_iter=7 energy=-1956.005777251638 stress="0.012334827085858497 3.9573722680919514e-17 -9.653114168042041e-17 3.9573722680919514e-17 0.012334827085859154 2.6744621911651153e-17 -9.653114168042041e-17 2.6744621911651153e-17 0.01234869029074169" free_energy=-1956.005777251638 pbc="T T T"
Si       0.46059537       0.46059537       0.00000000      -0.00249377      -0.00249377       0.00000000
Si      -0.46059538      -0.46059538       3.48576647       0.00249377       0.00249377       0.00000000
Si       2.41516155       3.33635230       5.22864971       0.00249377      -0.00249377      -0.00000000
Si       3.33635230       2.41516155       1.74288324      -0.00249377       0.00249377      -0.00000000
Si       0.72439651       3.82588241      -0.09469614       0.00363973      -0.00085096       0.00054284
Si       0.95012548       2.15136041       1.64818710      -0.00085096      -0.00363973       0.00054284
Si       1.92563144       5.02711734       3.58046261       0.00085096      -0.00363973      -0.00054284
Si       2.15136041       0.95012548       5.32334585      -0.00363973      -0.00085096      -0.00054284
Si       3.60015344       4.80138837       1.83757938       0.00363973       0.00085096      -0.00054284
Si       3.82588241       0.72439651       0.09469614      -0.00085096       0.00363973      -0.00054284
Si       4.80138837       3.60015344       5.13395357       0.00085096       0.00363973       0.00054284
Si       5.02711734       1.92563144       3.39107034      -0.00363973       0.00085096       0.00054284
