12
Lattice="5.9038126915539815 2.2938875418258962e-63 -2.4875981288690098e-48 7.289291280757033e-64 5.90381269155398 5.608979750675403e-16 3.0586958722080017e-48 -6.926002684886777e-16 7.246628975649929" Properties=species:S:1:pos:R:3:forces:R:3 cutoff=-1.0 nneightol=1.2 n_minim_iter=6 energy=-1955.261225473231 stress="0.05300098357571236 2.1332538982921855e-17 -4.58399259780808e-17 2.1332538982921855e-17 0.05300098357571258 1.0370434375030823e-16 -4.58399259780808e-17 1.0370434375030823e-16 0.053468750554266045" free_energy=-1955.261225473231 pbc="T T T"
Si       0.45226170       0.45226170       0.00000000      -0.00298364      -0.00298364       0.00000000
Si      -0.45226170      -0.45226170       3.62331449       0.00298364       0.00298364      -0.00000000
Si       2.49964464       3.40416804       5.43497173       0.00298364      -0.00298364      -0.00000000
Si       3.40416804       2.49964464       1.81165724      -0.00298364       0.00298364      -0.00000000
Si       0.75835605       3.91457478      -0.15509064      -0.00028062      -0.00973175      -0.00088608
Si       0.96266843       2.19355029       1.65656661      -0.00973175       0.00028062      -0.00088608
Si       1.98923791       5.14545664       3.77840512       0.00973175       0.00028062       0.00088608
Si       2.19355029       0.96266843       5.59006237       0.00028062      -0.00973175       0.00088608
Si       3.71026240       4.94114425       1.96674788      -0.00028062       0.00973175       0.00088608
Si       3.91457478       0.75835605       0.15509064      -0.00973175      -0.00028062       0.00088608
Si       4.94114425       3.71026240       5.27988109       0.00973175      -0.00028062      -0.00088608
Si       5.14545664       1.98923791       3.46822385       0.00028062       0.00973175      -0.00088608
