4
Lattice="2.0439411290177905 -3.5402098831385067 -4.888756465685118e-18 2.0439411290177896 3.5402098831385067 4.888756465685281e-18 -2.723540687636045e-31 -9.342526107139963e-18 6.7654225548215665" Properties=species:S:1:pos:R:3 cutoff=-1.0 nneightol=1.2 n_minim_iter=1 energy=-652.0176982018186 free_energy=-652.0176982018186 pbc="T T T"
Si       2.04394113       1.18006996       0.42781891
Si       2.04394113      -1.18006996       3.81053019
Si       2.04394113       1.18006996       2.95489236
Si       2.04394113      -1.18006996      -0.42781891
4
Lattice="2.043143566957828 -3.5388284651284625 -7.076831433184836e-18 2.043143566957827 3.5388284651284625 7.076831433184979e-18 -2.6957217813636547e-31 -5.164714289392671e-18 6.770705489998739" Properties=species:S:1:pos:R:3 cutoff=-1.0 nneightol=1.2 n_minim_iter=2 stress="0.06596847630350353 -2.9443556160631764e-17 2.8547683329409774e-18 -2.9443556160631764e-17 0.06596847630350382 -3.268871065989065e-17 2.8547683329409774e-18 -3.268871065989065e-17 0.06598816645879328" pbc="T T T"
Si       2.04314357       1.17960949       0.42847449
Si       2.04314357      -1.17960949       3.81382724
Si       2.04314357       1.17960949       2.95687825
Si       2.04314357      -1.17960949      -0.42847449
4
Lattice="2.042579762341754 -3.53785192688788 -2.0739969449335578e-18 2.042579762341753 3.53785192688788 2.073996944933761e-18 -2.833931316779507e-31 -1.4728568614369684e-17 6.774443784016797" Properties=species:S:1:pos:R:3 cutoff=-1.0 nneightol=1.2 n_minim_iter=3 stress="0.0657548153522676 -3.8206621865880916e-17 -3.7789691283919256e-17 -3.8206621865880916e-17 0.06575481535226751 -4.751018131046446e-17 -3.7789691283919256e-17 -4.751018131046446e-17 0.06618422531011517" pbc="T T T"
Si       2.04257976       1.17928398       0.42980164
Si       2.04257976      -1.17928398       3.81702353
Si       2.04257976       1.17928398       2.95742025
Si       2.04257976      -1.17928398      -0.42980164
