4
Lattice="1.7639408894260216 -3.0552352420341053 2.5546515683231203e-17 1.7639408894260216 3.0552352420341053 -2.554651568323123e-17 1.682086762925029e-32 4.4059164607559416e-17 5.866567794695226" Properties=species:S:1:pos:R:3 cutoff=-1.0 nneightol=1.2 n_minim_iter=3 stress="-0.19392125423501103 4.3777455934053937e-17 7.981377579823491e-17 4.3777455934053937e-17 -0.19392125423501103 8.814397126370027e-17 7.981377579823491e-17 8.814397126370027e-17 -0.19393415938105707" pbc="T T T"
Si       1.76394089       1.01841175       0.37850264
Si       1.76394089      -1.01841175       3.31178654
Si       1.76394089       1.01841175       2.55478125
Si       1.76394089      -1.01841175      -0.37850264
