4
Lattice="1.858603659543238 -3.2191959694623367 -3.818001988781811e-18 1.8586036595432376 3.2191959694623367 3.818001988781981e-18 -1.1878645315077154e-31 6.421194086104674e-18 6.136480805011346" Properties=species:S:1:pos:R:3 cutoff=-1.0 nneightol=1.2 n_minim_iter=3 stress="-0.07022871048016983 -3.5837368782657374e-17 -2.7246814788245154e-17 -3.5837368782657374e-17 -0.07022871048016983 -3.7545659729627483e-17 -2.7246814788245154e-17 -3.7545659729627483e-17 -0.07015881183448736" pbc="T T T"
Si       1.85860366       1.07306532       0.38825698
Si       1.85860366      -1.07306532       3.45649738
Si       1.85860366       1.07306532       2.67998343
Si       1.85860366      -1.07306532      -0.38825698
