4
Lattice="25.0 0.0 0.0 0.0 25.0 0.0 0.0 0.0 25.0" Properties=species:S:1:pos:R:3:forces:R:3 virial="67.7806435883 0.0 0.0 0.0 67.7806435883 0.0 0.0 0.0 13.7908094608" energy=-2.07504475 stress="-0.00433796118965 -0.0 -0.0 -0.0 -0.00433796118965 -0.0 -0.0 -0.0 -0.000882611805491" free_energy=-2.1314637 pbc="T T T"
P      13.60000000      12.50000000      12.22218000      30.82440600      -0.00000000     -12.43400400 
P      11.40000000      12.50000000      12.22218000     -30.82440600       0.00000000     -12.43400400 
P      12.50000000      13.60000000      12.77782000       0.00000000      30.82440600      12.43400400 
P      12.50000000      11.40000000      12.77782000      -0.00000000     -30.82440600      12.43400400 
4
Lattice="25.0 0.0 0.0 0.0 25.0 0.0 0.0 0.0 25.0" Properties=species:S:1:pos:R:3:forces:R:3 virial="16.0535515661 0.0 0.0 0.0 16.0535515661 0.0 0.0 0.0 21.2467797296" energy=-16.65047594 stress="-0.00102742730023 -0.0 -0.0 -0.0 -0.00102742730023 -0.0 -0.0 -0.0 -0.00135979390269" free_energy=-16.65047594 pbc="T T T"
P      13.60000000      12.50000000      11.97218000       7.30652600      -0.00000000     -10.07274100 
P      11.40000000      12.50000000      11.97218000      -7.30652600       0.00000000     -10.07274100 
P      12.50000000      13.60000000      13.02782000       0.00000000       7.30652600      10.07274100 
P      12.50000000      11.40000000      13.02782000       0.00000000      -7.30652600      10.07274100 
4
Lattice="25.0 0.0 0.0 0.0 25.0 0.0 0.0 0.0 25.0" Properties=species:S:1:pos:R:3:forces:R:3 virial="0.0538330162107 0.0 -0.0 0.0 0.0538330162107 -0.0 -0.0 -0.0 0.0538330162107" energy=-21.06048587 stress="-3.44531303749e-06 -0.0 0.0 -0.0 -3.44531303749e-06 0.0 0.0 0.0 -3.44531303749e-06" free_energy=-21.06048587 pbc="T T T"
P      13.60000000      12.50000000      11.72218000       0.03256900      -0.00000000      -0.02300600 
P      11.40000000      12.50000000      11.72218000      -0.03256900      -0.00000000      -0.02300600 
P      12.50000000      13.60000000      13.27782000       0.00000000       0.03256900       0.02300600 
P      12.50000000      11.40000000      13.27782000      -0.00000000      -0.03256900       0.02300600 
4
Lattice="25.0 0.0 0.0 0.0 25.0 0.0 0.0 0.0 25.0" Properties=species:S:1:pos:R:3:forces:R:3 virial="-2.80048712592 0.0 0.0 0.0 -2.80048712592 -0.0 0.0 -0.0 -12.6047276797" energy=-19.09734369 stress="0.000179231176059 -0.0 -0.0 -0.0 0.000179231176059 0.0 -0.0 0.0 0.000806702571502" free_energy=-19.09734369 pbc="T T T"
P      13.60000000      12.50000000      11.47218000      -1.26548800       0.00000000       3.06166800 
P      11.40000000      12.50000000      11.47218000       1.26548800      -0.00000000       3.06166800 
P      12.50000000      13.60000000      13.52782000       0.00000000      -1.26548800      -3.06166800 
P      12.50000000      11.40000000      13.52782000       0.00000000       1.26548800      -3.06166800 
4
Lattice="25.0 0.0 0.0 0.0 25.0 0.0 0.0 0.0 25.0" Properties=species:S:1:pos:R:3:forces:R:3 virial="-4.97984657023 0.0 0.0 0.0 -4.97984657023 0.0 0.0 0.0 -9.45812936806" energy=-16.07503785 stress="0.000318710180495 -0.0 -0.0 -0.0 0.000318710180495 -0.0 -0.0 -0.0 0.000605320279556" free_energy=-16.12172196 pbc="T T T"
P      13.60000000      12.50000000      11.22218000      -2.25652000      -0.00000000       1.84742800 
P      11.40000000      12.50000000      11.22218000       2.25652000      -0.00000000       1.84742800 
P      12.50000000      13.60000000      13.77782000       0.00000000      -2.25652000      -1.84742800 
P      12.50000000      11.40000000      13.77782000       0.00000000       2.25652000      -1.84742800 
4
Lattice="25.0 0.0 0.0 0.0 25.0 0.0 0.0 0.0 25.0" Properties=species:S:1:pos:R:3:forces:R:3 virial="-10.9419506392 0.0 0.0 0.0 -10.9419506392 0.0 0.0 0.0 1.31344757668" energy=-15.98171987 stress="0.000700284840906 -0.0 -0.0 -0.0 0.000700284840906 -0.0 -0.0 -0.0 -8.40606449074e-05" free_energy=-15.98171988 pbc="T T T"
P      13.60000000      12.50000000      10.97218000      -4.96659600       0.00000000      -0.21730300 
P      11.40000000      12.50000000      10.97218000       4.96659600       0.00000000      -0.21730300 
P      12.50000000      13.60000000      14.02782000       0.00000000      -4.96659600       0.21730300 
P      12.50000000      11.40000000      14.02782000      -0.00000000       4.96659600       0.21730300 
4
Lattice="25.0 0.0 0.0 0.0 25.0 0.0 0.0 0.0 25.0" Properties=species:S:1:pos:R:3:forces:R:3 virial="-11.5360642891 -0.0 0.0 -0.0 -11.5360642891 0.0 0.0 0.0 0.449096086323" energy=-16.11077469 stress="0.000738308114501 0.0 -0.0 0.0 0.000738308114501 -0.0 -0.0 -0.0 -2.87421495247e-05" free_energy=-16.11077469 pbc="T T T"
P      13.60000000      12.50000000      10.72218000      -5.23665100       0.00000000      -0.06508600 
P      11.40000000      12.50000000      10.72218000       5.23665100       0.00000000      -0.06508600 
P      12.50000000      13.60000000      14.27782000      -0.00000000      -5.23665100       0.06508600 
P      12.50000000      11.40000000      14.27782000      -0.00000000       5.23665100       0.06508600 
4
Lattice="25.0 0.0 0.0 0.0 25.0 0.0 0.0 0.0 25.0" Properties=species:S:1:pos:R:3:forces:R:3 virial="-11.7098513088 0.0 -0.0 0.0 -11.7098513088 0.0 -0.0 0.0 0.0426178045002" energy=-16.14194798 stress="0.000749430483763 -0.0 0.0 -0.0 0.000749430483763 -0.0 0.0 -0.0 -2.72753948801e-06" free_energy=-16.14194798 pbc="T T T"
P      13.60000000      12.50000000      10.47218000      -5.31560300      -0.00000000      -0.00697800 
P      11.40000000      12.50000000      10.47218000       5.31560300      -0.00000000      -0.00697800 
P      12.50000000      13.60000000      14.52782000      -0.00000000      -5.31560300       0.00697800 
P      12.50000000      11.40000000      14.52782000      -0.00000000       5.31560300       0.00697800 
4
Lattice="25.0 0.0 0.0 0.0 25.0 0.0 0.0 0.0 25.0" Properties=species:S:1:pos:R:3:forces:R:3 virial="-11.7486656937 0.0 0.0 0.0 -11.7486656937 0.0 0.0 0.0 -0.100254240334" energy=-16.13861416 stress="0.000751914604395 -0.0 -0.0 -0.0 0.000751914604395 -0.0 -0.0 -0.0 6.41627138141e-06" free_energy=-16.13861416 pbc="T T T"
P      13.60000000      12.50000000      10.22218000      -5.33322400      -0.00000000       0.00935000 
P      11.40000000      12.50000000      10.22218000       5.33322400      -0.00000000       0.00935000 
P      12.50000000      13.60000000      14.77782000      -0.00000000      -5.33322400      -0.00935000 
P      12.50000000      11.40000000      14.77782000      -0.00000000       5.33322400      -0.00935000 
4
Lattice="25.0 0.0 0.0 0.0 25.0 0.0 0.0 0.0 25.0" Properties=species:S:1:pos:R:3:forces:R:3 virial="-11.75510225 0.0 0.0 0.0 -11.75510225 0.0 0.0 0.0 -0.118978767712" energy=-16.12815603 stress="0.000752326543997 -0.0 -0.0 -0.0 0.000752326543997 -0.0 -0.0 -0.0 7.61464113358e-06" free_energy=-16.12815603 pbc="T T T"
P      13.60000000      12.50000000       9.97218000      -5.33614400       0.00000000       0.01010800 
P      11.40000000      12.50000000       9.97218000       5.33614400       0.00000000       0.01010800 
P      12.50000000      13.60000000      15.02782000      -0.00000000      -5.33614400      -0.01010800 
P      12.50000000      11.40000000      15.02782000      -0.00000000       5.33614400      -0.01010800 
4
Lattice="25.0 0.0 0.0 0.0 25.0 0.0 0.0 0.0 25.0" Properties=species:S:1:pos:R:3:forces:R:3 virial="-11.7553948207 0.0 -0.0 0.0 -11.7553948207 -0.0 -0.0 -0.0 -0.0994740516938" energy=-16.1191048 stress="0.000752345268525 -0.0 0.0 -0.0 0.000752345268525 0.0 0.0 0.0 6.3663393084e-06" free_energy=-16.1191048 pbc="T T T"
P      13.60000000      12.50000000       9.72218000      -5.33630200       0.00000000       0.00743600 
P      11.40000000      12.50000000       9.72218000       5.33630200       0.00000000       0.00743600 
P      12.50000000      13.60000000      15.27782000      -0.00000000      -5.33630200      -0.00743600 
P      12.50000000      11.40000000      15.27782000      -0.00000000       5.33630200      -0.00743600 
