4
Lattice="2.0041619013343324 -3.471310239704907 1.2923164913310756e-17 2.0041619013343324 3.471310239704907 -1.2923164913310756e-17 0.0 2.458043807044201e-17 6.602587442219532" Properties=species:S:1:pos:R:3 cutoff=-1.0 nneightol=1.2 n_minim_iter=1 energy=-652.3739143530288 free_energy=-652.3739143530288 pbc="T T T"
Si       2.00416190       1.15710341       0.41266523
Si       2.00416190      -1.15710341       3.71395895
Si       2.00416190       1.15710341       2.88862849
Si       2.00416190      -1.15710341      -0.41266523
