4
Lattice="1.9585968915374 -3.392389327689246 1.2629354250863607e-17 1.9585968915374 3.392389327689246 -1.2629354250863607e-17 -5.075885678473212e-33 2.4021597040310202e-17 6.452476335282742" Properties=species:S:1:pos:R:3 cutoff=-1.0 nneightol=1.2 n_minim_iter=1 energy=-652.6053965066062 free_energy=-652.6053965066062 pbc="T T T"
Si       1.95859689       1.13079644       0.40328321
Si       1.95859689      -1.13079644       3.62952137
Si       1.95859689       1.13079644       2.82295496
Si       1.95859689      -1.13079644      -0.40328321
