4
Lattice="1.9892049118167041 -3.4454039739321005 1.2826719789783422e-17 1.9892049118167037 3.4454039739321005 -1.2826719789783422e-17 0.0 2.439699512887449e-17 6.553312565226435" Properties=species:S:1:pos:R:3 cutoff=-1.0 nneightol=1.2 n_minim_iter=1 energy=-652.4688396773154 free_energy=-652.4688396773154 pbc="T T T"
Si       1.98920491       1.14846799       0.40958552
Si       1.98920491      -1.14846799       3.68624181
Si       1.98920491       1.14846799       2.86707076
Si       1.98920491      -1.14846799      -0.40958552
