4
Lattice="2.016230284763236 -3.492213292968991 1.2996553547976027e-17 2.016230284763236 3.492213292968991 -1.2996553547976065e-17 -1.509870508459173e-34 2.4835928746136095e-17 6.668755822995502" Properties=species:S:1:pos:R:3 cutoff=-1.0 nneightol=1.2 n_minim_iter=3 stress="0.05646566033528878 -7.232367680475636e-17 -3.213116696350646e-16 -7.232367680475636e-17 0.056465660369829127 3.4095561835479985e-12 -3.213116696350646e-16 3.4095561835479985e-12 0.055740965928484106" pbc="T T T"
Si       2.01623028       1.16407110       0.41856511
Si       2.01623028      -1.16407110       3.75294302
Si       2.01623028       1.16407110       2.91581281
Si       2.01623028      -1.16407110      -0.41856511
