4
Lattice="2.055418946919322 -3.5600900469039813 3.7321915094137276e-17 2.055418946919322 3.5600900469039813 -3.732191509413756e-17 2.202118010295583e-31 4.35147585757339e-18 6.835379329778376" Properties=species:S:1:pos:R:3 cutoff=-1.0 nneightol=1.2 n_minim_iter=3 stress="0.06770892917589617 1.063040456381303e-16 -1.1350868189739898e-15 1.063040456381303e-16 0.06770892916483154 7.2022180531646614e-12 -1.1350868189739898e-15 7.2022180531646614e-12 0.06770912125231507" pbc="T T T"
Si       2.05541895       1.18669668       0.43344080
Si       2.05541895      -1.18669668       3.85113046
Si       2.05541895       1.18669668       2.98424887
Si       2.05541895      -1.18669668      -0.43344080
