4
Lattice="1.843022902399039 -3.1922093064681922 1.3538735675055198e-17 1.8430229023990392 3.1922093064681922 -1.3538735675055183e-17 -1.1111792324321039e-32 2.072509529801796e-17 6.072588211090219" Properties=species:S:1:pos:R:3 cutoff=-1.0 nneightol=1.2 n_minim_iter=3 stress="-0.06558831658553911 -2.2706672004144482e-12 1.6651740857419045e-12 -2.2706672004144482e-12 -0.0655883165729539 4.0628000096510175e-12 1.6651740857419045e-12 4.0628000096510175e-12 -0.06623710820237882" pbc="T T T"
Si       1.84302290       1.06406977       0.38194567
Si       1.84302290      -1.06406977       3.41823978
Si       1.84302290       1.06406977       2.65434843
Si       1.84302290      -1.06406977      -0.38194567
