4
Lattice="1.7808163570133952 -3.084464409296918 3.3382750408665217e-18 1.7808163570133952 3.084464409296918 -3.3382750408663206e-18 -1.3613135617381356e-31 -2.055090323111534e-17 5.946740097416655" Properties=species:S:1:pos:R:3 cutoff=-1.0 nneightol=1.2 n_minim_iter=3 stress="-0.13963069623726954 -2.006892834680297e-12 3.9304802637292455e-12 -2.006892834680297e-12 -0.13963069621534582 2.7262505091586026e-12 3.9304802637292455e-12 2.7262505091586026e-12 -0.13969969236382776" pbc="T T T"
Si       1.78081636       1.02815480       0.38326489
Si       1.78081636      -1.02815480       3.35663493
Si       1.78081636       1.02815480       2.59010516
Si       1.78081636      -1.02815480      -0.38326489
