2
Lattice="4.990313537873172 -6.645541613439713e-17 2.8796436654112586e-15 -6.645541613437704e-17 4.990313537873172 -4.433226911112002e-15 2.4951567689365852 2.495156768936587 1.5091169237757573" Properties=species:S:1:pos:R:3:forces:R:3 cutoff=-1.0 nneightol=1.2 n_minim_iter=1 energy=-325.479141768169 stress="0.05967287705267114 -2.6012180207218492e-17 -1.575454983489357e-17 -2.6012180207218492e-17 0.05967287705267139 -2.0406761164522313e-16 -1.575454983489357e-17 -2.0406761164522313e-16 0.05209887011119522" free_energy=-325.479141768169 pbc="T T T"
Si      -0.00000000      -1.24757838      -0.37727923      -0.00000000      -0.00000000       0.00000000
Si      -0.00000000       1.24757839       0.37727923       0.00000000       0.00000000      -0.00000000
