2
Lattice="4.728305617161244 1.0787067874155282e-17 1.9197171502993464e-16 1.0787067874155311e-17 4.728305617161244 -2.7859199234203474e-16 2.364152808580622 2.364152808580622 1.3036319399592178" Properties=species:S:1:pos:R:3:forces:R:3 cutoff=-1.0 nneightol=1.2 n_minim_iter=1 energy=-325.682469361993 stress="-0.04183869855102172 1.877117310689218e-17 1.8038705002478436e-16 1.877117310689218e-17 -0.04183869855102071 -4.445810731729585e-16 1.8038705002478436e-16 -4.445810731729585e-16 -0.03771607271211537" free_energy=-325.682469361993 pbc="T T T"
Si      -0.00000000      -1.18207640      -0.32590798      -0.00000000       0.00000000       0.00000000
Si      -0.00000000       1.18207641       0.32590798       0.00000000      -0.00000000      -0.00000000
