2
Lattice="4.6004956249834015 1.8800461521577325e-19 6.8364622978656e-17 1.8800461521495e-19 4.6004956249834015 -2.9248127182701186e-16 2.3002478124917007 2.3002478124917007 1.2683242785929032" Properties=species:S:1:pos:R:3 cutoff=-1.0 nneightol=1.2 n_minim_iter=1 energy=-325.50186723282945 free_energy=-325.50186723282945 pbc="T T T"
Si      -0.00000000      -1.15012391      -0.31708107
Si      -0.00000000       1.15012391       0.31708107
