2
Lattice="4.965155252508043 2.0290685587547271e-19 7.378356475872758e-17 2.0290685587460578e-19 4.965155252508043 -3.1566488514536127e-16 2.4825776262540216 2.4825776262540216 1.3688583724632384" Properties=species:S:1:pos:R:3 cutoff=-1.0 nneightol=1.2 n_minim_iter=1 energy=-325.6336311102234 free_energy=-325.6336311102234 pbc="T T T"
Si      -0.00000000      -1.24128881      -0.34221459
Si      -0.00000000       1.24128881       0.34221459
