2
Lattice="4.686506049181092 1.9151953143870274e-19 6.964276140152007e-17 1.9151953143787748e-19 4.686506049181092 -2.9794947358403736e-16 2.343253024590546 2.343253024590546 1.2920367474472558" Properties=species:S:1:pos:R:3 cutoff=-1.0 nneightol=1.2 n_minim_iter=1 stress="-0.0656990427020807 -3.4466991325427143e-16 6.117337104694348e-16 -3.4466991325427143e-16 -0.06569904270207955 1.1552361930069032e-15 6.117337104694348e-16 1.1552361930069032e-15 -0.06032327136114292" pbc="T T T"
Si      -0.00000000      -1.17162651      -0.32300919
Si      -0.00000000       1.17162651       0.32300919
