2
Lattice="5.0082932499664725 -1.4722348564288052e-17 2.0855770456708887e-15 -1.4722348564278743e-17 5.008293249966472 -4.2481699559249e-15 2.504146624983236 2.504146624983237 1.498263106046107" Properties=species:S:1:pos:R:3 cutoff=-1.0 nneightol=1.2 n_minim_iter=2 stress="0.03602951618316088 -8.600315632933748e-17 1.7506688406598526e-16 -8.600315632933748e-17 0.03602951618316055 3.939474112787321e-16 1.7506688406598526e-16 3.939474112787321e-16 0.037197509074274715" pbc="T T T"
Si      -0.00000000      -1.25207331      -0.37456578
Si      -0.00000000       1.25207331       0.37456578
