2
Lattice="4.970774930495051 -6.022281523250918e-17 2.0785518942705382e-15 -6.022281523251002e-17 4.970774930495051 -4.154231338416585e-15 2.4853874652475256 2.4853874652475243 1.427845241684013" Properties=species:S:1:pos:R:3 cutoff=-1.0 nneightol=1.2 n_minim_iter=2 stress="0.051561480361919224 -2.0384443190379515e-17 6.534846025719935e-16 -2.0384443190379515e-17 0.05156148036191983 -8.521700083958925e-16 6.534846025719935e-16 -8.521700083958925e-16 0.05124993250033293" pbc="T T T"
Si      -0.00000000      -1.24269373      -0.35696131
Si      -0.00000000       1.24269373       0.35696131
