2
Lattice="5.039272974495156 2.0593576296262306e-19 7.488497437471957e-17 2.0593576296172993e-19 5.039272974495156 -3.203769960479317e-16 2.519636487247578 2.519636487247578 1.389292106985178" Properties=species:S:1:pos:R:3 cutoff=-1.0 nneightol=1.2 n_minim_iter=1 stress="0.057358750730801725 -1.6401340569688685e-16 -9.089075705702542e-17 -1.6401340569688685e-16 0.05735875073080208 -2.0766975887826807e-16 -9.089075705702542e-17 -2.0766975887826807e-16 0.04476848341088213" pbc="T T T"
Si      -0.00000000      -1.25981824      -0.34732303
Si      -0.00000000       1.25981824       0.34732303
