2
Lattice="4.534621965942419 -1.01740873394487e-17 -2.3250759321353405e-16 -1.0174087339449221e-17 4.534621965942419 3.2446587537839466e-16 2.2673109829712095 2.2673109829712095 1.2308447303046164" Properties=species:S:1:pos:R:3 cutoff=-1.0 nneightol=1.2 n_minim_iter=1 stress="-0.19773652844774087 -6.671894574989245e-16 -4.725346856949521e-16 -6.671894574989245e-16 -0.19773652844774042 1.0836337325419111e-15 -4.725346856949521e-16 1.0836337325419111e-15 -0.18897824453887782" pbc="T T T"
Si      -0.00000000      -1.13365549      -0.30771118
Si      -0.00000000       1.13365549       0.30771118
