2
Lattice="4.4580710848508796 -2.4537308959097223e-17 -3.890127169851617e-16 -2.4537308959097232e-17 4.4580710848508796 5.545767617574268e-16 2.2290355424254398 2.2290355424254398 1.1962975718147777" Properties=species:S:1:pos:R:3 cutoff=-1.0 nneightol=1.2 n_minim_iter=2 stress="-0.23113172765573856 -3.1703323982559843e-15 -2.1390227778595786e-16 -3.1703323982559843e-15 -0.23113172765573778 -1.4094015885570017e-15 -2.1390227778595786e-16 -1.4094015885570017e-15 -0.2223560554816226" pbc="T T T"
Si      -0.00000000      -1.11451777      -0.29907439
Si      -0.00000000       1.11451777       0.29907439
