2
Lattice="4.483553923266186 3.792301680716221e-17 -5.203001925653423e-16 3.792301680716235e-17 4.483553923266187 9.372509492263097e-16 2.241776961633093 2.2417769616330934 1.1827376033505188" Properties=species:S:1:pos:R:3 cutoff=-1.0 nneightol=1.2 n_minim_iter=2 stress="-0.24032501577123105 -8.576182138345744e-16 -9.92583896970534e-16 -8.576182138345744e-16 -0.24032501577122348 4.0407883773421903e-16 -9.92583896970534e-16 4.0407883773421903e-16 -0.24422011166859486" pbc="T T T"
Si      -0.00000000      -1.12088848      -0.29568440
Si      -0.00000000       1.12088848       0.29568440
