2
Lattice="2.9530439009597633 -6.270928887549544e-33 -7.149901677331754e-34 6.270928887549544e-33 2.9530439009597633 1.5039054391497375e-17 7.149901677331753e-34 -1.503905439149736e-17 2.9530439009597633" Properties=species:S:1:pos:R:3:forces:R:3 n_minim_iter=1 energy=-10.58260362388835 stress="-0.05797070276249314 3.5156321717642344e-17 3.200799439964452e-17 3.5156321717642344e-17 -0.057970702762493144 3.358215805864343e-17 3.200799439964452e-17 3.358215805864343e-17 -0.05797070276249315" free_energy=-10.58260362388835 pbc="T T T"
V        0.00000000       0.00000000       0.00000000      -0.00000000      -0.00000000      -0.00000000
V        1.47652195       1.47652195       1.47652195       0.00000000       0.00000000       0.00000000
