8
Lattice="5.916135081483083 3.632980302385606e-17 3.1894841534928363e-49 -2.9580675407415415 5.12352327278467 -2.674255664419148e-47 -2.487884122410404e-49 2.3943321995726156e-47 4.614745779231535" Properties=species:S:1:pos:R:3:tags:I:1 spacegroup="P 1" unit_cell=conventional n_minim_iter=1 energy=-9783.580737481228 free_energy=-9783.580737481228 pbc="T T T"
Ti       2.95806755       3.45770496       1.15368644        0
Ti      -1.51542212       4.29061668       3.46105933        1
Ti       1.51542213       4.29061668       3.46105933        2
Ti       1.44264542       0.83291685       1.15368644        3
Ti       4.47348967       0.83291685       1.15368644        4
Ti       0.00000001       1.66582857       3.46105933        5
Al       0.00000001       3.41568731       1.15368644        6
Al       2.95806755       1.70784622       3.46105933        7
8
Lattice="5.924384960130568 3.913570656053237e-17 3.2263392279545695e-49 -2.962192480065284 5.13066787727153 -2.6773402125018595e-47 -2.6243446416231345e-49 2.385751974936813e-47 4.601902391986825" Properties=species:S:1:pos:R:3:tags:I:1 spacegroup="P 1" unit_cell=conventional n_minim_iter=2 stress="0.04938154885120495 -3.976422576947619e-17 3.657296355461858e-18 -3.976422576947619e-17 0.049381548851204674 -5.91928945499379e-18 3.657296355461858e-18 -5.91928945499379e-18 0.049367766743826105" pbc="T T T"
Ti       2.96219249       3.46259865       1.15047560        0
Ti      -1.51759770       4.29663583       3.45142679        1
Ti       1.51759771       4.29663583       3.45142679        2
Ti       1.44459478       0.83404232       1.15047560        3
Ti       4.47979019       0.83404232       1.15047560        4
Ti       0.00000001       1.66807950       3.45142679        5
Al       0.00000001       3.42045039       1.15047560        6
Al       2.96219249       1.71022776       3.45142679        7
8
Lattice="5.924446752409389 3.394562970058237e-17 2.7323760468218556e-49 -2.9622233762046943 5.130721390954747 -2.632882294313504e-47 -2.2385911966081738e-49 2.3946106449473033e-47 4.601806396338745" Properties=species:S:1:pos:R:3:tags:I:1 spacegroup="P 1" unit_cell=conventional n_minim_iter=3 stress="0.04936943169094891 -6.702854251351402e-17 -1.4198795221851432e-17 -6.702854251351402e-17 0.04936943169094891 -5.732526469855391e-17 -1.4198795221851432e-17 -5.732526469855391e-17 0.04936278204573255" pbc="T T T"
Ti       2.96222338       3.46352838       1.15045160        0
Ti      -1.51838742       4.29712745       3.45135479        1
Ti       1.51838743       4.29712745       3.45135479        2
Ti       1.44383596       0.83360421       1.15045160        3
Ti       4.48061081       0.83360421       1.15045160        4
Ti       0.00000001       1.66720328       3.45135479        5
Al       0.00000001       3.42048606       1.15045160        6
Al       2.96222338       1.71024560       3.45135479        7
