8
Lattice="5.306293040594956 1.8762802173348276e-17 3.609756523039007e-48 -2.653146520297478 4.595384573079805 -1.1354231902595556e-47 -2.9267756074429796e-48 8.9403570218912e-48 4.302320374805494" Properties=species:S:1:pos:R:3:tags:I:1 spacegroup="P 1" unit_cell=conventional n_minim_iter=1 energy=-9782.035793126899 free_energy=-9782.035793126899 pbc="T T T"
Ti       2.65314652       3.07697440       1.07558009        0
Ti      -1.33816075       3.83618179       3.22674028        1
Ti       1.33816076       3.83618179       3.22674028        2
Ti       1.31498577       0.75921199       1.07558009        3
Ti       3.99130728       0.75921199       1.07558009        4
Ti       0.00000000       1.51841937       3.22674028        5
Al       0.00000000       3.06359431       1.07558009        6
Al       2.65314652       1.53179946       3.22674028        7
8
Lattice="5.295471697265649 1.7147021065136735e-17 3.6000278610240216e-48 -2.6477358486328244 4.586013014853551 -1.124303991652945e-47 -2.946041646855713e-48 8.794580620610275e-48 4.319922000593389" Properties=species:S:1:pos:R:3:tags:I:1 spacegroup="P 1" unit_cell=conventional n_minim_iter=2 stress="-0.20653526775689945 -1.6394245435202554e-16 3.157097970888298e-17 -1.6394245435202554e-16 -0.20653526775689884 -4.218069454433513e-17 3.157097970888298e-17 -4.218069454433513e-17 -0.20269246201551838" pbc="T T T"
Ti       2.64773585       3.06898140       1.07998050        0
Ti      -1.33394395       3.82749950       3.23994150        1
Ti       1.33394396       3.82749950       3.23994150        2
Ti       1.31379189       0.75852269       1.07998050        3
Ti       3.98167981       0.75852269       1.07998050        4
Ti       0.00000000       1.51704079       3.23994150        5
Al       0.00000000       3.05734660       1.07998050        6
Al       2.64773585       1.52867559       3.23994150        7
8
Lattice="5.299190139089544 1.1925857010791844e-17 3.9003015059475083e-48 -2.649595069544772 4.58923327993554 -1.1566543055948348e-47 -2.8119969998826746e-48 8.363051627916594e-48 4.313861548945138" Properties=species:S:1:pos:R:3:tags:I:1 spacegroup="P 1" unit_cell=conventional n_minim_iter=3 stress="-0.20523650058206525 3.2488657531288597e-17 -1.411954318640654e-17 3.2488657531288597e-17 -0.20523650058206477 9.121970761441272e-17 -1.411954318640654e-17 9.121970761441272e-17 -0.2042178935487492" pbc="T T T"
Ti       2.64959507       3.06952424       1.07846538        0
Ti      -1.33348445       3.82938106       3.23539616        1
Ti       1.33348446       3.82938106       3.23539616        2
Ti       1.31611062       0.75986141       1.07846538        3
Ti       3.98307953       0.75986141       1.07846538        4
Ti       0.00000000       1.51971822       3.23539616        5
Al       0.00000000       3.05949345       1.07846538        6
Al       2.64959507       1.52974902       3.23539616        7
8
Lattice="5.30059958725594 1.281509947380158e-17 4.007931150216223e-48 -2.65029979362797 4.590453897852956 -1.284030873043139e-47 -2.723786223552826e-48 8.012419592210954e-48 4.31156771188705" Properties=species:S:1:pos:R:3:tags:I:1 spacegroup="P 1" unit_cell=conventional n_minim_iter=4 stress="-0.2044668047410648 2.1276449853630617e-17 -1.1092174683792462e-17 2.1276449853630617e-17 -0.20446680474106418 5.807828597066534e-17 -1.1092174683792462e-17 5.807828597066534e-17 -0.2045658896940962" pbc="T T T"
Ti       2.65029980       3.06863259       1.07789193        0
Ti      -1.33235990       3.82954554       3.23367578        1
Ti       1.33235991       3.82954554       3.23367578        2
Ti       1.31793990       0.76091755       1.07789193        3
Ti       3.98265970       0.76091755       1.07789193        4
Ti       0.00000000       1.52183050       3.23367578        5
Al       0.00000000       3.06030719       1.07789193        6
Al       2.65029980       1.53015589       3.23367578        7
