8
Lattice="5.432054317771248 1.4440132070723454e-17 8.525500963289946e-49 -2.716027158885624 4.704297033926848 -9.900675519851591e-48 -6.833873068535621e-49 8.769364185625981e-48 4.354227378412541" Properties=species:S:1:pos:R:3:tags:I:1 spacegroup="P 1" unit_cell=conventional n_minim_iter=1 energy=-9783.041395498398 free_energy=-9783.041395498398 pbc="T T T"
Ti       2.71602716       3.16054899       1.08855684        0
Ti      -1.37909805       3.93242536       3.26567053        1
Ti       1.37909806       3.93242536       3.26567053        2
Ti       1.33692911       0.77188109       1.08855684        3
Ti       4.09512522       0.77188109       1.08855684        4
Ti       0.00000000       1.54375746       3.26567053        5
Al       0.00000000       3.13620273       1.08855684        6
Al       2.71602716       1.56810372       3.26567053        7
8
Lattice="5.410594373954997 3.0980270100800844e-17 8.482215044088244e-49 -2.7052971869774987 4.685712177418188 -9.863459657620795e-48 -6.4760193888512965e-49 8.61869343240318e-48 4.388836065022274" Properties=species:S:1:pos:R:3:tags:I:1 spacegroup="P 1" unit_cell=conventional n_minim_iter=2 stress="-0.12000910503024186 6.909861433548115e-18 -1.5721614973605652e-17 6.909861433548115e-18 -0.12000910503024173 1.2950904280378057e-17 -1.5721614973605652e-17 1.2950904280378057e-17 -0.1160176325559064" pbc="T T T"
Ti       2.70529719       3.14674803       1.09720901        0
Ti      -1.37251107       3.91623245       3.29162705        1
Ti       1.37251108       3.91623245       3.29162705        2
Ti       1.33278612       0.76948911       1.09720901        3
Ti       4.07780827       0.76948911       1.09720901        4
Ti       0.00000000       1.53897353       3.29162705        5
Al       0.00000000       3.12381281       1.09720901        6
Al       2.70529719       1.56190875       3.29162705        7
8
Lattice="5.416893264638085 4.168815339279629e-17 9.02375276959131e-49 -2.7084466323190424 4.691167176765404 -9.951549422431883e-48 -5.6134654377532634e-49 8.648567309151985e-48 4.378635116161248" Properties=species:S:1:pos:R:3:tags:I:1 spacegroup="P 1" unit_cell=conventional n_minim_iter=3 stress="-0.11899902726930892 -6.480852844176242e-17 4.4588022507205e-17 -6.480852844176242e-17 -0.11899902726930918 4.076909229228325e-18 4.4588022507205e-17 4.076909229228325e-18 -0.11851538287853276" pbc="T T T"
Ti       2.70844664       3.14949030       1.09465878        0
Ti      -1.37331122       3.92033109       3.28397633        1
Ti       1.37331123       3.92033109       3.28397633        2
Ti       1.33513541       0.77084548       1.09465878        3
Ti       4.08175786       0.77084548       1.09465878        4
Ti       0.00000000       1.54168627       3.28397633        5
Al       0.00000000       3.12744948       1.09465878        6
Al       2.70844664       1.56372709       3.28397633        7
8
Lattice="5.418659860674737 3.126818822376726e-17 9.291533202151163e-49 -2.7093299303373684 4.692697093811369 -1.0006371174781839e-47 -6.2356084000037024e-49 8.60723683489003e-48 4.375780528971844" Properties=species:S:1:pos:R:3:tags:I:1 spacegroup="P 1" unit_cell=conventional n_minim_iter=4 stress="-0.11845270681799089 -3.36766317687844e-17 -4.050924763630269e-17 -3.36766317687844e-17 -0.11845270681799108 -1.076729358302147e-17 -4.050924763630269e-17 -1.076729358302147e-17 -0.11904521026871137" pbc="T T T"
Ti       2.70932994       3.14896254       1.09394513        0
Ti      -1.37241252       3.92083217       3.28183539        1
Ti       1.37241253       3.92083217       3.28183539        2
Ti       1.33691741       0.77187432       1.09394513        3
Ti       4.08174246       0.77187432       1.09394513        4
Ti       0.00000000       1.54374395       3.28183539        5
Al       0.00000000       3.12846943       1.09394513        6
Al       2.70932994       1.56423706       3.28183539        7
8
Lattice="5.418096345506939 2.6614271710390636e-17 6.149296456870055e-49 -2.7090481727534694 4.69220907536064 -1.0633663478011892e-47 -9.595024868220292e-49 8.609402369832885e-48 4.3766907921978495" Properties=species:S:1:pos:R:3:tags:I:1 spacegroup="P 1" unit_cell=conventional n_minim_iter=5 stress="-0.11824879903060558 -3.843725688287077e-17 -4.182719393426876e-17 -3.843725688287077e-17 -0.11824879903060538 -1.6691264627902178e-17 -4.182719393426876e-17 -1.6691264627902178e-17 -0.11863617639589966" pbc="T T T"
Ti       2.70904818       3.14729022       1.09417270        0
Ti      -1.37110513       3.91975200       3.28251809        1
Ti       1.37110513       3.91975200       3.28251809        2
Ti       1.33794305       0.77246647       1.09417270        3
Ti       4.08015331       0.77246647       1.09417270        4
Ti       0.00000000       1.54492825       3.28251809        5
Al       0.00000000       3.12814408       1.09417270        6
Al       2.70904818       1.56407439       3.28251809        7
