8
Lattice="5.365996038261519 2.6358349400265175e-17 6.0901649438227124e-49 -2.6829980191307596 4.64708888574113 -1.0531410380425638e-47 -4.9195819219233674e-49 9.539214404208062e-48 4.334604620145777" Properties=species:S:1:pos:R:3:tags:I:1 spacegroup="P 1" unit_cell=conventional n_minim_iter=1 energy=-9782.608436623368 free_energy=-9782.608436623368 pbc="T T T"
Ti       2.68299802       3.11702594       1.08365115        0
Ti      -1.35792061       3.88205974       3.25095346        1
Ti       1.35792061       3.88205974       3.25095346        2
Ti       1.32507741       0.76503845       1.08365115        3
Ti       4.04091863       0.76503845       1.08365115        4
Ti       0.00000000       1.53007225       3.25095346        5
Al       0.00000000       3.09806391       1.08365115        6
Al       2.68299802       1.54903428       3.25095346        7
8
Lattice="5.355135221151382 1.899020429845525e-17 7.123121620045072e-49 -2.677567610575691 4.637683142217893 -9.984729482293546e-48 -4.2130594006932435e-49 9.520977571255204e-48 4.352204581737376" Properties=species:S:1:pos:R:3:tags:I:1 spacegroup="P 1" unit_cell=conventional n_minim_iter=2 stress="-0.15840287405570233 -1.2245806366805163e-16 9.170007789669262e-18 -1.2245806366805163e-16 -0.15840287405570305 2.243871710668298e-16 9.170007789669262e-18 2.243871710668298e-16 -0.1555067492263418" pbc="T T T"
Ti       2.67756762       3.10910748       1.08805114        0
Ti      -1.35377823       3.87339763       3.26415343        1
Ti       1.35377824       3.87339763       3.26415343        2
Ti       1.32378938       0.76429479       1.08805114        3
Ti       4.03134585       0.76429479       1.08805114        4
Ti       0.00000000       1.52858494       3.26415343        5
Al       0.00000000       3.09179340       1.08805114        6
Al       2.67756762       1.54589902       3.26415343        7
8
Lattice="5.360728596545783 1.9110672099992e-17 3.765380479365849e-48 -2.6803642982728917 4.642527147402347 -1.167807017296719e-47 -9.29611962056468e-49 5.2824030408824946e-48 4.343127153701438" Properties=species:S:1:pos:R:3:tags:I:1 spacegroup="P 1" unit_cell=conventional n_minim_iter=3 stress="-0.15655390253008353 3.363228900453101e-17 -1.896312858387068e-16 3.363228900453101e-17 -0.15655390253008386 3.089363777066181e-17 -1.896312858387068e-16 3.089363777066181e-17 -0.15745874178787866" pbc="T T T"
Ti       2.68036430       3.10901842       1.08578179        0
Ti      -1.35230276       3.87577511       3.25734536        1
Ti       1.35230277       3.87577511       3.25734536        2
Ti       1.32806154       0.76676133       1.08578179        3
Ti       4.03266706       0.76676133       1.08578179        4
Ti       0.00000000       1.53351802       3.25734536        5
Al       0.00000000       3.09502274       1.08578179        6
Al       2.68036430       1.54751370       3.25734536        7
8
Lattice="5.359359491366804 1.89504426429297e-17 3.6458564830982664e-48 -2.679679745683402 4.641341467536898 -1.1467781754385048e-47 -1.03811323889362e-48 6.205271099501605e-48 4.345346432851608" Properties=species:S:1:pos:R:3:tags:I:1 spacegroup="P 1" unit_cell=conventional n_minim_iter=4 stress="-0.15669529203456606 1.60411527252666e-16 -5.897113604506149e-17 1.60411527252666e-16 -0.15669529203456664 6.709858634613761e-17 -5.897113604506149e-17 6.709858634613761e-17 -0.15675216846207415" pbc="T T T"
Ti       2.67967975       3.10774618       1.08633661        0
Ti      -1.35154324       3.87454615       3.25900982        1
Ti       1.35154325       3.87454615       3.25900982        2
Ti       1.32813650       0.76680461       1.08633661        3
Ti       4.03122300       0.76680461       1.08633661        4
Ti       0.00000000       1.53360457       3.25900982        5
Al       0.00000000       3.09423229       1.08633661        6
Al       2.67967975       1.54711847       3.25900982        7
