8
Lattice="5.750847869999999 0.0 0.0 -2.8754239349999997 4.9803803487196285 0.0 0.0 0.0 4.65528205" Properties=species:S:1:pos:R:3:tags:I:1 spacegroup="P 1" unit_cell=conventional n_minim_iter=1 energy=-9783.668943669596 free_energy=-9783.668943669596 pbc="T T T"
Ti       2.87542394       3.28996953       1.16382051        0
Ti      -1.41148090       4.13517743       3.49146154        1
Ti       1.41148091       4.13517743       3.49146154        2
Ti       1.46394303       0.84521289       1.16382051        3
Ti       4.28690485       0.84521289       1.16382051        4
Ti       0.00000000       1.69042079       3.49146154        5
Al       0.00000000       3.32025855       1.16382051        6
Al       2.87542394       1.66013177       3.49146154        7
8
Lattice="5.685879563619235 5.376141132306533e-17 6.2426519591705e-51 -2.8429397818096174 4.924116144953036 1.2290569407659086e-50 7.640508381119214e-53 9.491869761543227e-53 4.54075778459107" Properties=species:S:1:pos:R:3:tags:I:1 spacegroup="P 1" unit_cell=conventional n_minim_iter=2 stress="-0.001579471975431306 1.490424232644655e-17 6.855661875249911e-17 1.490424232644655e-17 -0.0015794719754314178 9.805171125903098e-17 6.855661875249911e-17 9.805171125903098e-17 -0.0004889579400131884" pbc="T T T"
Ti       2.84293979       3.25488513       1.13518944        0
Ti      -1.39733904       4.08950310       3.40556834        1
Ti       1.39733905       4.08950310       3.40556834        2
Ti       1.44560074       0.83462290       1.13518944        3
Ti       4.24027883       0.83462290       1.13518944        4
Ti       0.00000000       1.66924087       3.40556834        5
Al       0.00000000       3.28274902       1.13518944        6
Al       2.84293979       1.64137698       3.40556834        7
8
Lattice="5.729801243391551 8.972070690547519e-17 -4.536238088578669e-50 -2.8649006216957753 4.962153435412747 -1.048199482784373e-47 -3.612360050232686e-48 -1.2279198511662776e-47 4.494337554538973" Properties=species:S:1:pos:R:3:tags:I:1 spacegroup="P 1" unit_cell=conventional n_minim_iter=3 stress="0.006094983244654872 -8.426826449364191e-17 -7.420193881074356e-18 -8.426826449364191e-17 0.006094983244654594 -6.509887019088533e-19 -7.420193881074356e-18 -6.509887019088533e-19 -0.00820815398242446" pbc="T T T"
Ti       2.86490063       3.32255332       1.12358439        0
Ti      -1.44496096       4.14235586       3.37075316        1
Ti       1.44496097       4.14235586       3.37075316        2
Ti       1.41993966       0.81980751       1.12358439        3
Ti       4.30986160       0.81980751       1.12358439        4
Ti       0.00000000       1.63961005       3.37075316        5
Al       0.00000000       3.30810726       1.12358439        6
Al       2.86490063       1.65405611       3.37075316        7
8
Lattice="5.691312239482542 5.19676881901342e-17 -1.025257920936825e-49 -2.845656119741271 4.928820980261186 -1.0385548087191059e-47 -3.6142578288715414e-48 -1.2426337581427407e-47 4.520753500068089" Properties=species:S:1:pos:R:3:tags:I:1 spacegroup="P 1" unit_cell=conventional n_minim_iter=4 stress="-0.0012596971361885693 -1.8790278834265727e-16 4.391149433023784e-17 -1.8790278834265727e-16 -0.0012596971361888494 -4.23348260100042e-17 4.391149433023784e-17 -4.23348260100042e-17 -0.0036308821556117533" pbc="T T T"
Ti       2.84565612       3.32126376       1.13018837        0
Ti      -1.45346645       4.12504483       3.39056512        1
Ti       1.45346646       4.12504483       3.39056512        2
Ti       1.39218967       0.80378601       1.13018837        3
Ti       4.29912258       0.80378601       1.13018837        4
Ti       0.00000000       1.60756709       3.39056512        5
Al       0.00000000       3.28588559       1.13018837        6
Al       2.84565612       1.64294526       3.39056512        7
8
Lattice="5.693292493322733 1.3915419491403923e-17 -1.9788117131985866e-49 -2.8466462466613667 4.930535930392733 -1.1054909242842225e-47 -3.771499432289237e-48 -1.2668135545042256e-47 4.5300632588281875" Properties=species:S:1:pos:R:3:tags:I:1 spacegroup="P 1" unit_cell=conventional n_minim_iter=5 stress="-3.8634020135562424e-05 -1.373437255350339e-16 -8.493848488299158e-17 -1.373437255350339e-16 -3.8634020136400566e-05 -4.5484570826225356e-17 -8.493848488299158e-17 -4.5484570826225356e-17 -7.660372232924745e-05" pbc="T T T"
Ti       2.84664625       3.32422377       1.13251581        0
Ti      -1.45553483       4.12738232       3.39754744        1
Ti       1.45553484       4.12738232       3.39754744        2
Ti       1.39111142       0.80316348       1.13251581        3
Ti       4.30218108       0.80316348       1.13251581        4
Ti       0.00000000       1.60632203       3.39754744        5
Al       0.00000000       3.28702889       1.13251581        6
Al       2.84664625       1.64351691       3.39754744        7
