8
Lattice="6.08901233168268 3.6433830037385753e-17 2.5538307633796542e-48 -3.04450616584134 5.273239363193915 -2.2807509451318734e-47 -1.2535878226280986e-48 1.8520731767254713e-47 4.851473245651378" Properties=species:S:1:pos:R:3:tags:I:1 spacegroup="P 1" unit_cell=conventional n_minim_iter=3 stress="0.09102419801499326 -4.480460578688717e-17 1.47864761308014e-17 -4.480460578688717e-17 0.09102419801499281 3.179213149142288e-17 1.47864761308014e-17 3.179213149142288e-17 0.09123836518357509" pbc="T T T"
Ti       3.04450617       3.58090294       1.21286831        0
Ti      -1.57889525       4.42707379       3.63860493        1
Ti       1.57889526       4.42707379       3.63860493        2
Ti       1.46561091       0.84617613       1.21286831        3
Ti       4.62340143       0.84617613       1.21286831        4
Ti       0.00000001       1.69234698       3.63860493        5
Al       0.00000001       3.51549819       1.21286831        6
Al       3.04450617       1.75775173       3.63860493        7
