8
Lattice="6.01851682683708 3.547279339808495e-17 6.36882710390939e-49 -3.00925841341854 5.2121884651450205 -2.7093713423087243e-47 -2.1501634361076154e-49 2.2909363731087127e-47 4.661762472178752" Properties=species:S:1:pos:R:3:tags:I:1 spacegroup="P 1" unit_cell=conventional n_minim_iter=3 stress="0.06190395268118529 -9.801093613098107e-17 -6.120285615351147e-18 -9.801093613098107e-17 0.06190395268118554 -1.1907478021321327e-17 -6.120285615351147e-18 -1.1907478021321327e-17 0.061568771191696306" pbc="T T T"
Ti       3.00925842       3.51939759       1.16544062        0
Ti      -1.54325399       4.36579564       3.49632185        1
Ti       1.54325400       4.36579564       3.49632185        2
Ti       1.46600442       0.84640326       1.16544062        3
Ti       4.55251241       0.84640326       1.16544062        4
Ti       0.00000001       1.69280131       3.49632185        5
Al       0.00000001       3.47479753       1.16544062        6
Al       3.00925842       1.73740137       3.49632185        7
