8
Lattice="5.870971983714856 3.605246546761901e-17 3.1651359966859954e-49 -2.935485991857428 5.084410882803785 -2.6538407029001967e-47 -6.47912560774926e-49 2.49779980099629e-47 4.579517338377427" Properties=species:S:1:pos:R:3:tags:I:1 spacegroup="P 1" unit_cell=conventional n_minim_iter=3 stress="0.03578011815800529 -1.8125758130569425e-16 -6.198225880111195e-17 -1.8125758130569425e-16 0.03578011815800539 -2.3600331679388734e-17 -6.198225880111195e-17 -2.3600331679388734e-17 0.03577537699220148" pbc="T T T"
Ti       2.93548600       3.43130924       1.14487933        0
Ti      -1.50385356       4.25786261       3.43463800        1
Ti       1.50385357       4.25786261       3.43463800        2
Ti       1.43163243       0.82655846       1.14487933        3
Ti       4.43933956       0.82655846       1.14487933        4
Ti       0.00000001       1.65311182       3.43463800        5
Al       0.00000001       3.38961234       1.14487933        6
Al       2.93548600       1.69480872       3.43463800        7
