8
Lattice="6.130155554942121 3.668001203239092e-17 2.5710869000962504e-48 -3.0650777774710605 5.308870439730166 -2.2961618919690937e-47 -1.2620582675627127e-48 1.8645875642898302e-47 4.8842544646751005" Properties=species:S:1:pos:R:3:tags:I:1 spacegroup="P 1" unit_cell=conventional n_minim_iter=3 stress="0.09102419801499326 -4.480460578688717e-17 1.47864761308014e-17 -4.480460578688717e-17 0.09102419801499281 3.179213149142288e-17 1.47864761308014e-17 3.179213149142288e-17 0.09123836518357509" pbc="T T T"
Ti       3.06507778       3.60509896       1.22106361        0
Ti      -1.58956379       4.45698736       3.66319085        1
Ti       1.58956380       4.45698736       3.66319085        2
Ti       1.47551399       0.85189371       1.22106361        3
Ti       4.65464158       0.85189371       1.22106361        4
Ti       0.00000001       1.70378210       3.66319085        5
Al       0.00000001       3.53925227       1.22106361        6
Al       3.06507778       1.76962879       3.66319085        7
