8
Lattice="6.043429223130711 3.7364746086727e-17 1.9709431375959275e-48 -3.0217146115653555 5.233763233204453 -2.119477897299192e-47 -1.1619627067846823e-48 2.542716801221487e-47 4.723916857311868" Properties=species:S:1:pos:R:3:tags:I:1 spacegroup="P 1" unit_cell=conventional n_minim_iter=4 stress="0.0686103555009877 2.930999607758239e-17 -4.871172866754712e-17 2.930999607758239e-17 0.06861035550098822 1.0493223333901039e-16 -4.871172866754712e-17 1.0493223333901039e-16 0.06795577938603183" pbc="T T T"
Ti       3.02171462       3.53651492       1.18097921        0
Ti      -1.55184992       4.38514170       3.54293764        1
Ti       1.55184993       4.38514170       3.54293764        2
Ti       1.46986469       0.84863201       1.18097921        3
Ti       4.57356454       0.84863201       1.18097921        4
Ti       0.00000001       1.69725879       3.54293764        5
Al       0.00000001       3.48918073       1.18097921        6
Al       3.02171462       1.74459298       3.54293764        7
