8
Lattice="5.188374396445554 9.796143693463032e-18 7.306856957119538e-48 -2.594187198222777 4.493264031666603 -1.0064519040421906e-47 -7.989010260130147e-49 7.457019625089938e-48 4.227370833744922" Properties=species:S:1:pos:R:3:tags:I:1 spacegroup="P 1" unit_cell=conventional n_minim_iter=3 stress="-0.26650528316328487 3.677931828578011e-17 -1.1673768475044456e-17 3.677931828578011e-17 -0.2665052831632861 1.406707220121122e-17 -1.1673768475044456e-17 1.406707220121122e-17 -0.26674362877571695" pbc="T T T"
Ti       2.59418720       2.99773421       1.05684271        0
Ti      -1.29901648       3.74550137       3.17052812        1
Ti       1.29901649       3.74550137       3.17052812        2
Ti       1.29517072       0.74777166       1.05684271        3
Ti       3.89320369       0.74777166       1.05684271        4
Ti       0.00000000       1.49553882       3.17052812        5
Al       0.00000000       2.99551385       1.05684271        6
Al       2.59418720       1.49775917       3.17052812        7
