8
Lattice="5.246508062087202 1.2684324027681555e-17 3.967031039744245e-48 -2.623254031043601 4.543609262927384 -1.270927602904863e-47 -2.6959905471127875e-48 7.930654503394099e-48 4.267569052949488" Properties=species:S:1:pos:R:3:tags:I:1 spacegroup="P 1" unit_cell=conventional n_minim_iter=4 stress="-0.2044668047410648 2.1276449853630617e-17 -1.1092174683792462e-17 2.1276449853630617e-17 -0.20446680474106418 5.807828597066534e-17 -1.1092174683792462e-17 5.807828597066534e-17 -0.2045658896940962" pbc="T T T"
Ti       2.62325404       3.03731783       1.06689226        0
Ti      -1.31876344       3.79046582       3.20067679        1
Ti       1.31876345       3.79046582       3.20067679        2
Ti       1.30449059       0.75315254       1.06689226        3
Ti       3.94201748       0.75315254       1.06689226        4
Ti       0.00000000       1.50630053       3.20067679        5
Al       0.00000000       3.02907739       1.06689226        6
Al       2.62325404       1.51454097       3.20067679        7
