8
Lattice="5.306293040594958 1.876280217334828e-17 3.609756523039008e-48 -2.653146520297479 4.595384573079803 -1.135423190259555e-47 -1.027834214846793e-48 6.143828736126261e-48 4.302320374805495" Properties=species:S:1:pos:R:3:tags:I:1 spacegroup="P 1" unit_cell=conventional n_minim_iter=4 stress="-0.15669529203456606 1.60411527252666e-16 -5.897113604506149e-17 1.60411527252666e-16 -0.15669529203456664 6.709858634613761e-17 -5.897113604506149e-17 6.709858634613761e-17 -0.15675216846207415" pbc="T T T"
Ti       2.65314652       3.07697440       1.07558009        0
Ti      -1.33816075       3.83618179       3.22674028        1
Ti       1.33816076       3.83618179       3.22674028        2
Ti       1.31498577       0.75921199       1.07558009        3
Ti       3.99130728       0.75921199       1.07558009        4
Ti       0.00000000       1.51841937       3.22674028        5
Al       0.00000000       3.06359431       1.07558009        6
Al       2.65314652       1.53179946       3.22674028        7
