8
Lattice="5.184093090127879 1.8812127289906213e-17 7.164330883760565e-48 -2.5920465450639396 4.4895563116341135 -8.980470797920174e-48 -6.008613869628438e-48 6.571174144983796e-48 4.234356102942901" Properties=species:S:1:pos:R:3:tags:I:1 spacegroup="P 1" unit_cell=conventional n_minim_iter=4 stress="-0.3440115756392631 3.196180496483872e-17 2.7819092681376026e-17 3.196180496483872e-17 -0.3440115756392637 -1.6461559449373878e-16 2.7819092681376026e-17 -1.6461559449373878e-16 -0.3440187557077412" pbc="T T T"
Ti       2.59204655       2.99004622       1.05858902        0
Ti      -1.29342882       3.73980351       3.17576707        1
Ti       1.29342883       3.73980351       3.17576707        2
Ti       1.29861773       0.74976178       1.05858902        3
Ti       3.88547537       0.74976178       1.05858902        4
Ti       0.00000000       1.49951907       3.17576707        5
Al       0.00000000       2.99304203       1.05858902        6
Al       2.59204655       1.49652326       3.17576707        7
