8
Lattice="5.589031482876767 1.7473344594998752e-17 9.132189931544274e-49 -2.7945157414383837 4.840243246722295 -9.543571841398794e-48 -8.503250149844864e-50 8.298624247747128e-48 4.465619879997028" Properties=species:S:1:pos:R:3:tags:I:1 spacegroup="P 1" unit_cell=conventional n_minim_iter=3 stress="-0.017705662817006772 -2.5203580520538898e-17 4.2183182369948165e-17 -2.5203580520538898e-17 -0.017705662817006602 -6.751725149699009e-17 4.2183182369948165e-17 -6.751725149699009e-17 -0.01767006512143485" pbc="T T T"
Ti       2.79451575       3.26155281       1.11640497        0
Ti      -1.42732552       4.05090045       3.34921491        1
Ti       1.42732553       4.05090045       3.34921491        2
Ti       1.36719022       0.78935248       1.11640497        3
Ti       4.22184127       0.78935248       1.11640497        4
Ti       0.00000000       1.57870012       3.34921491        5
Al       0.00000000       3.22683368       1.11640497        6
Al       2.79451575       1.61341926       3.34921491        7
