8
Lattice="5.854546329010471 -3.5308691257001115e-19 9.8163781124208e-49 -2.9272731645052357 5.070185848555997 -2.5973002185768577e-47 -2.1484261955165304e-49 1.8225468381329364e-47 4.605250192127379" Properties=species:S:1:pos:R:3:tags:I:1 spacegroup="P 1" unit_cell=conventional n_minim_iter=3 stress="0.026864806993448193 1.459684905471414e-17 5.742632220161256e-17 1.459684905471414e-17 0.026864806993448433 -3.2097445789850357e-17 5.742632220161256e-17 -3.2097445789850357e-17 0.026859442859427547" pbc="T T T"
Ti       2.92727317       3.42061812       1.15131255        0
Ti      -1.49870121       4.24540452       3.45393764        1
Ti       1.49870122       4.24540452       3.45393764        2
Ti       1.42857196       0.82479148       1.15131255        3
Ti       4.42597438       0.82479148       1.15131255        4
Ti       0.00000001       1.64957788       3.45393764        5
Al       0.00000001       3.38012897       1.15131255        6
Al       2.92727317       1.69006702       3.45393764        7
