2
Lattice="2.7721149907834586 2.015553614847262e-16 2.7721149907834586 2.7721149907834586 2.7721149907834586 1.5627472854779018e-16 1.5453586973513432e-17 2.7721149907834586 2.7721149907834586" Properties=species:S:1:pos:R:3:forces:R:3 n_minim_iter=1 energy=-326.3323164469648 stress="0.02187232642210887 5.275409251002166e-17 9.44944116469268e-17 5.275409251002166e-17 0.02187232642210886 1.1551635237702803e-18 9.44944116469268e-17 1.1551635237702803e-18 0.02187232642210891" free_energy=-326.3323164469648 pbc="T T T"
Si       0.00000000      -0.00000000       0.00000000      -0.00000000       0.00000000       0.00000000
Si       1.38605750       1.38605750       1.38605750       0.00000000      -0.00000000      -0.00000000
