2
Lattice="2.898290347032625 2.107293386190865e-16 2.898290347032625 2.898290347032625 2.898290347032625 1.6338771614491958e-16 1.6156971157861237e-17 2.898290347032625 2.898290347032625" Properties=species:S:1:pos:R:3:forces:R:3 n_minim_iter=1 energy=-326.1155525430688 stress="0.060002968225195255 3.066713771762997e-17 8.673815257567575e-17 3.066713771762997e-17 0.06000296822519511 1.0645515503958268e-16 8.673815257567575e-17 1.0645515503958268e-16 0.06000296822519519" free_energy=-326.1155525430688 pbc="T T T"
Si       0.00000000      -0.00000000       0.00000000       0.00000000       0.00000000       0.00000000
Si       1.44914517       1.44914517       1.44914517      -0.00000000      -0.00000000      -0.00000000
