2
Lattice="2.5579936254845563 -1.5547121647333382e-17 2.5579936254845563 2.5579936254845563 2.5579936254845563 1.4420388792623614e-16 -1.9399319794434586e-16 2.5579936254845563 2.5579936254845563" Properties=species:S:1:pos:R:3:forces:R:3 n_minim_iter=1 energy=-326.0034163199479 stress="-0.13071686117441558 -2.931007968244525e-16 -4.0899652930166207e-17 -2.931007968244525e-16 -0.1307168611744158 -3.6726572932971823e-16 -4.0899652930166207e-17 -3.6726572932971823e-16 -0.1307168611744157" free_energy=-326.0034163199479 pbc="T T T"
Si       0.00000000      -0.00000000       0.00000000      -0.00000000      -0.00000000      -0.00000000
Si       1.27899681       1.27899681       1.27899681       0.00000000       0.00000000       0.00000000
