2
Lattice="4.437515392201165 2.4359680007490514e-17 -1.7668226724047492e-16 2.4359680007490267e-17 4.437515392201165 2.568299934811216e-16 2.2187576961005826 2.2187576961005826 1.2068842367487087" Properties=species:S:1:pos:R:3 cutoff=-1.0 nneightol=1.2 n_minim_iter=1 energy=-324.90381599315873 free_energy=-324.90381599315873 pbc="T T T"
Si      -0.00000000      -1.10937885      -0.30172106
Si      -0.00000000       1.10937885       0.30172106
