2
Lattice="4.92507485190839 -2.0209494852778175e-17 1.1935978248423621e-16 -2.0209494852778773e-17 4.92507485190839 -2.7468856418923144e-16 2.462537425954195 2.462537425954195 1.3590218866585049" Properties=species:S:1:pos:R:3 cutoff=-1.0 nneightol=1.2 n_minim_iter=1 stress="0.022096818059627175 -2.3611193426003395e-17 -9.764295436238947e-17 -2.3611193426003395e-17 0.0220968180596269 -4.219905349182089e-17 -9.764295436238947e-17 -4.219905349182089e-17 0.023660844121906922" pbc="T T T"
Si      -0.00000000      -1.23126871      -0.33975547
Si      -0.00000000       1.23126871       0.33975547
