2
Lattice="4.576276746971653 2.5121408565222538e-17 -1.8220713162951968e-16 2.5121408565222134e-17 4.576276746971654 2.6486108175718045e-16 2.2881383734858267 2.288138373485827 1.2446235744052552" Properties=species:S:1:pos:R:3 cutoff=-1.0 nneightol=1.2 n_minim_iter=2 stress="-0.12205299252386304 4.643821749769678e-17 -4.040436773276128e-17 4.643821749769678e-17 -0.12205299252386267 -6.90457745313381e-18 -4.040436773276128e-17 -6.90457745313381e-18 -0.12204027287150705" pbc="T T T"
Si      -0.00000000      -1.14406919      -0.31115589
Si      -0.00000000       1.14406919       0.31115589
