10
Lattice="6.588674942750602 0.18720954923324926 -1.581505440621337e-17 -3.1792056874132797 4.521909828135841 -3.819980528224514e-16 1.091787645896966e-22 4.945994854752745e-16 5.854830700666796" Properties=species:S:1:pos:R:3:forces:R:3 unique_starting_index=14 config_type=initial n_minim_iter=1 energy=-1627.110176624134 stress="5.6629121550358804e-05 3.210665538528243e-05 1.7143160154044753e-16 3.210665538528243e-05 5.029503013116553e-05 1.9003870924477325e-16 1.7143160154044753e-16 1.9003870924477325e-16 -8.312966777132104e-05" free_energy=-1627.110176624134 pbc="T T T"
Si      -0.36491315       2.44241939       0.24745405       0.02939996       0.01985841      -0.00259894
Si       3.77438240       2.26669999       0.24745405      -0.02939996      -0.01985841      -0.00259894
Si       1.20842130      -0.06480129       0.69126589      -0.00806826      -0.03803924       0.02273518
Si       2.20104795       4.77392067       0.69126589       0.00806826       0.03803924       0.02273518
Si       2.40280370       0.93045699       4.60671218      -0.00291052       0.00709904      -0.07124361
Si       1.00666555       3.77866239       4.60671218       0.00291052      -0.00709904      -0.07124361
Si       0.94529957       3.24495458       2.18141971      -0.00079542       0.00154943       0.04371684
Si       2.46416968       1.46416480       2.18141971       0.00079542      -0.00154943       0.04371684
Si      -1.42750630       3.51584784       3.01174081       0.01686581      -0.00534006       0.00739052
Si       4.83697556       1.19327154       3.01174081      -0.01686581       0.00534006       0.00739052
10
Lattice="6.5838591568617275 0.18440339437414655 -1.557799824777665e-17 -3.1787626000309817 4.520317152528324 -3.818635079724189e-16 1.0934841276591747e-22 4.951222858737067e-16 5.861019357577625" Properties=species:S:1:pos:R:3:forces:R:3 unique_starting_index=14 config_type=initial n_minim_iter=2 energy=-1627.111291086887 stress="-0.00014147433954075456 0.00021541624726013667 7.917082665219223e-17 0.00021541624726013667 -0.0002597739525066444 -1.7368061252652788e-17 7.917082665219223e-17 -1.7368061252652788e-17 -5.497231672951548e-06" free_energy=-1627.111291086887 pbc="T T T"
Si      -0.36354865       2.44242444       0.24752978       0.02845093       0.02449442       0.00183081
Si       3.76864520       2.26229610       0.24752978      -0.02845093      -0.02449442       0.00183081
Si       1.20700368      -0.06796775       0.69362223       0.01556825      -0.02631885       0.01061448
Si       2.19809287       4.77268829       0.69362223      -0.01556825       0.02631885       0.01061448
Si       2.40048794       0.92938961       4.60648734      -0.01277713       0.00042686      -0.02680470
Si       1.00460861       3.77533093       4.60648734       0.01277713      -0.00042686      -0.02680470
Si       0.94323963       3.24260659       2.18685144       0.00627200      -0.00549581       0.00386725
Si       2.46185693       1.46211396       2.18685144      -0.00627200       0.00549581       0.00386725
Si      -1.42670906       3.51380199       3.01545273       0.00858940      -0.00047041       0.01049217
Si       4.83180561       1.19091856       3.01545273      -0.00858940       0.00047041       0.01049217
10
Lattice="6.583761140063213 0.17597958201657796 -1.486637842234776e-17 -3.184692508375884 4.527208543503825 -3.824456728946416e-16 1.094932774847899e-22 4.9557451003990735e-16 5.866372567370738" Properties=species:S:1:pos:R:3:forces:R:3 unique_starting_index=14 config_type=initial n_minim_iter=3 energy=-1627.111612145683 stress="0.0009425133852481319 -0.00019257004054709976 -2.091911224758069e-17 -0.00019257004054709976 0.0008486456434276749 2.2737144550874274e-17 -2.091911224758069e-17 2.2737144550874274e-17 0.00040416784249844013" free_energy=-1627.111612145683 pbc="T T T"
Si      -0.36425516       2.44618983       0.24764509       0.01385957       0.02840059       0.01054795
Si       3.76332379       2.25699829       0.24764509      -0.01385957      -0.02840059       0.01054795
Si       1.20702526      -0.07251402       0.69588922       0.02964406      -0.02716882      -0.00123914
Si       2.19204337       4.77570215       0.69588922      -0.02964406       0.02716882      -0.00123914
Si       2.39884132       0.92728463       4.60573713       0.00026133      -0.02387527       0.01505168
Si       1.00022731       3.77590350       4.60573713      -0.00026133       0.02387527       0.01505168
Si       0.93916312       3.24332662       2.19157703       0.02609995      -0.02527091      -0.03268297
Si       2.45990551       1.45986150       2.19157703      -0.02609995       0.02527091      -0.03268297
Si      -1.43006967       3.51747020       3.01891360       0.00756803      -0.00552755       0.00832248
Si       4.82913830       1.18571792       3.01891360      -0.00756803       0.00552755       0.00832248
10
Lattice="6.5783907987437 0.17461274323390807 -1.4750911675264667e-17 -3.182985731263405 4.525324549584839 -3.822865184828002e-16 1.0946422261991773e-22 4.955002403808687e-16 5.865493399253888" Properties=species:S:1:pos:R:3:forces:R:3 unique_starting_index=14 config_type=initial n_minim_iter=4 energy=-1627.111756627952 stress="-4.599647722801536e-07 -0.00021894039913641225 -9.963756063069032e-17 -0.00021894039913641225 -9.573657819521017e-05 4.1637875820082015e-17 -9.963756063069032e-17 4.1637875820082015e-17 -0.0005120468796641812" free_energy=-1627.111756627952 pbc="T T T"
Si      -0.36373396       2.44551850       0.24763876       0.01430747       0.02339133       0.00759937
Si       3.75913902       2.25441879       0.24763876      -0.01430747      -0.02339133       0.00759937
Si       1.20621574      -0.07358255       0.69618171       0.02936506      -0.02487108      -0.00556416
Si       2.18918933       4.77351984       0.69618171      -0.02936506       0.02487108      -0.00556416
Si       2.39658268       0.92629283       4.60390921      -0.01007051      -0.02062140       0.02204126
Si       0.99882239       3.77364446       4.60390921       0.01007051       0.02062140       0.02204126
Si       0.93794432       3.24120728       2.19173216       0.02632661      -0.02582407      -0.03745268
Si       2.45746074       1.45873002       2.19173216      -0.02632661       0.02582407      -0.03745268
Si      -1.42924796       3.51569680       3.01868772      -0.00008617      -0.00607008       0.01337621
Si       4.82465302       1.18424050       3.01868772       0.00008617       0.00607008       0.01337621
10
Lattice="6.573741845823967 0.17773762384284647 -1.501489257292005e-17 -3.1785186144627655 4.5225363657950535 -3.8205098056936754e-16 1.0962781042902575e-22 4.96015040029973e-16 5.871587347191503" Properties=species:S:1:pos:R:3:forces:R:3 unique_starting_index=14 config_type=initial n_minim_iter=5 energy=-1627.111962301878 stress="-0.0002823221716863186 0.0003407218524061997 -1.50200173606598e-16 0.0003407218524061997 -0.00038895719848256203 -6.389820494294704e-17 -1.50200173606598e-16 -6.389820494294704e-17 0.0002238581019545726" free_energy=-1627.111962301878 pbc="T T T"
Si      -0.36171936       2.44537171       0.24805228       0.01863692       0.02373106       0.00590728
Si       3.75694259       2.25490228       0.24805228      -0.01863692      -0.02373106       0.00590728
Si       1.20591662      -0.07380973       0.69699685       0.03283106      -0.01769601      -0.00122741
Si       2.18930660       4.77408372       0.69699685      -0.03283106       0.01769601      -0.00122741
Si       2.39507859       0.92682405       4.60855988      -0.02224011      -0.01090695       0.01480100
Si       1.00014464       3.77344994       4.60855988       0.02224011       0.01090695       0.01480100
Si       0.93935978       3.24024951       2.19356539       0.01343552      -0.00626338      -0.03341506
Si       2.45586345       1.46002448       2.19356539      -0.01343552       0.00626338      -0.03341506
Si      -1.42635800       3.51389015       3.02215231       0.00127281       0.00262735       0.01393419
Si       4.82158123       1.18638384       3.02215231      -0.00127281      -0.00262735       0.01393419
10
Lattice="6.5586370170713675 0.16895209757375665 -1.4272715888449498e-17 -3.1775339054964817 4.532183697416299 -3.82865959605767e-16 1.0981873951139047e-22 4.966293767024779e-16 5.87885956580328" Properties=species:S:1:pos:R:3:forces:R:3 unique_starting_index=14 config_type=initial n_minim_iter=6 energy=-1627.112830441595 stress="-0.0006283125961027301 0.00027594987671953686 -2.3221779044250974e-17 0.00027594987671953686 -0.0006343131745272939 -3.7358765443187806e-17 -2.3221779044250974e-17 -3.7358765443187806e-17 -6.251948423631061e-05" free_energy=-1627.112830441595 pbc="T T T"
Si      -0.35999617       2.45406199       0.24958591      -0.01000209      -0.00389137      -0.00556440
Si       3.74109928       2.24707380       0.24958591       0.01000209       0.00389137      -0.00556440
Si       1.20852406      -0.08124695       0.69838515      -0.01461327      -0.03102629       0.00630010
Si       2.17257905       4.78238274       0.69838515       0.01461327       0.03102629       0.00630010
Si       2.38587973       0.92195802       4.61420587      -0.02655110      -0.00965014      -0.02996574
Si       0.99522338       3.77917777       4.61420587       0.02655110       0.00965014      -0.02996574
Si       0.93644933       3.23968763       2.19197594      -0.00548002       0.03231688       0.01409342
Si       2.44465378       1.46144816       2.19197594       0.00548002      -0.03231688       0.01409342
Si      -1.42683833       3.51934291       3.02851214       0.00886158      -0.00596460       0.01513661
Si       4.80794144       1.18179288       3.02851214      -0.00886158       0.00596460       0.01513661
10
Lattice="6.551933295119312 0.16082419342827114 -1.358609341670188e-17 -3.1800737882223844 4.539092121683098 -3.834495634482073e-16 1.0999663705022954e-22 4.972053905865521e-16 5.885678137630955" Properties=species:S:1:pos:R:3:forces:R:3 unique_starting_index=14 config_type=initial n_minim_iter=7 energy=-1627.113303586204 stress="-0.0002244723574981599 0.00011400661908200505 -8.809973024622187e-17 0.00011400661908200505 -0.00022586509078797762 1.791129531439141e-18 -8.809973024622187e-17 1.791129531439141e-18 5.0769276566146484e-05" free_energy=-1627.113303586204 pbc="T T T"
Si      -0.35954417       2.45937135       0.25021097      -0.02316723      -0.00829240      -0.00530162
Si       3.73140368       2.24054497       0.25021097       0.02316723       0.00829240      -0.00530162
Si       1.20907507      -0.08766767       0.70068036      -0.01834818      -0.03180394       0.00102708
Si       2.16278444       4.78758399       0.70068036       0.01834818       0.03180394       0.00102708
Si       2.38086902       0.91860048       4.61545174      -0.02210779      -0.02128921      -0.01005732
Si       0.99099048       3.78131584       4.61545174       0.02210779       0.02128921      -0.01005732
Si       0.93294852       3.23972503       2.19511897       0.00081136       0.03306408      -0.00001539
Si       2.43891098       1.46019128       2.19511897      -0.00081136      -0.03306408      -0.00001539
Si      -1.42834908       3.52274968       3.03370920       0.00880066      -0.01148311       0.01434725
Si       4.80020858       1.17716663       3.03370920      -0.00880066       0.01148311       0.01434725
10
Lattice="6.545168002132411 0.1526008622414706 -1.2891409555344027e-17 -3.1826649426371407 4.546545641006287 -3.840792153770385e-16 1.1013865271605363e-22 4.976864277087205e-16 5.89137242043427" Properties=species:S:1:pos:R:3:forces:R:3 unique_starting_index=14 config_type=initial n_minim_iter=8 energy=-1627.113617496908 stress="0.00011166485781458033 -7.317131681245379e-05 -3.112955184020097e-17 -7.317131681245379e-05 0.00011830233038690572 -4.26595647215724e-17 -3.112955184020097e-17 -4.26595647215724e-17 5.7734407518853474e-05" free_energy=-1627.113617496908 pbc="T T T"
Si      -0.35961478       2.46489283       0.25076317      -0.02958477      -0.01118232      -0.00768520
Si       3.72211783       2.23425368       0.25076317       0.02958477       0.01118232      -0.00768520
Si       1.20953762      -0.09471788       0.70272263      -0.02448273      -0.03115984      -0.00276936
Si       2.15296543       4.79386439       0.70272263       0.02448273       0.03115984      -0.00276936
Si       2.37542901       0.91469866       4.61616562      -0.01612507      -0.02912495       0.00811199
Si       0.98707404       3.78444784       4.61616562       0.01612507       0.02912495       0.00811199
Si       0.92960743       3.24050277       2.19732875       0.00849177       0.03039778      -0.01046354
Si       2.43289563       1.45864373       2.19732875      -0.00849177      -0.03039778      -0.01046354
Si      -1.42980263       3.52630625       3.03863518       0.00865857      -0.01881913       0.01280611
Si       4.79230568       1.17284026       3.03863518      -0.00865857       0.01881913       0.01280611
10
Lattice="6.527356340283179 0.13374328927853163 -1.1298374863534368e-17 -3.1875457479503093 4.5653092768317185 -3.8566431354005724e-16 1.1043871264425076e-22 4.987235328839555e-16 5.903649164755319" Properties=species:S:1:pos:R:3:forces:R:3 unique_starting_index=14 config_type=initial n_minim_iter=9 energy=-1627.114167117238 stress="0.0006659696937032931 -0.0003701333658611473 -1.295544376416248e-16 -0.0003701333658611473 0.0006540800544479194 -1.380209044034978e-16 -1.295544376416248e-16 -1.380209044034978e-16 6.988163675968857e-05" free_energy=-1627.114167117238 pbc="T T T"
Si      -0.36064029       2.47890000       0.25176371      -0.02142899      -0.01286053      -0.02112136
Si       3.70045088       2.22015257       0.25176371       0.02142899       0.01286053      -0.02112136
Si       1.20992885      -0.11415495       0.70723040      -0.04237219      -0.02017878      -0.00562417
Si       2.12988174       4.81320752       0.70723040       0.04237219       0.02017878      -0.00562417
Si       2.36044915       0.90369019       4.61771506      -0.00169211      -0.03296538       0.04639399
Si       0.97936143       3.79536237       4.61771506       0.00169211       0.03296538       0.04639399
Si       0.92281910       3.24476733       2.20042972       0.02690647       0.01918102      -0.02522635
Si       2.41699148       1.45428524       2.20042972      -0.02690647      -0.01918102      -0.02522635
Si      -1.43193052       3.53444487       3.05099376       0.00880281      -0.03814152       0.00557788
Si       4.77174111       1.16460769       3.05099376      -0.00880281       0.03814152       0.00557788
10
Lattice="6.518601223501283 0.13257561140471494 -1.1199732668608394e-17 -3.1843624788919347 4.573752531670227 -3.863775756514939e-16 1.102791158148493e-22 4.983506339486849e-16 5.8992349647758635" Properties=species:S:1:pos:R:3:forces:R:3 unique_starting_index=14 config_type=initial n_minim_iter=10 energy=-1627.115954668003 stress="2.7110728792208897e-05 -2.91911436601255e-05 4.682511803002924e-18 -2.91911436601255e-05 -5.8482041551328066e-05 -1.0904465612875515e-16 4.682511803002924e-18 -1.0904465612875515e-16 -1.4164722983178466e-05" free_energy=-1627.115954668003 pbc="T T T"
Si      -0.36342210       2.48492667       0.24983541       0.05287114       0.00291238      -0.04513101
Si       3.69766084       2.22140147       0.24983541      -0.05287114      -0.00291238      -0.04513101
Si       1.20610351      -0.12685088       0.70670224      -0.04342415       0.00841916       0.01292939
Si       2.12813523       4.83317902       0.70670224       0.04342415      -0.00841916       0.01292939
Si       2.35058206       0.89579175       4.61645845      -0.00088716       0.00668468       0.03578343
Si       0.98365668       3.81053639       4.61645845       0.00088716      -0.00668468       0.03578343
Si       0.92597051       3.25548682       2.19283516       0.03628101      -0.00795503       0.00441236
Si       2.40826823       1.45084132       2.19283516      -0.03628101       0.00795503       0.00441236
Si      -1.42766870       3.53499275       3.05420511       0.00968844      -0.04275607      -0.00799417
Si       4.76190744       1.17133540       3.05420511      -0.00968844       0.04275607      -0.00799417
10
Lattice="6.489998640194195 0.11753780646751258 -9.929380996416893e-18 -3.1816308532937394 4.600119266027713 -3.8860496211845647e-16 1.1037806823616314e-22 4.987069418991609e-16 5.90345275908889" Properties=species:S:1:pos:R:3:forces:R:3 unique_starting_index=14 config_type=initial n_minim_iter=11 energy=-1627.116976585087 stress="-0.0005031735229548181 0.00032339820500964974 2.0286226057872662e-17 0.00032339820500964974 -0.0007188241338570512 -1.0855555135156029e-17 2.0286226057872662e-17 -1.0855555135156029e-17 7.12380172808577e-05" free_energy=-1627.116976585087 pbc="T T T"
Si      -0.36367596       2.50478036       0.24598856       0.10918137      -0.00115267      -0.06533579
Si       3.67204374       2.21287671       0.24598856      -0.10918137       0.00115267      -0.06533579
Si       1.19953427      -0.15665010       0.71025317      -0.04484797       0.04390518       0.03600213
Si       2.10883351       4.87430717       0.71025317       0.04484797      -0.04390518       0.03600213
Si       2.32585473       0.87892805       4.61842381      -0.00587631       0.03068798       0.02485010
Si       0.98251306       3.83872902       4.61842381       0.00587631      -0.03068798       0.02485010
Si       0.92636734       3.27218210       2.18588444       0.03823794      -0.01997262       0.03665779
Si       2.38200045       1.44547497       2.18588444      -0.03823794       0.01997262       0.03665779
Si      -1.42233275       3.54109429       3.06722244       0.01697498      -0.04765625      -0.03217423
Si       4.73070053       1.17656279       3.06722244      -0.01697498       0.04765625      -0.03217423
10
Lattice="6.474339182896636 0.1111518993072581 -9.38991752489041e-18 -3.179237510937347 4.627570774568931 -3.909239875817138e-16 1.0997825888042269e-22 4.974713697319851e-16 5.888826649208882" Properties=species:S:1:pos:R:3:forces:R:3 unique_starting_index=14 config_type=initial n_minim_iter=12 energy=-1627.120789832386 stress="-6.551593819227262e-05 0.00018827453516805158 4.717834113572534e-17 0.00018827453516805158 -4.928879933263264e-05 1.688425667505459e-16 4.717834113572534e-17 1.688425667505459e-16 0.000562258064710419" free_energy=-1627.120789832386 pbc="T T T"
Si      -0.35599838       2.52032825       0.23311273       0.02758928      -0.02891574      -0.01256050
Si       3.65110004       2.21839442       0.23311273      -0.02758928       0.02891574      -0.01256050
Si       1.18462540      -0.17113098       0.71315892       0.06772753       0.00425175       0.04297769
Si       2.11047627       4.90985365       0.71315892      -0.06772753      -0.00425175       0.04297769
Si       2.31141701       0.87264597       4.61340363      -0.02863022      -0.03218358      -0.01979581
Si       0.98368466       3.86607671       4.61340363       0.02863022       0.03218358      -0.01979581
Si       0.93330199       3.29315297       2.17801976       0.01848822      -0.01205047       0.04146039
Si       2.36179967       1.44556971       2.17801976      -0.01848822       0.01205047       0.04146039
Si      -1.41589621       3.54476362       3.06325100       0.02977324      -0.00492037      -0.05208176
Si       4.71099788       1.19395905       3.06325100      -0.02977324       0.00492037      -0.05208176
10
Lattice="6.4378163181899755 0.08421728229081207 -7.11455668674762e-18 -3.181192094468034 4.666008479024055 -3.9417109518746274e-16 1.102090388365347e-22 4.981118254650227e-16 5.896408046350602" Properties=species:S:1:pos:R:3:forces:R:3 unique_starting_index=14 config_type=initial n_minim_iter=13 energy=-1627.122050656241 stress="-1.2472136980681398e-05 -0.00014028880222962696 -1.6357884423613284e-16 -0.00014028880222962696 0.0001439101547521864 -8.347692064076009e-17 -1.6357884423613284e-16 -8.347692064076009e-17 0.0003424305980274597" free_energy=-1627.122050656241 pbc="T T T"
Si      -0.35144458       2.54744477       0.22729965      -0.00221447      -0.07066436      -0.00097238
Si       3.60806880       2.20278099       0.22729965       0.00221447       0.07066436      -0.00097238
Si       1.17859811      -0.20548458       0.72127269       0.06866430       0.01728945       0.04561393
Si       2.07802611       4.95571035       0.72127269      -0.06866430      -0.01728945       0.04561393
Si       2.28232280       0.85417006       4.61256745      -0.03792363      -0.06547947      -0.01021666
Si       0.97430142       3.89605570       4.61256745       0.03792363       0.06547947      -0.01021666
Si       0.92891425       3.30865070       2.17713282       0.01229399      -0.00226164       0.03644106
Si       2.32770997       1.44157507       2.17713282      -0.01229399       0.00226164       0.03644106
Si      -1.41294303       3.55603204       3.07657880       0.03656634       0.00204207      -0.07086596
Si       4.66956725       1.19419372       3.07657880      -0.03656634      -0.00204207      -0.07086596
10
Lattice="6.455121095338162 0.09548384417040261 -8.066324318259927e-18 -3.181507694216048 4.655380362601389 -3.9327326184172553e-16 1.0979761971175142e-22 4.967720841655497e-16 5.880548831125959" Properties=species:S:1:pos:R:3:forces:R:3 unique_starting_index=14 config_type=initial n_minim_iter=14 energy=-1627.123719032547 stress="0.00070649473108021 -3.774132098742838e-05 -1.1731468526234434e-16 -3.774132098742838e-05 -5.637867692904302e-05 9.236559571448724e-17 -1.1731468526234434e-16 9.236559571448724e-17 -0.0009561230348681505" free_energy=-1627.123719032547 pbc="T T T"
Si      -0.34611199       2.53714954       0.22566353      -0.04757548      -0.06264881       0.00676642
Si       3.61972539       2.21371467       0.22566353       0.04757548       0.06264881       0.00676642
Si       1.18338271      -0.19271544       0.72229082       0.04656325      -0.00817714       0.01801398
Si       2.09023069       4.94357965       0.72229082      -0.04656325       0.00817714       0.01801398
Si       2.29248190       0.86010495       4.59920778      -0.02557991      -0.07778239       0.03375942
Si       0.98113150       3.89075925       4.59920778       0.02557991       0.07778239       0.03375942
Si       0.93470530       3.30420728       2.17880081       0.00152267       0.00483125      -0.01084670
Si       2.33890809       1.44665693       2.17880081      -0.00152267      -0.00483125      -0.01084670
Si      -1.41042404       3.55196627       3.05980042       0.02463518      -0.00471253      -0.04769311
Si       4.68403744       1.19889794       3.05980042      -0.02463518       0.00471253      -0.04769311
10
Lattice="6.394787712005257 0.0749401887733778 -6.3308537818865665e-18 -3.1687196690293913 4.733685861081299 -3.998882889670863e-16 1.089994328213428e-22 4.943307771379903e-16 5.85164982310917" Properties=species:S:1:pos:R:3:forces:R:3 unique_starting_index=14 config_type=initial n_minim_iter=15 energy=-1627.130961730081 stress="0.0004620414357148092 0.00040182303502724206 -1.5984737393820215e-16 0.00040182303502724206 -7.632959393125757e-06 -1.3785156159162292e-16 -1.5984737393820215e-16 -1.3785156159162292e-16 -0.001880854298984217" free_energy=-1627.130961730081 pbc="T T T"
Si      -0.33191088       2.57359395       0.20208374       0.00642257      -0.07351100      -0.01441542
Si       3.55797892       2.23503210       0.20208374      -0.00642257       0.07351100      -0.01441542
Si       1.17062656      -0.24788333       0.74030096       0.01040480       0.02270520       0.01865059
Si       2.05544148       5.05650938       0.74030096      -0.01040480      -0.02270520       0.01865059
Si       2.23507116       0.82000354       4.57964305      -0.02261165      -0.08668717       0.05809066
Si       0.99099688       3.98862250       4.57964305       0.02261165       0.08668717       0.05809066
Si       0.94898042       3.36064535       2.16428932      -0.02802662      -0.05427887      -0.02523539
Si       2.27708762       1.44798070       2.16428932       0.02802662       0.05427887      -0.02523539
Si      -1.38261252       3.57008754       3.04644139       0.01387598       0.04602833      -0.03709044
Si       4.60868055       1.23853851       3.04644139      -0.01387598      -0.04602833      -0.03709044
10
Lattice="6.348519498442998 0.05953492832588356 -5.029460336292223e-18 -3.158395348728943 4.783957755091335 -4.041351164916628e-16 1.0877212923533516e-22 4.937117213929567e-16 5.844321744958051" Properties=species:S:1:pos:R:3:forces:R:3 unique_starting_index=14 config_type=initial n_minim_iter=16 energy=-1627.135765024652 stress="0.00021891802006365974 0.0007602172190333956 -4.245186055978476e-16 0.0007602172190333956 0.00040665806593670874 -8.43668187439891e-17 -4.245186055978476e-16 -8.43668187439891e-17 -0.0011345226374488363" free_energy=-1627.135765024652 pbc="T T T"
Si      -0.32363477       2.58505133       0.18598227       0.04739690      -0.05399363      -0.04345517
Si       3.51375892       2.25844135       0.18598227      -0.04739690       0.05399363      -0.04345517
Si       1.16631839      -0.27294066       0.75616031      -0.06026222       0.02458827       0.00763633
Si       2.02380576       5.11643334       0.75616031       0.06026222      -0.02458827       0.00763633
Si       2.19576202       0.78884339       4.58243159      -0.01971080      -0.08056853       0.03316889
Si       0.99436213       4.05464930       4.58243159       0.01971080       0.08056853       0.03316889
Si       0.95441598       3.39246472       2.16167014      -0.06559664      -0.08200817      -0.01267106
Si       2.23570816       1.45102797       2.16167014       0.06559664       0.08200817      -0.01267106
Si      -1.36364184       3.58304769       3.03307343       0.00176445       0.09588321       0.01532100
Si       4.55376598       1.26044500       3.03307343      -0.00176445      -0.09588321       0.01532100
10
Lattice="6.342069128250426 0.05196055195454713 -4.389598208600063e-18 -3.160345158484694 4.7791667031589995 -4.037303816103323e-16 1.0920201642411302e-22 4.950116703873917e-16 5.859709908848781" Properties=species:S:1:pos:R:3:forces:R:3 unique_starting_index=14 config_type=initial n_minim_iter=17 energy=-1627.138476760552 stress="-0.0003072314964093743 0.0003376340819570312 -2.799810901522758e-16 0.0003376340819570312 -0.0006430069179149825 -6.127963471016599e-17 -2.799810901522758e-16 -6.127963471016599e-17 -0.00012805621515231356" free_energy=-1627.138476760552 pbc="T T T"
Si      -0.32704606       2.56859702       0.18532564       0.05907566      -0.01845737      -0.04734886
Si       3.50877003       2.26253023       0.18532564      -0.05907566       0.01845737      -0.04734886
Si       1.16944340      -0.26058139       0.76052675      -0.09007415      -0.01139466      -0.01021786
Si       2.01228057       5.09170864       0.76052675       0.09007415       0.01139466      -0.01021786
Si       2.19364918       0.78172600       4.60038790      -0.01494149      -0.07326304      -0.00048743
Si       0.98807479       4.04940126       4.60038790       0.01494149       0.07326304      -0.00048743
Si       0.94658839       3.38138179       2.17080987      -0.09310488      -0.08028432       0.00089524
Si       2.23513557       1.44974547       2.17080987       0.09310488       0.08028432       0.00089524
Si      -1.36615428       3.58302474       3.03049166      -0.00593053       0.07405120       0.05715891
Si       4.54787825       1.24810251       3.03049166       0.00593053      -0.07405120       0.05715891
10
Lattice="6.290870146137896 0.007844340734799615 -6.627845722548263e-19 -3.167521020553134 4.835584704663635 -4.084964132001937e-16 1.0977631738879516e-22 4.965641796854742e-16 5.8780877497301685" Properties=species:S:1:pos:R:3:forces:R:3 unique_starting_index=14 config_type=initial n_minim_iter=18 energy=-1627.140926684204 stress="-0.0009448548371133617 -0.000413608587232756 2.238552440743194e-17 -0.000413608587232756 0.0010341124302144088 6.073660740031617e-18 2.238552440743194e-17 6.073660740031617e-18 0.00218613750181107" free_energy=-1627.140926684204 pbc="T T T"
Si      -0.32533430       2.58376945       0.17151372       0.03834026      -0.02727474      -0.03883998
Si       3.44868342       2.25965960       0.17151372      -0.03834026       0.02727474      -0.03883998
Si       1.16047680      -0.29103942       0.77620962      -0.07861481      -0.01298662       0.00085234
Si       1.96287232       5.13446846       0.77620962       0.07861481       0.01298662       0.00085234
Si       2.15443714       0.74395612       4.61716092      -0.01706026      -0.09439464      -0.01545819
Si       0.96891198       4.09947292       4.61716092       0.01706026       0.09439464      -0.01545819
Si       0.92946998       3.39593246       2.17798104      -0.09944275      -0.06371940      -0.01676305
Si       2.19387914       1.44749659       2.17798104       0.09944275       0.06371940      -0.01676305
Si      -1.36515296       3.60484789       3.03838408      -0.02935758       0.08124499       0.07020888
Si       4.48850208       1.23858115       3.03838408       0.02935758      -0.08124499       0.07020888
10
Lattice="6.334887762374332 0.002340929236253647 -1.9787306481209862e-19 -3.1922921429669975 4.826941380199237 -4.0776624953345287e-16 1.0906951012240924e-22 4.943536996064043e-16 5.851921156888469" Properties=species:S:1:pos:R:3:forces:R:3 unique_starting_index=14 config_type=initial n_minim_iter=19 energy=-1627.147964272932 stress="0.0008975695742137086 -0.0007347908193475181 -1.1964890924998192e-16 -0.0007347908193475181 0.0016768086649273288 1.1958456681283336e-17 -1.1964890924998192e-16 1.1958456681283336e-17 0.001426120640161168" free_energy=-1627.147964272932 pbc="T T T"