14
Lattice="6.736811332795927 1.6352432849548562 -1.2094682769254663 -1.2736311644895593 6.814434153741544 1.2094675972213427 -4.275797288613491 -3.226423585761826 5.375213394163673" Properties=species:S:1:pos:R:3:forces:R:3 unique_starting_index=10 config_type=initial n_minim_iter=1 energy=-2277.798311675394 stress="-0.00023017678298647664 0.00019871252051109297 5.110721787650431e-05 0.00019871252051109297 -5.131480915714444e-05 -3.304363607605393e-05 5.110721787650431e-05 -3.304363607605393e-05 -0.00010980475047748011" free_energy=-2277.798311675394 pbc="T T T"
Si       2.06954474       4.73657830       2.94094007       0.00356527      -0.01818444      -0.01419171
Si      -0.80584400       0.60471327       2.43427264      -0.01804566      -0.00421179       0.01419172
Si       0.49696195       2.74094139       2.98193754       0.05103408      -0.02403588      -0.02542145
Si       3.48290203       6.80132883       2.39327483      -0.04286300       0.03667374       0.02542145
Si      -1.01744988      -2.42133395       4.51714538      -0.00356527       0.01818444       0.01419171
Si      -0.60307518       3.30171139       0.85806769       0.01804566       0.00421179      -0.01419172
Si       0.55513291      -0.42569703       4.47614791      -0.05103408       0.02403588       0.02542145
Si       0.57135896       5.55477326       0.89906482       0.04286300      -0.03667374      -0.02542145
Si       4.03331292       6.23816022      -0.00000050       0.00362622       0.00560853      -0.00000000
Si      -2.83987771      -1.00554546       5.37521322      -0.00556563      -0.00860813       0.00000000
Si       0.02094807       6.11794187       3.29234015      -0.00362622      -0.00560853       0.00000000
Si      -2.84483877       1.68554653       3.29234050       0.00556563       0.00860813      -0.00000000
Si       2.59181447       1.30988844       2.08287239      -0.00082593      -0.00127743       0.00000000
Si       2.73607768       4.23177950      -0.00000034       0.00082593       0.00127743      -0.00000000
14
Lattice="6.741147663413634 1.6308840267389182 -1.2108929667822472 -1.2793860364686243 6.816599412021976 1.2108922872546122 -4.277878326955547 -3.22352249769323 5.377577152953483" Properties=species:S:1:pos:R:3:forces:R:3 unique_starting_index=10 config_type=initial n_minim_iter=2 energy=-2277.798481444852 stress="0.0006004616498524979 -0.0003445483546884421 -6.83768242626518e-05 -0.0003445483546884421 0.00029033222594755296 4.420941948740515e-05 -6.83768242626518e-05 4.420941948740515e-05 0.0006915657436658585" free_energy=-2277.798481444852 pbc="T T T"
Si       2.06752482       4.73608019       2.94199518       0.00175141      -0.01863436      -0.01762032
Si      -0.80755029       0.60556795       2.43558128      -0.01771153      -0.00605050       0.01762032
Si       0.49572991       2.74107082       2.98289579       0.05179921      -0.02739239      -0.02212244
Si       3.48002611       6.80096553       2.39468034      -0.04623783       0.03599394       0.02212244
Si      -1.01744725      -2.42030934       4.51892355      -0.00175141       0.01863436       0.01762032
Si      -0.60564149       3.30284137       0.85865327       0.01771153       0.00605050      -0.01762032
Si       0.55434766      -0.42529996       4.47802295      -0.05179921       0.02739239       0.02212244
Si       0.56854375       5.55492723       0.89955353       0.04623783      -0.03599394      -0.02212244
Si       4.03231744       6.23662055      -0.00000050       0.00571117       0.00883324      -0.00000000
Si      -2.84241108      -1.00334398       5.37757697      -0.00867177      -0.01341227       0.00000000
Si       0.01625241       6.11927221       3.29423437      -0.00571117      -0.00883324       0.00000000
Si      -2.84865902       1.68823081       3.29423473       0.00867177       0.01341227      -0.00000000
Si       2.59257685       1.30859441       2.08334192      -0.00151084      -0.00233675       0.00000000
Si       2.73537904       4.23069894      -0.00000034       0.00151084       0.00233675      -0.00000000
14
Lattice="6.741710774913489 1.625148811166124 -1.2109124255964698 -1.2848471041960274 6.814759158919632 1.2109117466782164 -4.277802140590527 -3.218200623725918 5.371974627294932" Properties=species:S:1:pos:R:3:forces:R:3 unique_starting_index=10 config_type=initial n_minim_iter=3 energy=-2277.79916571726 stress="-4.309331442296347e-05 -0.0008017839331345295 -0.000367254258595692 -0.0008017839331345295 -0.0007647823698015119 0.00023745011413398723 -0.000367254258595692 0.00023745011413398723 -0.00026813928114194444" free_energy=-2277.79916571726 pbc="T T T"
Si       2.06400173       4.73208278       2.93811172      -0.00304786      -0.00941763      -0.02152850
Si      -0.80967346       0.60603655       2.43386222      -0.00733711      -0.00664438       0.02152851
Si       0.49574974       2.73873129       2.97854960       0.04554565      -0.02837522      -0.01414419
Si       3.47306278       6.79776988       2.39342400      -0.04456759       0.02988794       0.01414419
Si      -1.01720179      -2.41687833       4.51439350       0.00304786       0.00941763       0.02152850
Si      -0.60743524       3.30221972       0.85758080       0.00733711       0.00664438      -0.02152851
Si       0.55105019      -0.42352683       4.47395561      -0.04554565       0.02837522       0.01414419
Si       0.56669219       5.55039436       0.89801834       0.04456759      -0.02988794      -0.01414419
Si       4.02891305       6.23135512      -0.00000050       0.01364558       0.02110506      -0.00000000
Si      -2.84394585      -1.00051370       5.37197445      -0.01494431      -0.02311375       0.00000000
Si       0.01084192       6.11680912       3.29144284      -0.01364558      -0.02110506       0.00000000
Si      -2.85096500       1.69056935       3.29144320       0.01494431       0.02311375      -0.00000000
Si       2.59162510       1.30642132       2.08053093      -0.00267529      -0.00413777       0.00000000
Si       2.73297697       4.22698376      -0.00000034       0.00267529       0.00413777      -0.00000000
14
Lattice="6.7571684026544485 1.6274776855729483 -1.2038633832319716 -1.2890672708728907 6.82981080616801 1.2038627029156044 -4.284815295102871 -3.22598931454047 5.351911933258674" Properties=species:S:1:pos:R:3:forces:R:3 unique_starting_index=10 config_type=initial n_minim_iter=4 energy=-2277.801332895338 stress="0.0003480634976753853 0.0006906019176209805 -0.0006229356001717051 0.0006906019176209805 0.0009696773238405833 0.0004027618338698489 -0.0006229356001717051 0.0004027618338698489 -0.001285240649498447" free_energy=-2277.801332895338 pbc="T T T"
Si       2.07009850       4.73601532       2.92275441      -0.02433376       0.02985834      -0.01343823
Si      -0.81560266       0.60542147       2.42915684       0.03721461      -0.00993606       0.01343823
Si       0.51256601       2.73640675       2.96050223       0.01386918      -0.02321259       0.00748007
Si       3.46826586       6.82174252       2.39140868      -0.02685961       0.00312081      -0.00748007
Si      -1.01766139      -2.41829407       4.50318129       0.02433376      -0.02985834       0.01343823
Si      -0.60431334       3.31081141       0.84873031      -0.03721461       0.00993606      -0.01343823
Si       0.53987110      -0.41868550       4.46543347      -0.01386918       0.02321259      -0.00748007
Si       0.57991927       5.55177885       0.88647779       0.02685961      -0.00312081       0.00748007
Si       4.03862061       6.24636940      -0.00000050      -0.00373989      -0.00578434       0.00000000
Si      -2.85003079      -1.00686677       5.35191176       0.00325412       0.00503302      -0.00000000
Si       0.00956453       6.12715197       3.27788697       0.00373989       0.00578434      -0.00000000
Si      -2.85470050       1.69711034       3.27788733      -0.00325412      -0.00503302       0.00000000
Si       2.59832252       1.30751967       2.07402411      -0.00445592      -0.00689179       0.00000000
Si       2.73892988       4.23619089      -0.00000034       0.00445592       0.00689179      -0.00000000
14
Lattice="6.752740678261793 1.6227441084080643 -1.1983954977208806 -1.2915666811893258 6.823830467250506 1.1983948182663562 -4.2754235457373815 -3.2244652513539482 5.353703653879639" Properties=species:S:1:pos:R:3:forces:R:3 unique_starting_index=10 config_type=initial n_minim_iter=5 energy=-2277.802019240745 stress="-0.00038901828094183136 0.00021037035074051026 9.542799986885651e-06 0.00021037035074051026 -0.0001996630373255611 -6.1699645111977135e-06 9.542799986885651e-06 -6.1699645111977135e-06 -0.0003200681737707018" free_energy=-2277.802019240745 pbc="T T T"
Si       2.06985662       4.72754787       2.92288794      -0.01897965       0.03469072       0.00565210
Si      -0.81383314       0.60324988       2.43081503       0.03942392      -0.00307040      -0.00565210
Si       0.51741378       2.72978247       2.95999374      -0.00628238      -0.02421736      -0.00074988
Si       3.46270022       6.81425473       2.39370888      -0.01950558      -0.01566783       0.00074988
Si      -1.01074110      -2.41794275       4.50846929       0.01897965      -0.03469072      -0.00565210
Si      -0.60436848       3.30807638       0.84523404      -0.03942392       0.00307040       0.00565210
Si       0.54170174      -0.42017735       4.47136348       0.00628238       0.02421736       0.00074988
Si       0.58027216       5.54364611       0.88233950       0.01950558       0.01566783      -0.00074988
Si       4.03380446       6.23892047      -0.00000050       0.00571904       0.00884540      -0.00000000
Si      -2.84289568      -1.00883296       5.35370348      -0.00248309      -0.00384050       0.00000000
Si       0.00916792       6.11898036       3.27604889      -0.00571904      -0.00884540       0.00000000
Si      -2.85072948       1.69569397       3.27604924       0.00248309       0.00384050      -0.00000000
Si       2.59897775       1.30308951       2.07765391       0.00130882       0.00202429      -0.00000000
Si       2.73556132       4.23098086      -0.00000034      -0.00130882      -0.00202429       0.00000000
14
Lattice="6.755775064862559 1.6189587430835706 -1.198614702312457 -1.2962638948992482 6.8250440058594535 1.1986140230648137 -4.275824576703939 -3.2223824948029343 5.355889445146396" Properties=species:S:1:pos:R:3:forces:R:3 unique_starting_index=10 config_type=initial n_minim_iter=6 energy=-2277.802253025162 stress="0.00040126316669205644 -0.0003039382137672098 -5.8811882146928886e-06 -0.0003039382137672098 0.00012768709191241697 3.8025587884266533e-06 -5.8811882146928886e-06 3.8025587884266533e-06 0.0005261125045514851" free_energy=-2277.802253025162 pbc="T T T"
Si       2.06781223       4.72799384       2.92451599      -0.01452272       0.02203712       0.00170742
Si      -0.81298847       0.60365138       2.43137277       0.02605592      -0.00419920      -0.00170742
Si       0.51519636       2.72922633       2.96161670      -0.00067826      -0.02356486      -0.00625160
Si       3.46103926       6.81151535       2.39427172      -0.02121052      -0.01028962       0.00625160
Si      -1.00902818      -2.41908613       4.51001032       0.01452272      -0.02203712      -0.00170742
Si      -0.60817797       3.30868008       0.84587879      -0.02605592       0.00419920       0.00170742
Si       0.54358769      -0.42031863       4.47290961       0.00067826       0.02356486       0.00625160
Si       0.57730547       5.54481885       0.88297917       0.02121052       0.01028962      -0.00625160
Si       4.03267528       6.23717401      -0.00000050       0.00671484       0.01038557      -0.00000000
Si      -2.84370440      -1.00738075       5.35588927      -0.00555985      -0.00859919       0.00000000
Si       0.00566945       6.11916019       3.27725139      -0.00671484      -0.01038557       0.00000000
Si      -2.85328662       1.69732971       3.27725174       0.00555985       0.00859919      -0.00000000
Si       2.59993684       1.30168513       2.07863720       0.00082937       0.00128275      -0.00000000
Si       2.73467179       4.22960507      -0.00000034      -0.00082937      -0.00128275       0.00000000
14
Lattice="6.759760202279571 1.6155470881044829 -1.1916488525659703 -1.3010105134136627 6.82727790915353 1.1916481734130673 -4.272975371933298 -3.223389617467138 5.344427326595962" Properties=species:S:1:pos:R:3:forces:R:3 unique_starting_index=10 config_type=initial n_minim_iter=7 energy=-2277.802969288301 stress="0.00017178386577922997 -3.888171206897496e-05 6.997267729073765e-05 -3.888171206897496e-05 0.00013678625942714515 -4.5241176537624806e-05 6.997267729073765e-05 -4.5241176537624806e-05 0.00010312414203840397" free_energy=-2277.802969288301 pbc="T T T"
Si       2.06647806       4.72936052       2.91754005      -0.00614624       0.00162125       0.00414251
Si      -0.80834543       0.60198851       2.42688659       0.00400086      -0.00493941      -0.00414251
Si       0.52043734       2.72207995       2.95268673      -0.00838523      -0.00701021      -0.01809535
Si       3.45445925       6.81117685       2.39173957      -0.00295130      -0.01052354       0.01809535
Si      -1.00199875      -2.42455265       4.50327600       0.00614624      -0.00162125      -0.00414251
Si      -0.61396009       3.31066189       0.84115099      -0.00400086       0.00493941       0.00414251
Si       0.54404197      -0.41727208       4.46812932       0.00838523       0.00701021       0.01809535
Si       0.58198491       5.54429856       0.87629733       0.00295130       0.01052354      -0.01809535
Si       4.03341877       6.23832393      -0.00000050       0.00291176       0.00450351      -0.00000000
Si      -2.84221483      -1.01049077       5.34442715      -0.00317704      -0.00491380       0.00000000
Si       0.00302540       6.11715147       3.26803740      -0.00291176      -0.00450351       0.00000000
Si      -2.85306606       1.69975156       3.26803776       0.00317704       0.00491380      -0.00000000
Si       2.60320123       1.29923944       2.07638907       0.00052698       0.00081505      -0.00000000
Si       2.73425345       4.22895805      -0.00000034      -0.00052698      -0.00081505       0.00000000
14
Lattice="6.7600868540483665 1.6142221944549848 -1.190912686491095 -1.3023527481709547 6.827032042110414 1.190912007464546 -4.272526798733284 -3.2225659494078327 5.3423882731667645" Properties=species:S:1:pos:R:3:forces:R:3 unique_starting_index=10 config_type=initial n_minim_iter=8 energy=-2277.803068510936 stress="1.5950344455958058e-05 -1.1495736030446946e-06 3.0473294589407103e-05 -1.1495736030446946e-06 1.4915603001350165e-05 -1.9702663481339522e-05 3.0473294589407103e-05 -1.9702663481339522e-05 -6.297434381768733e-05" free_energy=-2277.803068510936 pbc="T T T"
Si       2.06497078       4.72968590       2.91624344      -0.00304555      -0.00649905       0.00361639
Si      -0.80698155       0.60157123       2.42614414      -0.00467660      -0.00544448      -0.00361639
Si       0.52126494       2.71957003       2.95041424      -0.01058255      -0.00192290      -0.01814338
Si       3.45126379       6.81015436       2.39197301       0.00258962      -0.01043943       0.01814338
Si      -1.00041697      -2.42548304       4.50188211       0.00304555       0.00649905      -0.00361639
Si      -0.61602470       3.31097539       0.84050583       0.00467660       0.00544448       0.00361639
Si       0.54328887      -0.41536717       4.46771132       0.01058255       0.00192290       0.01814338
Si       0.58346407       5.54364649       0.87467628      -0.00258962       0.01043943      -0.01814338
Si       4.03316794       6.23793598      -0.00000050       0.00294141       0.00454936      -0.00000000
Si      -2.84247620      -1.01076514       5.34238810      -0.00312759      -0.00483731       0.00000000
Si       0.00155992       6.11586487       3.26664979      -0.00294141      -0.00454936       0.00000000
Si      -2.85305685       1.70074580       3.26665015       0.00312759       0.00483731      -0.00000000
Si       2.60336028       1.29863533       2.07573762      -0.00001841      -0.00002848       0.00000000
Si       2.73372033       4.22813348      -0.00000034       0.00001841       0.00002848      -0.00000000
14
Lattice="6.7591133620354 1.6133079924862683 -1.1921278225115595 -1.3027868870423593 6.825769118932371 1.1921271436601417 -4.272622263342912 -3.2209606083245843 5.343547091714189" Properties=species:S:1:pos:R:3:forces:R:3 unique_starting_index=10 config_type=initial n_minim_iter=9 energy=-2277.803146024777 stress="-0.00013837277231429116 4.683704604856526e-05 -7.009611058490067e-05 4.683704604856526e-05 -9.621453607109525e-05 4.532098033720706e-05 -7.009611058490067e-05 4.532098033720706e-05 -8.971877320674289e-05" free_energy=-2277.803146024777 pbc="T T T"
Si       2.06260150       4.72983410       2.91682381      -0.00058190      -0.01505357       0.00167998
Si      -0.80596950       0.60107683       2.42672259      -0.01348859      -0.00670869      -0.00167998
Si       0.52106039       2.71699936       2.94912890      -0.01230318       0.00186949      -0.01149049
Si       3.44750044       6.80834103       2.39441717       0.00675408      -0.01045207       0.01149049
Si      -0.99973335      -2.42531318       4.50243240       0.00058190       0.01505357      -0.00167998
Si      -0.61765345       3.31109671       0.84111436       0.01348859       0.00670869       0.00167998
Si       0.54180776      -0.41247843       4.47012732       0.01230318      -0.00186949       0.01149049
Si       0.58520308       5.54290962       0.87341910      -0.00675408       0.01045207      -0.01149049
Si       4.03278424       6.23734253      -0.00000050       0.00343972       0.00532008      -0.00000000
Si      -2.84353769      -1.01065391       5.34354691      -0.00291790      -0.00451299       0.00000000
Si      -0.00008072       6.11390813       3.26783677      -0.00343972      -0.00532008       0.00000000
Si      -2.85270753       1.70186685       3.26783713       0.00291790       0.00451299      -0.00000000
Si       2.60250131       1.29847902       2.07570947      -0.00099932      -0.00154561       0.00000000
Si       2.73298909       4.22700252      -0.00000034       0.00099932       0.00154561      -0.00000000
14
Lattice="6.757565740200756 1.613197179545824 -1.1921202133776219 -1.302252787270073 6.824312358730416 1.1921195346523015 -4.271033754962198 -3.2208762305250325 5.346708573595789" Properties=species:S:1:pos:R:3:forces:R:3 unique_starting_index=10 config_type=initial n_minim_iter=10 energy=-2277.803386895562 stress="-1.4515480835910865e-05 4.020346777384245e-05 -0.0001410869110933994 4.020346777384245e-05 2.1671855980908878e-05 9.122045033102194e-05 -0.0001410869110933994 9.122045033102194e-05 0.00029250241147510864" free_energy=-2277.803386895562 pbc="T T T"
Si       2.06232446       4.72716176       2.91914435      -0.00672664      -0.00939399      -0.00137560
Si      -0.80670422       0.59981183       2.42756354      -0.00580578      -0.00998938       0.00137560
Si       0.51920860       2.71634835       2.94852914      -0.01002643      -0.00256028      -0.00061517
Si       3.44824175       6.80490200       2.39817841       0.00178017      -0.01019389       0.00061517
Si      -0.99860750      -2.42374535       4.50485789       0.00672664       0.00939399       0.00137560
Si      -0.61611081       3.31128363       0.84185035       0.00580578       0.00998938      -0.00137560
Si       0.54450836      -0.41293194       4.47547310       0.01002643       0.00256028       0.00061517
Si       0.58425617       5.54370299       0.87123480      -0.00178017       0.01019389      -0.00061517
Si       4.03248972       6.23688701      -0.00000050       0.00331024       0.00511982      -0.00000000
Si      -2.84265600      -1.01166275       5.34670840      -0.00239274      -0.00370076       0.00000000
Si       0.00000820       6.11171799       3.26941371      -0.00331024      -0.00511982       0.00000000
Si      -2.85119279       1.70188197       3.26941406       0.00239274       0.00370076      -0.00000000
Si       2.60221633       1.29799342       2.07729401      -0.00080955      -0.00125209       0.00000000
Si       2.73253438       4.22629922      -0.00000034       0.00080955       0.00125209      -0.00000000
14
Lattice="6.75917700115304 1.598014657821493 -1.1594714185976778 -1.316759055936127 6.8195506991548225 1.159470741476696 -4.241236159056692 -3.226001257476603 5.325848213238323" Properties=species:S:1:pos:R:3:forces:R:3 unique_starting_index=10 config_type=initial n_minim_iter=11 energy=-2277.8044436696 stress="0.00029138626708947264 -3.215305155389925e-05 -0.0005648093947737559 -3.215305155389925e-05 0.00026244526860703536 0.0003651803832841294 -0.0005648093947737559 0.0003651803832841294 0.0016559291316717837" free_energy=-2277.8044436696 pbc="T T T"
Si       2.06161962       4.69998523       2.91214702      -0.05063899       0.00982558      -0.02030683
Si      -0.80139973       0.58289070       2.41370051       0.02974244      -0.04214542       0.02030684
Si       0.51536289       2.69475100       2.91333321       0.00233443      -0.00245583       0.03281242
Si       3.44702793       6.76746225       2.41251399      -0.00319755       0.00112089      -0.03281242
Si      -0.96207190      -2.42680576       4.49688909       0.05063899      -0.00982558       0.02030683
Si      -0.61699339       3.31827537       0.82895880      -0.02974244       0.04214542      -0.02030684
Si       0.58418483      -0.42157153       4.49570290      -0.00233443       0.00245583      -0.03281242
Si       0.57699690       5.55126918       0.83014465       0.00319755      -0.00112089       0.03281242
Si       4.02905782       6.23157903      -0.00000050      -0.00530611      -0.00820675       0.00000000
Si      -2.82189670      -1.03076693       5.32584804       0.00127927       0.00197860      -0.00000000
Si      -0.00503299       6.08715240       3.24265913       0.00530611       0.00820675      -0.00000000
Si      -2.83773258       1.70593174       3.24265949      -0.00127927      -0.00197860       0.00000000
Si       2.61428697       1.28221941       2.08318823       0.00362138       0.00560103      -0.00000000
Si       2.72649691       4.21696132      -0.00000034      -0.00362138      -0.00560103       0.00000000
14
Lattice="6.823813795460274 1.4713317280458178 -0.8731125038427712 -1.45880892361018 6.826501992898706 0.8731118363531735 -4.0236794943365055 -3.281771881996888 5.0801538222996525" Properties=species:S:1:pos:R:3:forces:R:3 unique_starting_index=10 config_type=initial n_minim_iter=12 energy=-2277.832275936777 stress="0.0007123847560847884 -0.004764695536430265 -0.004432712584987774 -0.004764695536430265 -0.0035763371307432215 0.002865992907357867 -0.004432712584987774 0.002865992907357867 0.005293306574454277" free_energy=-2277.832275936777 pbc="T T T"
Si       2.07100193       4.53311599       2.79926855      -0.33908370       0.02018664      -0.07512368
Si      -0.73986228       0.46719201       2.28088461       0.15756965      -0.30092699       0.07512371
Si       0.52372657       2.53953290       2.63563389       0.19094199       0.15238365       0.07787385
Si       3.44219509       6.53588473       2.44451894       0.06059582       0.23665959      -0.07787388
Si      -0.67086061      -2.49673265       4.38440544       0.33908370      -0.02018664       0.07512368
Si      -0.66013071       3.37963149       0.69574805      -0.15756965       0.30092699      -0.07512371
Si       0.87641474      -0.50314956       4.54804009      -0.19094199      -0.15238365      -0.07787385
Si       0.52281680       5.60877249       0.53211306      -0.06059582      -0.23665959       0.07787388
Si       4.01066619       6.20313345      -0.00000050      -0.10084335      -0.15597029       0.00000001
Si      -2.66087344      -1.17397546       5.08015365       0.05914561       0.09147810      -0.00000001
Si      -0.04565431       5.94152377       2.97663249       0.10084335       0.15597029      -0.00000001
Si      -2.76279904       1.73902708       2.97663283      -0.05914561      -0.09147810       0.00000001
Si       2.73402929       1.15796464       2.10352049       0.03841192       0.05941014      -0.00000000
Si       2.68979152       4.16019059      -0.00000033      -0.03841192      -0.05941014       0.00000000
14
Lattice="6.829952550675539 1.4613734734082078 -0.8503477011813351 -1.4704092656459822 6.828013034463483 0.8503470343712447 -4.006895396396859 -3.2866345095988 5.061031845083652" Properties=species:S:1:pos:R:3:forces:R:3 unique_starting_index=10 config_type=initial n_minim_iter=13 energy=-2277.832931859677 stress="0.0008754263798684203 -0.005444287885279514 -0.004593475911462417 -0.005444287885279514 -0.004024999435295923 0.0029699353165002825 -0.004593475911462417 0.0029699353165002825 0.005600577524771997" free_energy=-2277.832931859677 pbc="T T T"
Si       2.07220723       4.52057732       2.79026240      -0.36431629       0.01736933      -0.08097217
Si      -0.73500690       0.45828259       2.27076878       0.16535609      -0.32509292       0.08097220
Si       0.52441256       2.52814174       2.61450061       0.21708080       0.16762269       0.08477297
Si       3.44284843       6.51852546       2.44653025       0.06376488       0.26674983      -0.08477300
Si      -0.64791659      -2.50280246       4.37611102       0.36431629      -0.01736933       0.08097217
Si      -0.66375961       3.38475331       0.68492049      -0.16535609       0.32509292      -0.08097220
Si       0.89987808      -0.51036688       4.55187281      -0.21708080      -0.16762269      -0.08477297
Si       0.51792835       5.61389694       0.50915836      -0.06376488      -0.26674983       0.08477300
Si       4.00953270       6.20138032      -0.00000050      -0.11025588      -0.17052827       0.00000001
Si      -2.64824398      -1.18526390       5.06103168       0.06818660       0.10546143      -0.00000001
Si      -0.04875592       5.93104209       2.95568911       0.11025588       0.17052827      -0.00000001
Si      -2.75741792       1.74166529       2.95568944      -0.06818660      -0.10546143       0.00000001
Si       2.74397574       1.14821105       2.10534191       0.04057816       0.06276059      -0.00000001
Si       2.68721030       4.15619832      -0.00000033      -0.04057816      -0.06276059       0.00000001
14
Lattice="6.901737665320839 1.4088138976946478 -0.6902560029528461 -1.547799462629022 6.871903458453656 0.6902553368401169 -3.9194292957297465 -3.3370395855368713 4.882151716797044" Properties=species:S:1:pos:R:3:forces:R:3 unique_starting_index=10 config_type=initial n_minim_iter=14 energy=-2277.867884971895 stress="0.005636520859321656 -0.009193763045343431 -0.0012160964740981922 -0.009193763045343431 -0.0026388240522357354 0.0007862739196891484 -0.0012160964740981922 0.0007862739196891484 0.0015092196151504345" free_energy=-2277.867884971895 pbc="T T T"
Si       2.09659976       4.47807394       2.69173893      -0.38461700      -0.00558149      -0.01982546
Si      -0.69631058       0.41267759       2.19041212       0.15275865      -0.35302434       0.01982549
Si       0.56763357       2.46905602       2.48299090       0.24913501       0.24239879      -0.14582772
Si       3.45309088       6.47461562       2.39915983       0.11879832       0.32666864       0.14582768
Si      -0.50942122      -2.56868834       4.28636014       0.38461700       0.00558149       0.01982546
Si      -0.69881925       3.42493370       0.59579124      -0.15275865       0.35302434      -0.01982549
Si       1.01954497      -0.55967042       4.49510817      -0.24913501      -0.24239879       0.14582772
Si       0.50571749       5.64371302       0.38704287      -0.11879832      -0.32666864      -0.14582768
Si       4.01690022       6.21277536      -0.00000050      -0.13965263      -0.21599501       0.00000002
Si      -2.57335524      -1.25512186       4.88215155       0.11131011       0.17215879      -0.00000001
Si      -0.05809184       5.90555328       2.78620319       0.13965263       0.21599501      -0.00000002
Si      -2.74120388       1.75569356       2.78620353      -0.11131011      -0.17215879       0.00000001
Si       2.82177845       1.09390932       2.09594769       0.06394286       0.09889781      -0.00000001
Si       2.68482939       4.15251586      -0.00000033      -0.06394286      -0.09889781       0.00000001
14
Lattice="6.8645995138322995 1.4725252965171927 -0.7265623135578932 -1.4744591450660183 6.86418447000153 0.7265616429410556 -3.945549874986156 -3.3598507444144676 4.905837919467174" Properties=species:S:1:pos:R:3:forces:R:3 unique_starting_index=10 config_type=initial n_minim_iter=15 energy=-2277.904182807576 stress="0.0007016031494402337 -0.0020165177898900243 -0.0013804238313115467 -0.0020165177898900243 -0.0011134728257528237 0.0008925197658760816 -0.0013804238313115467 0.0008925197658760816 -0.0023727811088182327" free_energy=-2277.904182807576 pbc="T T T"
Si       2.11186687       4.52281784       2.70174130      -0.30470177       0.00267845       0.02160389
Si      -0.68789472       0.42215165       2.20409595       0.12749338      -0.27675943      -0.02160387
Si       0.58427172       2.49778516       2.52292474       0.15607914       0.19936210      -0.22364565
Si       3.48254231       6.53475982       2.38291218       0.11774352       0.22414821       0.22364562
Si      -0.55528665      -2.57379897       4.29373392       0.30470177      -0.00267845      -0.02160389
Si      -0.67457470       3.41419267       0.61210366      -0.12749338       0.27675943       0.02160387
Si       0.97230850      -0.54876629       4.47255048      -0.15607914      -0.19936210       0.22364565
Si       0.54512864       5.63829426       0.43328676      -0.11774352      -0.22414821      -0.22364562