4
Lattice="3.5980543082712475 -5.3359368779296216e-67 2.204227519212485e-68 5.335936877929621e-67 3.5980543082712475 -6.760347663505245e-51 -2.204227519212485e-68 6.760347663505245e-51 3.5980543082712475" Properties=species:S:1:pos:R:3:forces:R:3 n_minim_iter=1 energy=-649.9966160564195 stress="-0.032791691070156115 -2.246226277768063e-17 3.293502195055423e-17 -2.246226277768063e-17 -0.032791691070156025 7.121476237554052e-17 3.293502195055423e-17 7.121476237554052e-17 -0.032791691070156" free_energy=-649.9966160564195 pbc="T T T"
Si       0.00000000       0.00000000       0.00000000       0.00000000       0.00000000       0.00000000
Si       1.79902715       1.79902715      -0.00000000      -0.00000000      -0.00000000      -0.00000000
Si       1.79902715       0.00000000       1.79902715      -0.00000000      -0.00000000      -0.00000000
Si       0.00000000       1.79902715       1.79902715       0.00000000      -0.00000000       0.00000000
