4
Lattice="4.0010005731912015 -5.933508690525029e-67 2.4510790589067775e-68 5.9335086905250296e-67 4.0010005731912015 -7.517439304481231e-51 -2.4510790589067775e-68 7.517439304481231e-51 4.0010005731912015" Properties=species:S:1:pos:R:3:forces:R:3 n_minim_iter=1 energy=-650.240040399917 stress="0.03427717306040744 -1.1863108235479247e-17 -2.762641643878728e-18 -1.1863108235479247e-17 0.03427717306040747 2.7084721998811062e-20 -2.762641643878728e-18 2.7084721998811062e-20 0.03427717306040766" free_energy=-650.240040399917 pbc="T T T"
Si       0.00000000       0.00000000       0.00000000      -0.00000000      -0.00000000       0.00000000
Si       2.00050029       2.00050029      -0.00000000       0.00000000       0.00000000      -0.00000000
Si       2.00050029       0.00000000       2.00050029       0.00000000      -0.00000000       0.00000000
Si       0.00000000       2.00050029       2.00050029      -0.00000000       0.00000000       0.00000000
