4
Lattice="3.5214765956548306 -5.222371654681573e-67 2.157314747184719e-68 5.222371654681573e-67 3.5214765956548306 -6.616466577727052e-51 -2.157314747184719e-68 6.616466577727052e-51 3.5214765956548306" Properties=species:S:1:pos:R:3:forces:R:3 n_minim_iter=1 energy=-650.345361291317 stress="0.2743413746134964 -1.0248858804350104e-17 2.3198967216048307e-17 -1.0248858804350104e-17 0.2743413746134963 -9.533822143581493e-19 2.3198967216048307e-17 -9.533822143581493e-19 0.27434137461349645" free_energy=-650.345361291317 pbc="T T T"
Si       0.00000000       0.00000000       0.00000000       0.00000000       0.00000000       0.00000000
Si       1.76073830       1.76073830      -0.00000000      -0.00000000      -0.00000000      -0.00000000
Si       1.76073830       0.00000000       1.76073830      -0.00000000      -0.00000000      -0.00000000
Si       0.00000000       1.76073830       1.76073830       0.00000000       0.00000000       0.00000000
