4
Lattice="3.939436927357502 -5.842209421531597e-67 2.4133641522646674e-68 5.8422094215315965e-67 3.939436927357502 -7.401767996154402e-51 -2.4133641522646674e-68 7.401767996154406e-51 3.939436927357502" Properties=species:S:1:pos:R:3:forces:R:3 n_minim_iter=1 energy=-650.3323001733576 stress="0.010407903881133159 7.157633240417504e-18 -4.243713515130785e-18 7.157633240417504e-18 0.010407903881133185 9.621021736358151e-18 -4.243713515130785e-18 9.621021736358151e-18 0.010407903881133067" free_energy=-650.3323001733576 pbc="T T T"
Si       0.00000000       0.00000000       0.00000000       0.00000000       0.00000000       0.00000000
Si       1.96971846       1.96971846      -0.00000000      -0.00000000      -0.00000000       0.00000000
Si       1.96971846       0.00000000       1.96971846      -0.00000000       0.00000000      -0.00000000
Si       0.00000000       1.96971846       1.96971846       0.00000000      -0.00000000      -0.00000000
