4
Lattice="4.089940664126758 -6.065407397573025e-67 2.505565228154069e-68 6.065407397573025e-67 4.089940664126758 -7.684547937212521e-51 -2.505565228154069e-68 7.684547937212521e-51 4.089940664126758" Properties=species:S:1:pos:R:3:forces:R:3 n_minim_iter=1 energy=-650.1071476350239 stress="0.05784339331822862 7.140651435664801e-19 1.819975558659238e-18 7.140651435664801e-19 0.057843393318228624 -8.30971046889609e-18 1.819975558659238e-18 -8.30971046889609e-18 0.057843393318228735" free_energy=-650.1071476350239 pbc="T T T"
Si       0.00000000       0.00000000       0.00000000      -0.00000000      -0.00000000      -0.00000000
Si       2.04497033       2.04497033      -0.00000000       0.00000000       0.00000000       0.00000000
Si       2.04497033       0.00000000       2.04497033       0.00000000       0.00000000      -0.00000000
Si       0.00000000       2.04497033       2.04497033      -0.00000000      -0.00000000       0.00000000
