2
Lattice="2.9834161561756916 -3.8417886408999824e-69 6.643921110371849e-51 3.8417886409e-69 2.9834161561756916 -7.751241295433825e-51 -6.643921110371849e-51 5.425868906803679e-50 2.9834161561756916" Properties=species:S:1:pos:R:3:forces:R:3 n_minim_iter=1 energy=-325.1186616541053 stress="-0.07775698057411518 2.161895478049966e-17 4.703500643462816e-18 2.161895478049966e-17 -0.07775698057411518 -1.5155724295602403e-17 4.703500643462816e-18 -1.5155724295602403e-17 -0.07775698057411505" free_energy=-325.1186616541053 pbc="T T T"
Si       0.00000000       0.00000000       0.00000000      -0.00000000       0.00000000      -0.00000000
Si       1.49170808       1.49170808       1.49170808       0.00000000      -0.00000000       0.00000000
