2
Lattice="2.4092506824344406 -1.6692942218178311e-15 -5.992964071575279e-16 -1.2046253412172212 2.086472295208787 6.048713485235546e-16 -7.861349741792464e-16 8.314945929228436e-16 4.585335646102769" Properties=species:S:1:pos:R:3:forces:R:3 n_minim_iter=1 energy=-324.8213599461059 stress="-0.1221188541798709 -3.425874033673292e-16 -4.111111159014937e-17 -3.425874033673292e-16 -0.12211885400521805 -4.9838541033211074e-17 -4.111111159014937e-17 -4.9838541033211074e-17 -0.17284081747623545" free_energy=-324.8213599461059 pbc="T T T"
Si       0.00000000      -0.00000000       0.00000000       0.00000000      -0.00000000      -0.00000000
Si      -0.00000000       1.39098153       2.29266782      -0.00000000       0.00000000       0.00000000
2
Lattice="2.3958749942043376 -1.3897532614067914e-15 -5.733009312550544e-16 -1.1979374971021695 2.0748886092883376 6.296279062616726e-16 -7.195244245421654e-16 9.023385272076693e-16 4.636676573878368" Properties=species:S:1:pos:R:3:forces:R:3 n_minim_iter=2 energy=-324.8282779150773 stress="-0.1271871970738463 -1.63164955250929e-16 9.237922482299236e-17 -1.63164955250929e-16 -0.12718719694135355 4.033240691931011e-16 9.237922482299236e-17 4.033240691931011e-16 -0.12941148158332033" free_energy=-324.8282779150773 pbc="T T T"
Si       0.00000000      -0.00000000       0.00000000      -0.00000000      -0.00000000      -0.00000001
Si      -0.00000000       1.38325907       2.31833829       0.00000000       0.00000000       0.00000001
