2
Lattice="2.8665735903969374 -1.7776084336862105e-16 -3.97124568713253e-16 -1.433286795198468 2.4825255514502977 2.2313380653352814e-16 -4.755845218290862e-16 2.5932947300021587e-16 4.959695612149623" Properties=species:S:1:pos:R:3:forces:R:3 n_minim_iter=1 energy=-324.9661518608916 stress="0.08761426569625112 -1.0195308821181272e-16 1.9749320634195603e-17 -1.0195308821181272e-16 0.08761426555692012 7.549172919452388e-20 1.9749320634195603e-17 7.549172919452388e-20 0.07083163729174727" free_energy=-324.9661518608916 pbc="T T T"
Si       0.00000000      -0.00000000       0.00000000       0.00000000      -0.00000000      -0.00000000
Si      -0.00000000       1.65501704       2.47984781      -0.00000000       0.00000000       0.00000000
2
Lattice="2.770461982810382 1.550111393565112e-15 -7.763675755112116e-16 -1.385230991405189 2.399290459708007 4.133270870011396e-16 -1.0672986634036136e-15 2.483117947730704e-16 5.309783628528285" Properties=species:S:1:pos:R:3:forces:R:3 n_minim_iter=2 energy=-324.9930719913431 stress="0.06050422159726544 2.099908880492473e-17 1.0958576584814179e-16 2.099908880492473e-17 0.06050422142716268 -4.6348925015092265e-17 1.0958576584814179e-16 -4.6348925015092265e-17 0.06353323979207412" free_energy=-324.9930719913431 pbc="T T T"
Si       0.00000000      -0.00000000      -0.00000000       0.00000000      -0.00000000      -0.00000001
Si      -0.00000000       1.59952697       2.65489182      -0.00000000       0.00000000       0.00000001
