2
Lattice="2.7444409274264743 -1.7018720031085512e-16 -3.802047585013582e-16 -1.3722204637132365 2.376755562671165 2.1362701205179214e-16 -4.553218624949236e-16 2.4828053316823443e-16 4.748383809562733" Properties=species:S:1:pos:R:3:forces:R:3 n_minim_iter=1 energy=-325.2036500033563 stress="0.03092255105066289 -2.5487119346429242e-17 -4.1010203497359813e-17 -2.5487119346429242e-17 0.030922550996301264 -3.33994614022758e-17 -4.1010203497359813e-17 -3.33994614022758e-17 0.03708668593468018" free_energy=-325.2036500033563 pbc="T T T"
Si       0.00000000      -0.00000000       0.00000000       0.00000000      -0.00000000       0.00000000
Si      -0.00000000       1.58450371       2.37419191      -0.00000000       0.00000000      -0.00000000
