2
Lattice="2.806835835565596 -1.740564090169822e-16 -3.888487197335624e-16 -1.4034179177827972 2.430791138194037 2.1848382556881893e-16 -4.656736122812617e-16 2.5392519503905507e-16 4.856338391002669" Properties=species:S:1:pos:R:3:forces:R:3 n_minim_iter=1 energy=-325.110386875317 stress="0.054522535362138365 -1.1892698079199805e-16 -3.255234183136187e-17 -1.1892698079199805e-16 0.05452253524076937 -1.4774798485099377e-16 -3.255234183136187e-17 -1.4774798485099377e-16 0.04950561010111884" free_energy=-325.110386875317 pbc="T T T"
Si       0.00000000      -0.00000000       0.00000000       0.00000000      -0.00000000       0.00000000
Si      -0.00000000       1.62052743       2.42816920      -0.00000000       0.00000000      -0.00000000
