2
Lattice="2.6336553096115622 -1.633172057913125e-16 -3.648569262176295e-16 -1.3168276548057805 2.28081240325601 2.0500347044971278e-16 -4.369417569743292e-16 2.3825812314527515e-16 4.556704466528731" Properties=species:S:1:pos:R:3:forces:R:3 n_minim_iter=1 energy=-325.2252362513577 stress="-0.019242059118576404 2.5928351551263827e-17 1.8112565732501908e-19 2.5928351551263827e-17 -0.01924205914083428 6.031688062019197e-17 1.8112565732501908e-19 6.031688062019197e-17 -0.019320686596562164" free_energy=-325.2252362513577 pbc="T T T"
Si       0.00000000      -0.00000000       0.00000000       0.00000000      -0.00000000       0.00000000
Si      -0.00000000       1.52054160       2.27835223      -0.00000000       0.00000000      -0.00000000
