2
Lattice="2.786347252317134 -1.727858789842366e-16 -3.860103067190323e-16 -1.3931736261585663 2.413047504610822 2.1688899626249183e-16 -4.622744136352483e-16 2.520716603821587e-16 4.820889401736538" Properties=species:S:1:pos:R:3:forces:R:3 n_minim_iter=1 energy=-325.1766007720119 stress="0.038801678718008305 -6.127099470937108e-17 1.1616347082885664e-16 -6.127099470937108e-17 0.0388016786151914 7.3207059604753e-17 1.1616347082885664e-16 7.3207059604753e-17 0.042993569830491456" free_energy=-325.1766007720119 pbc="T T T"
Si       0.00000000      -0.00000000       0.00000000       0.00000000      -0.00000000       0.00000000
Si      -0.00000000       1.60869834       2.41044470      -0.00000000       0.00000000      -0.00000000
