2
Lattice="2.3387989235738873 -8.46050937656746e-16 -1.5656759848215803e-17 -1.169399461786944 2.0254592821932125 1.509809265333267e-16 3.588550468098021e-16 4.467053276032146e-16 4.561635908537475" Properties=species:S:1:pos:R:3:forces:R:3 n_minim_iter=1 energy=-324.5766924270296 stress="-0.24250872297305925 -7.847515500405316e-16 1.3859042304271779e-16 -7.847515500405316e-16 -0.24250872302021548 -1.0063690308154393e-16 1.3859042304271779e-16 -1.0063690308154393e-16 -0.2415266086775478" free_energy=-324.5766924270296 pbc="T T T"
Si       0.00000000      -0.00000000       0.00000000       0.00000000       0.00000000      -0.00000002
Si      -0.00000000       1.35030619       2.28081796      -0.00000000      -0.00000000       0.00000002
