2
Lattice="2.7229991067581554 -1.6885755849104356e-16 -3.7723428747844126e-16 -1.361499553379077 2.3581864012664 2.1195798283839287e-16 -4.517645151224895e-16 2.4634076226100634e-16 4.711285545544178" Properties=species:S:1:pos:R:3:forces:R:3 n_minim_iter=1 energy=-325.2227639588366 stress="0.019081449703495474 2.852587743885477e-17 -2.0568993055259314e-18 2.852587743885477e-17 0.019081449653036694 8.977062068238188e-17 -2.0568993055259314e-18 8.977062068238188e-17 0.022368351123687864" free_energy=-325.2227639588366 pbc="T T T"
Si       0.00000000      -0.00000000       0.00000000       0.00000000      -0.00000000       0.00000000
Si      -0.00000000       1.57212427       2.35564277      -0.00000000       0.00000000      -0.00000000
