2
Lattice="2.789181888384798 1.560585436918679e-15 -7.816134615023506e-16 -1.394590944192397 2.4155023735079464 4.1611992230731506e-16 -1.0745103596198338e-15 2.4998962806585946e-16 5.345661633266613" Properties=species:S:1:pos:R:3:forces:R:3 n_minim_iter=2 energy=-324.9930719913431 stress="0.06050422159726544 2.099908880492473e-17 1.0958576584814179e-16 2.099908880492473e-17 0.06050422142716268 -4.6348925015092265e-17 1.0958576584814179e-16 -4.6348925015092265e-17 0.06353323979207412" free_energy=-324.9930719913431 pbc="T T T"
Si       0.00000000      -0.00000000      -0.00000000       0.00000000      -0.00000000      -0.00000001
Si      -0.00000000       1.61033492       2.67283082      -0.00000000       0.00000000       0.00000001
