2
Lattice="3.1918950660449696 0.0 0.0 0.0 3.1918950660449705 0.0 0.0 0.0 3.1918950660449696" Properties=species:S:1:pos:R:3 Minim_Constant_Volume=F n_minim_iter=1 stress="0.0168022334647184 3.5992321849117124e-17 2.302896570033981e-17 3.5992321849117124e-17 0.01680223346471747 2.4744883125423238e-17 2.302896570033981e-17 2.4744883125423238e-17 0.016802233464718097" pbc="T T T"
Ti       0.00000000       0.00000000       0.00000000
Ti       1.59594753       1.59594753       1.59594753
