2
Lattice="3.056479496348784 0.0 0.0 0.0 3.056479496348784 0.0 0.0 0.0 3.056479496348784" Properties=species:S:1:pos:R:3 Minim_Constant_Volume=F n_minim_iter=1 stress="-0.10495499649973107 -8.742317791052697e-17 -0.0 -8.742317791052697e-17 -0.104954996499731 7.290327553344847e-18 -0.0 7.290327553344847e-18 -0.1049549964997311" pbc="T T T"
Ti       0.00000000       0.00000000       0.00000000
Ti       1.52823975       1.52823975       1.52823975
