2
Lattice="3.3872923388307434 0.0 0.0 0.0 3.3872923388307434 0.0 0.0 0.0 3.3872923388307434" Properties=species:S:1:pos:R:3 Minim_Constant_Volume=F n_minim_iter=1 stress="0.05230196155750702 7.976262425180437e-18 1.8002281815657278e-17 7.976262425180437e-18 0.05230196155750702 3.8385806301285105e-18 1.8002281815657278e-17 3.8385806301285105e-18 0.05230196155750686" pbc="T T T"
Ti       0.00000000       0.00000000       0.00000000
Ti       1.69364617       1.69364617       1.69364617
