2
Lattice="3.3167031029719376 0.0 0.0 0.0 3.3167031029719376 0.0 0.0 0.0 3.3167031029719376" Properties=species:S:1:pos:R:3 Minim_Constant_Volume=F n_minim_iter=1 stress="0.054671769712020916 1.2360178428311775e-19 1.8152746300957804e-18 1.2360178428311775e-19 0.05467176971202084 -1.5868612974447295e-17 1.8152746300957804e-18 -1.5868612974447295e-17 0.05467176971202079" pbc="T T T"
Ti       0.00000000       0.00000000       0.00000000
Ti       1.65835155       1.65835155       1.65835155
