2
Lattice="3.340565096800739 0.0 0.0 0.0 3.340565096800739 0.0 0.0 3.5471584031930167e-34 3.340565096800739" Properties=species:S:1:pos:R:3 Minim_Constant_Volume=F n_minim_iter=1 stress="0.059057832082395484 2.024607144103673e-17 -7.006179318784232e-18 2.024607144103673e-17 0.05905783208239544 -3.908856475410425e-18 -7.006179318784232e-18 -3.908856475410425e-18 0.059057832082395394" pbc="T T T"
Ti       0.00000000       0.00000000       0.00000000
Ti       1.67028255       1.67028255       1.67028255
