2
Lattice="2.8762573276003454 0.0 0.0 0.0 2.8762573276003454 0.0 0.0 -1.0267678985292495e-33 2.8762573276003454" Properties=species:S:1:pos:R:3 Minim_Constant_Volume=F n_minim_iter=1 stress="-0.25796955730595633 2.1121372367251107e-17 -6.318773820933369e-17 2.1121372367251107e-17 -0.2579695573059562 -7.74215148275981e-17 -6.318773820933369e-17 -7.74215148275981e-17 -0.25796955730595594" pbc="T T T"
Ti       0.00000000       0.00000000       0.00000000
Ti       1.43812866       1.43812866       1.43812866
