16
Lattice="6.918359611343333 -0.054348054128018145 -0.04700659567691914 1.1113088709469159 6.82873678041619 -0.047006595677291714 1.1113088709466081 0.937577722339589 6.764229716000127" Properties=species:S:1:pos:R:3 unique_starting_index=52 config_type=initial n_minim_iter=13 energy=-2603.6624137626445 free_energy=-2603.6624137626445 pbc="T T T"
Si       4.11630288       1.83551721       3.00065902
Si       3.88076838       3.51303299       1.38393040
Si       2.50239525       3.50953253       3.27692337
Si       0.87408633       2.03043929       2.32630117
Si       2.70475716       0.42473596       1.67399995
Si       2.14862518       2.37691705       0.17906117
Si       6.72298127       5.64859352       7.25179788
Si       9.00803182       5.28165750       4.54456988
Si       6.69993242       7.99406009       4.57160445
Si       7.29812910       6.16662714       3.29484805
Si       5.31871913       6.49532206       5.62743463
Si       7.30741076       4.14754621       5.61654794
Si       7.28776012       1.88089167       6.02055841
Si       7.36692034       6.13494138       0.99363159
Si       3.08111703       6.94732350       5.92770940
Si       5.61455058       4.73682671       4.09696541
