22
Lattice="5.218951909297759 -0.29972092499530245 -1.5487002006740571 -1.3981617914019058 10.178383753507626 -1.1391492277207946 -4.774446608387323 -4.169417142727057 11.578901644623741" Properties=species:S:1:pos:R:3 unique_starting_index=18 config_type=initial n_minim_iter=1 energy=-3590.701542921192 free_energy=-3590.701542921192 pbc="T T T"
Si       1.44882630       8.67063403       0.02784333
Si      -1.53929216      -0.78408265       6.35658553
Si      -3.80764292      -2.28936626      10.27798672
Si      -0.29472365      -1.54048026       9.26978858
Si      -4.74440514       1.06386381      10.77557964
Si       4.02431132       2.07721803      -0.09810218
Si       2.36827613       0.58608359      -0.01391307
Si      -1.15980964       2.39084356       8.86185124
Si      -1.86681140      -2.63640827       9.88623087
Si      -2.64765144       1.75104526       6.68781270
Si       0.64080093       0.93081092       3.97116665
Si      -2.37714086       4.09765829       6.40434373
Si      -3.39651548      -2.19509718       6.66962631
Si       0.15399197       7.15453859      -0.23382997
Si       1.13937290       2.76082880       4.64301371
Si       1.72108193       6.89837591      -1.46463709
Si      -0.49329826      -1.00751287       4.23885632
Si       1.92472766      -3.52621618       7.02140547
Si       0.24729022       2.57737044       2.83928241
Si      -2.85640468       3.15263173       8.10229166
Si      -0.92032958       4.20796268       2.94731775
Si      -1.96013997      -1.83299344       8.02764661
22
Lattice="5.2164398463067485 -0.2989723126269591 -1.5517706411673862 -1.3965981537459782 10.163839651562665 -1.140511597892293 -4.776246960349002 -4.164840073716911 11.589176132494318" Properties=species:S:1:pos:R:3 unique_starting_index=18 config_type=initial n_minim_iter=2 stress="-0.008043557998267023 0.0010899669647313954 -0.0014547223946381324 0.0010899669647313954 -0.007638384101903303 -0.00460953680078373 -0.0014547223946381324 -0.00460953680078373 -0.002641833017382739" pbc="T T T"
Si       1.44830802       8.65832836       0.02637151
Si      -1.54105555      -0.78395162       6.36171405
Si      -3.80898540      -2.28739165      10.28686983
Si      -0.29817663      -1.53928714       9.27653206
Si      -4.74574638       1.06191786      10.78504209
Si       4.02189382       2.07437887      -0.10013804
Si       2.36674463       0.58502843      -0.01443003
Si      -1.16264349       2.38645276       8.86803367
Si      -1.87006592      -2.63332258       9.89332345
Si      -2.64861096       1.74737165       6.69305922
Si       0.63890950       0.92886625       3.97368746
Si      -2.37795652       4.09109699       6.40900295
Si      -3.39704706      -2.19257926       6.67580453
Si       0.15417597       7.14339545      -0.23511961
Si       1.13668495       2.75647630       4.64514981
Si       1.72076058       6.88863216      -1.46722928
Si      -0.49470548      -1.00656876       4.24215584
Si       1.92068566      -3.52193172       7.02567913
Si       0.24622979       2.57383494       2.84122046
Si      -2.85777791       3.14707870       8.10911412
Si      -0.92066679       4.20131538       2.94924884
Si      -1.96200239      -1.83132520       8.03413378
22
Lattice="5.222091831852426 -0.30134109989171803 -1.5549374287636064 -1.3999156174146858 10.1626164376407 -1.1331129342533655 -4.782031244648112 -4.153697406527127 11.60225094902984" Properties=species:S:1:pos:R:3 unique_starting_index=18 config_type=initial n_minim_iter=3 stress="0.010528693361679156 0.001219413537394011 -0.0007354168830051133 0.001219413537394011 0.0031220333712438358 -0.002519821649940208 -0.0007354168830051133 -0.002519821649940208 0.01703820939030788" pbc="T T T"
Si       1.44840790       8.65801273       0.03376931
Si      -1.54386798      -0.77878205       6.37023705
Si      -3.81293219      -2.27781188      10.29987500
Si      -0.29936360      -1.53108329       9.28825588
Si      -4.75245274       1.07349995      10.80209221
Si       4.02531496       2.07343918      -0.09952127
Si       2.36879460       0.58395827      -0.01335323
Si      -1.16586726       2.39423618       8.88228621
Si      -1.87396452      -2.62341316       9.90344545
Si      -2.65236101       1.75244517       6.70375116
Si       0.63878447       0.93141482       3.98018936
Si      -2.38168014       4.09708179       6.42147280
Si      -3.40087733      -2.18555326       6.68360637
Si       0.15301016       7.14136864      -0.22971751
Si       1.13557062       2.76067118       4.65297239
Si       1.72117776       6.88657767      -1.46395186
Si      -0.49567897      -1.00282894       4.24743304
Si       1.92204446      -3.51637781       7.03160259
Si       0.24610002       2.57701517       2.84822781
Si      -2.86266577       3.15462346       8.12434611
Si      -0.92275368       4.20352550       2.95712885
Si      -1.96422761      -1.82382500       8.04392782
22
Lattice="5.220544773590591 -0.3053862870302558 -1.5529100307475374 -1.4036140374553405 10.161127005379015 -1.1186075600969732 -4.778062303363147 -4.136627866435971 11.58150461831395" Properties=species:S:1:pos:R:3 unique_starting_index=18 config_type=initial n_minim_iter=4 stress="0.0014918661901840303 -0.002609129392842007 0.002610100820728029 -0.002609129392842007 -0.0025713597175428863 0.006157230821945253 0.002610100820728029 0.006157230821945253 0.0015889667192243906" pbc="T T T"
Si       1.44497059       8.65743895       0.04517047
Si      -1.54316494      -0.77074321       6.36113013
Si      -3.80880165      -2.26314244      10.28353743
Si      -0.29770125      -1.51882080       9.27454290
Si      -4.75069427       1.09029338      10.78967025
Si       4.02292721       2.07166180      -0.09695757
Si       2.36766686       0.58251656      -0.01162117
Si      -1.16601279       2.40605760       8.87360431
Si      -1.87296552      -2.60885627       9.88571893
Si      -2.65163106       1.76126840       6.69702054
Si       0.63853705       0.93535348       3.97671632
Si      -2.38168944       4.10604427       6.41833109
Si      -3.39810314      -2.17482298       6.67197697
Si       0.15042724       7.13953558      -0.22061106
Si       1.13351412       2.76666523       4.64970977
Si       1.71745393       6.88353395      -1.45341267
Si      -0.49485968      -0.99718755       4.24090539
Si       1.92302601      -3.50816958       7.01768117
Si       0.24592292       2.58149600       2.84895623
Si      -2.86242239       3.16595312       8.11804795
Si      -0.92380853       4.20718724       2.95874942
Si      -1.96162782      -1.81248111       8.03092324
22
Lattice="5.221089321894682 -0.3036167830346314 -1.5540315902686044 -1.3999215212664102 10.171194264227958 -1.1200754048547101 -4.785207859152463 -4.1459683378853 11.574060548246832" Properties=species:S:1:pos:R:3 unique_starting_index=18 config_type=initial n_minim_iter=5 stress="-0.0001361119882646992 0.0032964102250124506 -0.0015562859289531207 0.0032964102250124506 0.004107574490382881 0.0012068657780998837 -0.0015562859289531207 0.0012068657780998837 -0.0008708808518089138" pbc="T T T"
Si       1.44796125       8.66695196       0.04170742
Si      -1.54730222      -0.77488458       6.35593747
Si      -3.81343273      -2.27016702      10.27648645
Si      -0.30246625      -1.52324158       9.26647481
Si      -4.75599596       1.08679985      10.78167627
Si       4.02303752       2.07502231      -0.10035253
Si       2.36754514       0.58325242      -0.01209762
Si      -1.17001641       2.40519536       8.86459817
Si      -1.88034047      -2.61435553       9.87655268
Si      -2.65494826       1.76024465       6.69179228
Si       0.63676144       0.93410355       3.97283674
Si      -2.38321000       4.10748725       6.41153676
Si      -3.40162614      -2.17933484       6.66813557
Si       0.15325245       7.14649167      -0.22305498
Si       1.13120375       2.76861771       4.64277499
Si       1.71972063       6.89126863      -1.45559149
Si      -0.49744538      -0.99983818       4.23775512
Si       1.91749212      -3.51384000       7.01054787
Si       0.24596559       2.58452537       2.84628541
Si      -2.86580779       3.16450074       8.11063017
Si      -0.92397537       4.20985691       2.95508870
Si      -1.96544812      -1.81735168       8.02462398
22
Lattice="5.225331968769627 -0.31079669405263616 -1.5515834498335017 -1.4164034983081315 10.16940566311714 -1.1224528634950222 -4.778468925177931 -4.1396270076098505 11.57098894830128" Properties=species:S:1:pos:R:3 unique_starting_index=18 config_type=initial n_minim_iter=6 stress="0.005810658352310267 -0.003677894558505876 0.002703938610879569 -0.003677894558505876 -0.0014778929644414412 -0.004217656006317125 0.002703938610879569 -0.004217656006317125 -0.0036054741756709066" pbc="T T T"
Si       1.43712620       8.66189973       0.04077658
Si      -1.54588036      -0.77479993       6.35384810
Si      -3.80798134      -2.26598990      10.27431476
Si      -0.29580489      -1.52378182       9.26576220
Si      -4.75746899       1.09118671      10.77824703
Si       4.02272124       2.06846539      -0.10026683
Si       2.36857241       0.57902933      -0.01037001
Si      -1.17066576       2.40393742       8.86199207
Si      -1.87548319      -2.61159741       9.87332139
Si      -2.65847481       1.76334910       6.69021443
Si       0.63777060       0.93046400       3.97354828
Si      -2.38822199       4.10796321       6.40790571
Si      -3.39803627      -2.17336911       6.66608174
Si       0.14420960       7.14398236      -0.22445267
Si       1.13015578       2.76510502       4.64099953
Si       1.70969563       6.88606715      -1.45680730
Si      -0.49481121      -0.99977680       4.23777827
Si       1.92615731      -3.51691264       7.00973811
Si       0.24465283       2.58474402       2.84660536
Si      -2.87029526       3.16385159       8.10676481
Si      -0.92961907       4.20856018       2.95360305
Si      -1.95998694      -1.81564583       8.02316510
22
Lattice="5.223502919199888 -0.317242448987644 -1.554792163284062 -1.423745741153092 10.169271435208925 -1.1088180262123266 -4.775243503616266 -4.119286326082299 11.578919746619144" Properties=species:S:1:pos:R:3 unique_starting_index=18 config_type=initial n_minim_iter=7 stress="-0.003201666044230905 -0.0015162577193418136 0.002944565396004917 -0.0015162577193418136 0.002635902083747306 0.0015396911385580033 0.002944565396004917 0.0015396911385580033 0.0017514307430722593" pbc="T T T"
Si       1.43036779       8.66194031       0.05327115
Si      -1.54720619      -0.76605915       6.35897808
Si      -3.80530306      -2.24850800      10.28433636
Si      -0.29484184      -1.50991836       9.27494209
Si      -4.75876740       1.10991725      10.79338724
Si       4.01845191       2.06533966      -0.09971695
Si       2.36700643       0.57663857      -0.00927188
Si      -1.17376957       2.41752811       8.87523159
Si      -1.87618068      -2.59516531       9.87992937
Si      -2.66279273       1.77704367       6.70129714
Si       0.63624899       0.93351294       3.98112909
Si      -2.39126046       4.11901331       6.42036683
Si      -3.39523846      -2.15897659       6.67113760
Si       0.14007210       7.14509962      -0.21444757
Si       1.12759449       2.77053791       4.64921272
Si       1.70249095       6.88244392      -1.45011074
Si      -0.49484833      -0.99366550       4.24227576
Si       1.92521381      -3.50887950       7.01044256
Si       0.24294090       2.59197304       2.85463770
Si      -2.87393031       3.17551654       8.12056584
Si      -0.93295835       4.21295478       2.96343857
Si      -1.95763057      -1.80314978       8.03038300
22
Lattice="5.230818101184761 -0.31943039463078476 -1.5586063761417595 -1.4268504316574164 10.162674640857649 -1.0998256030380846 -4.788910463830866 -4.107136718460177 11.575690705606283" Properties=species:S:1:pos:R:3 unique_starting_index=18 config_type=initial n_minim_iter=8 stress="0.004885803050045634 0.0020105173507617255 -0.0009656242659394795 0.0020105173507617255 -0.0026362646933067624 0.0032511442899225015 -0.0009656242659394795 0.0032511442899225015 -0.0031047767481818447" pbc="T T T"
Si       1.43088295       8.65731169       0.05875357
Si      -1.55469780      -0.76146131       6.35619664
Si      -3.81744901      -2.23879590      10.28283657
Si      -0.30083585      -1.50177954       9.27152298
Si      -4.77327618       1.11852007      10.79488442
Si       4.02239238       2.06322701      -0.10218580
Si       2.36981216       0.57573010      -0.01079657
Si      -1.18262347       2.42291771       8.87466679
Si      -1.88594219      -2.58608565       9.87646606
Si      -2.67334830       1.78239676       6.70247832
Si       0.63393023       0.93451953       3.98141336
Si      -2.39944557       4.12167425       6.42281159
Si      -3.40323357      -2.15037708       6.67011043
Si       0.13940136       7.14062390      -0.20957526
Si       1.12496573       2.77144079       4.64841116
Si       1.70320810       6.87655032      -1.44677374
Si      -0.49872617      -0.99009630       4.24129359
Si       1.92131785      -3.50228491       7.00306570
Si       0.24073337       2.59451932       2.85556992
Si      -2.88458624       3.17904740       8.12216281
Si      -0.93725258       4.21239540       2.96647305
Si      -1.96470885      -1.79598929       8.02792653
22
Lattice="5.2289333123362205 -0.33192838235334104 -1.5631594532055313 -1.4483304951756162 10.177226992038504 -1.0979386151338264 -4.784450386523712 -4.099355377623005 11.583798266911737" Properties=species:S:1:pos:R:3 unique_starting_index=18 config_type=initial n_minim_iter=9 stress="-0.0005628765969154924 -0.004486252087081192 -0.0057926064364738385 -0.004486252087081192 0.0009238668881864189 0.000982360080813958 -0.0057926064364738385 0.000982360080813958 -0.0029932982170637556" pbc="T T T"
Si       1.41277941       8.66653882       0.05957422
Si      -1.55857208      -0.75989676       6.35541027
Si      -3.81768463      -2.23191592      10.29106530
Si      -0.30035778      -1.50104239       9.27749845
Si      -4.78096946       1.13286316      10.80516172
Si       4.01468721       2.05686041      -0.10665488
Si       2.36752098       0.57115565      -0.01302811
Si      -1.19357166       2.42982402       8.87921951
Si      -1.88663143      -2.58460975       9.88428008
Si      -2.68388962       1.79137099       6.70713949
Si       0.62938303       0.93172354       3.98700601
Si      -2.41019887       4.13206547       6.42759394
Si      -3.39884168      -2.13975833       6.67586620
Si       0.12454449       7.14749348      -0.21085032
Si       1.11428051       2.77185122       4.64939140
Si       1.68441405       6.87953395      -1.44966569
Si      -0.49979909      -0.99036876       4.24570641
Si       1.91881297      -3.50972118       7.00263587
Si       0.23290653       2.60195864       2.85585140
Si      -2.89581635       3.18789090       8.12856714
Si      -0.94864683       4.21908015       2.96964005
Si      -1.96237947      -1.79365287       8.03270820
22
Lattice="5.2254535123981585 -0.33344855326833395 -1.5583108981149454 -1.4519362525999697 10.179385918588107 -1.100091751447589 -4.769253117294019 -4.098904026583579 11.58385331288769" Properties=species:S:1:pos:R:3 unique_starting_index=18 config_type=initial n_minim_iter=10 stress="-0.0016589321219861522 0.0027385179063235034 0.0022925154329140737 0.0027385179063235034 -0.002841054540420062 -0.00027381672265360197 0.0022925154329140737 -0.00027381672265360197 -0.0022750823395535527" pbc="T T T"
Si       1.41193791       8.66968530       0.06147770
Si      -1.55259498      -0.76110439       6.35305694
Si      -3.80519485      -2.23199442      10.29211467
Si      -0.28747091      -1.50110809       9.28264850
Si      -4.76864703       1.13463670      10.80610867
Si       4.01268481       2.05655594      -0.10339874
Si       2.36685929       0.57046562      -0.01051569
Si      -1.18456928       2.43071511       8.88126471
Si      -1.87528522      -2.58539053       9.88781067
Si      -2.67885452       1.79230302       6.70689884
Si       0.63380896       0.92978999       3.99244432
Si      -2.40222775       4.13292444       6.42817608
Si      -3.38899393      -2.13611647       6.67528725
Si       0.12325246       7.14817017      -0.21235152
Si       1.11741590       2.77105552       4.65233243
Si       1.67815215       6.87974954      -1.44997785
Si      -0.49533394      -0.99111313       4.24873581
Si       1.92346234      -3.51075033       7.00688378
Si       0.23497173       2.60564597       2.85600818
Si      -2.88683571       3.18758229       8.12862733
Si      -0.94650203       4.21945919       2.97029751
Si      -1.95032080      -1.79428739       8.03440592
22
Lattice="5.220608024486649 -0.3497595687828835 -1.5611633098878919 -1.480905442450694 10.186942462087464 -1.0984503661757827 -4.753608262785022 -4.083037206358213 11.595979591175718" Properties=species:S:1:pos:R:3 unique_starting_index=18 config_type=initial n_minim_iter=11 stress="-0.001881389728366989 0.0013727957832791707 -1.4424500760148033e-05 0.0013727957832791707 -0.0016257505627791083 -0.0011693928512382908 -1.4424500760148033e-05 -0.0011693928512382908 -0.0011174174083044218" pbc="T T T"
Si       1.39027558       8.67420622       0.06467772
Si      -1.55453320      -0.75971237       6.34912955
Si      -3.79862533      -2.22103173      10.30380356
Si      -0.27752735      -1.49855004       9.29679730
Si      -4.77042994       1.15089250      10.82202104
Si       4.00389226       2.04711856      -0.10495591
Si       2.36244033       0.56108485      -0.00708206
Si      -1.19341776       2.43870412       8.88946038
Si      -1.86659662      -2.57850447       9.89622372
Si      -2.68960828       1.80144549       6.71360487
Si       0.63180909       0.92536654       4.00609975
Si      -2.40839065       4.14118928       6.44018946
Si      -3.37771387      -2.11513353       6.68240802
Si       0.10234772       7.15202255      -0.21291335
Si       1.10337291       2.76627517       4.65699888
Si       1.65150640       6.87464243      -1.45614963
Si      -0.49435495      -0.99107553       4.25831184
Si       1.92162070      -3.51315025       7.01195507
Si       0.22563223       2.61455687       2.85404241
Si      -2.89222261       3.19603055       8.13581337
Si      -0.96011632       4.22396524       2.97598610
Si      -1.93698013      -1.78980014       8.04352257
22
Lattice="5.219531348438199 -0.3606122400082568 -1.5602067579691203 -1.5018996254634687 10.173249602766864 -1.0954908873237812 -4.7402921142536325 -4.062254178159594 11.597142866043963" Properties=species:S:1:pos:R:3 unique_starting_index=18 config_type=initial n_minim_iter=12 stress="-0.0004964301996945667 0.00015012148455312258 -0.0004977525405596838 0.00015012148455312258 -0.003147536190282016 -0.0017212466937520194 -0.0004977525405596838 -0.0017212466937520194 0.000866391891056537" pbc="T T T"
Si       1.37700828       8.66147185       0.06912002
Si      -1.55484933      -0.75809706       6.34343416
Si      -3.79002999      -2.20879105      10.30434141
Si      -0.26451978      -1.49201352       9.30361104
Si      -4.76949138       1.16185549      10.82770785
Si       4.00129266       2.03771421      -0.10280903
Si       2.36122678       0.55403638      -0.00422674
Si      -1.19560475       2.44110072       8.89176198
Si      -1.86106253      -2.56882458       9.89860287
Si      -2.69634329       1.80502510       6.71417482
Si       0.63250644       0.92050520       4.01472071
Si      -2.40943772       4.14207538       6.44308838
Si      -3.36972092      -2.09392186       6.68252066
Si       0.08691875       7.14331937      -0.20999534
Si       1.09650127       2.76047202       4.66011931
Si       1.63530700       6.85755871      -1.46008154
Si      -0.49254820      -0.98902991       4.26381294
Si       1.92415143      -3.50383727       7.01491107
Si       0.22238577       2.61453164       2.85191639
Si      -2.89523059       3.19626890       8.14023697
Si      -0.97016522       4.22166081       2.97958861
Si      -1.92347929      -1.78131332       8.04303115
22
Lattice="5.216785553084459 -0.36540756411019154 -1.5590484466858905 -1.5103671015355147 10.158864168236002 -1.0913523603751456 -4.731485230133897 -4.046845451131664 11.593803972257017" Properties=species:S:1:pos:R:3 unique_starting_index=18 config_type=initial n_minim_iter=13 stress="-0.00048289321180296636 0.0005737000565202155 8.420996557044415e-05 0.0005737000565202155 0.00026874330279133893 -0.0011988669739238496 8.420996557044415e-05 -0.0011988669739238496 0.001918310093402094" pbc="T T T"
Si       1.37458455       8.65165812       0.07372275
Si      -1.55662949      -0.75930312       6.33433902
Si      -3.78707817      -2.20062646      10.30127150
Si      -0.25373014      -1.48643321       9.30800599
Si      -4.76680458       1.16861200      10.83043133
Si       3.99981367       2.03370255      -0.10166943
Si       2.35972521       0.54892382       0.00021517
Si      -1.19359905       2.44173506       8.89122498
Si      -1.85512354      -2.56065971       9.89533277
Si      -2.70164069       1.80514798       6.71146866
Si       0.63277188       0.91288827       4.02021325
Si      -2.40699742       4.13967587       6.44325503
Si      -3.36415627      -2.07510925       6.68096992
Si       0.08126662       7.13523957      -0.20790083
Si       1.09454738       2.76287759       4.66234679
Si       1.62528501       6.84291450      -1.46147454
Si      -0.49275400      -0.98832077       4.26835167
Si       1.92094446      -3.48970915       7.01527009
Si       0.22316609       2.61547018       2.85077344
Si      -2.89624300       3.19472861       8.14061143
Si      -0.97497883       4.21808415       2.98240213
Si      -1.91142270      -1.77525120       8.03726048
22
Lattice="5.215360084457639 -0.3661431122838342 -1.564782268076568 -1.5095732188749567 10.132011546645943 -1.0841505109751628 -4.738041371068672 -4.027728223996925 11.6045050141107" Properties=species:S:1:pos:R:3 unique_starting_index=18 config_type=initial n_minim_iter=14 stress="-0.00023255236712634844 0.0010154044494723455 0.0004889971374707401 0.0010154044494723455 0.0008285793242969808 -0.001104519807912236 0.0004889971374707401 -0.001104519807912236 0.0010401177272118948" pbc="T T T"
Si       1.37908397       8.63289026       0.07846123
Si      -1.56497851      -0.75869877       6.32990360
Si      -3.79539046      -2.19000106      10.31225346
Si      -0.25500437      -1.47795785       9.32129497
Si      -4.77441877       1.17186912      10.84794058
Si       3.99874673       2.03050742      -0.10611758
Si       2.35918281       0.54599916       0.00075949
Si      -1.19944054       2.44051350       8.89989486
Si      -1.86265360      -2.54814224       9.90438862
Si      -2.71162311       1.80122932       6.71759699
Si       0.62979657       0.90931846       4.02845268
Si      -2.40622483       4.13328993       6.45272889
Si      -3.36831062      -2.05479722       6.68921592
Si       0.08375787       7.12159341      -0.20447868
Si       1.08526890       2.76328330       4.66449517
Si       1.62088574       6.82154706      -1.46088384
Si      -0.49870841      -0.98672258       4.27708641
Si       1.90933846      -3.46665194       7.01660576
Si       0.22556305       2.61369898       2.85669199
Si      -2.90329928       3.19013191       8.14963088
Si      -0.97942961       4.20954918       2.98985516
Si      -1.90978861      -1.76911998       8.04135112
22
Lattice="5.21583641037997 -0.36733133478987207 -1.574715917095972 -1.5080765074851583 10.117765881594783 -1.0754172226262209 -4.752736665884294 -4.012433674260994 11.624562226489799" Properties=species:S:1:pos:R:3 unique_starting_index=18 config_type=initial n_minim_iter=15 stress="0.0007084280784053215 0.0009395823578115281 -0.0007415077850154223 0.0009395823578115281 0.0019402080904213411 -0.0010034185274186336 -0.0007415077850154223 -0.0010034185274186336 0.0022301795886361868" pbc="T T T"
Si       1.38392987       8.62503839       0.08322576
Si      -1.57638929      -0.75741270       6.33178701
Si      -3.80791037      -2.18022174      10.33302427
Si      -0.26533716      -1.47084856       9.33982173
Si      -4.78915677       1.17992185      10.87530888
Si       3.99854803       2.02972441      -0.11228309
Si       2.35933131       0.54465846      -0.00138455
Si      -1.21086974       2.44331676       8.91527352
Si      -1.87858842      -2.53606441       9.92030442
Si      -2.72548967       1.80205759       6.73106635
Si       0.62437764       0.91038978       4.03749051
Si      -2.41267128       4.13114984       6.46883436
Si      -3.37867932      -2.03855762       6.70337698
Si       0.08464757       7.11385056      -0.20033176
Si       1.07635223       2.76774327       4.67113682
Si       1.61936944       6.80880667      -1.46053887
Si      -0.50712581      -0.98579897       4.28755349
Si       1.89416343      -3.44994611       7.01915888
Si       0.22574197       2.61273577       2.86257356
Si      -2.91529034       3.19042827       8.16279263
Si      -0.98626583       4.20777919       3.00015785
Si      -1.91203695      -1.76255386       8.05189716
22
Lattice="5.223234547659196 -0.3694499551929201 -1.588488386400614 -1.5064529414937982 10.09437717410347 -1.0549468795285413 -4.785925856340231 -3.9845689295802185 11.627399593428702" Properties=species:S:1:pos:R:3 unique_starting_index=18 config_type=initial n_minim_iter=16 stress="0.004272447098136128 -0.0003714319272388727 -0.001662493194957218 -0.0003714319272388727 0.0037696217407336063 -0.0016104697254896393 -0.001662493194957218 -0.0016104697254896393 0.0027321190795969665" pbc="T T T"
Si       1.39719239       8.61320114       0.09137949
Si      -1.59955184      -0.75787036       6.31648603
Si      -3.83644120      -2.16104125      10.34611366
Si      -0.28941783      -1.46086263       9.35077605
Si      -4.82208211       1.19538321      10.89652308
Si       4.00438072       2.03020764      -0.12292548
Si       2.36407446       0.54376365      -0.00732281
Si      -1.23526582       2.44896912       8.91681509
Si      -1.90901928      -2.51089003       9.91797275
Si      -2.75335376       1.80109958       6.73690834
Si       0.61551640       0.91897983       4.04276363
Si      -2.42567118       4.13010213       6.47480401
Si      -3.40331262      -2.00714510       6.71433245
Si       0.09025486       7.10415038      -0.19074234
Si       1.06035981       2.78034528       4.67401551
Si       1.61870977       6.78695211      -1.45495458
Si      -0.52421698      -0.98654726       4.29540593
Si       1.86971175      -3.41606248       6.99965170
Si       0.22148205       2.61432570       2.86002970
Si      -2.94275800       3.18855913       8.16793943
Si      -0.99643168       4.20122514       3.01085047
Si      -1.91602377      -1.75199783       8.04500754
22
Lattice="5.2320659760999035 -0.3653049253082822 -1.5944771149686536 -1.4975205316613844 10.095662106799496 -1.0487683424694154 -4.814424133988127 -3.9875477877603385 11.615100329107127" Properties=species:S:1:pos:R:3 unique_starting_index=18 config_type=initial n_minim_iter=17 stress="0.007874772156522434 -0.00010538870175763517 -0.00053558264424366 -0.00010538870175763517 0.007440776362046916 -0.0007834789771459211 -0.00053558264424366 -0.0007834789771459211 0.0034925882033493964" pbc="T T T"
Si       1.41696630       8.62022290       0.08699642
Si      -1.61661186      -0.76968066       6.29395718
Si      -3.86014891      -2.16475499      10.34439691
Si      -0.30364330      -1.46625284       9.34847845
Si      -4.84565725       1.19603112      10.89702979
Si       4.01253268       2.03880352      -0.13281684
Si       2.37081005       0.54572916      -0.01017769
Si      -1.24599428       2.44587710       8.90336802
Si      -1.93716384      -2.50914645       9.90057051
Si      -2.77653246       1.79334686       6.72474411
Si       0.61135612       0.92873566       4.04032367
Si      -2.43135519       4.12602990       6.46615114
Si      -3.42551570      -1.99621650       6.71901662
Si       0.10223846       7.11089786      -0.19215487
Si       1.05569860       2.78929439       4.66985965
Si       1.62506751       6.78615142      -1.45572324
Si      -0.53728387      -0.99603805       4.29670073
Si       1.85527199      -3.39547567       6.97705515
Si       0.22352842       2.61658973       2.85022785
Si      -2.96336144       3.18536734       8.15510378
Si      -0.99970025       4.19975413       3.01035374
Si      -1.92000778      -1.76152406       8.02662573
22
Lattice="5.235520911110797 -0.3536104780191305 -1.5965170952648997 -1.4768719281552396 10.112468220194987 -1.0576770591490559 -4.838341547776322 -4.019444893687232 11.598061240911756" Properties=species:S:1:pos:R:3 unique_starting_index=18 config_type=initial n_minim_iter=18 stress="0.010538101684687788 0.001162362857165227 0.0019575444467231896 0.001162362857165227 0.01022795215247541 -0.000744764846463466 0.0019575444467231896 -0.000744764846463466 0.003893887516536119" pbc="T T T"
Si       1.44830496       8.63729611       0.06382209
Si      -1.63230983      -0.80282682       6.25783745
Si      -3.88500837      -2.19154197      10.34533565
Si      -0.31347094      -1.49337004       9.35052957
Si      -4.85910231       1.18201982      10.89611874
Si       4.01462986       2.05691448      -0.15009938
Si       2.38073484       0.55209511      -0.01366267
Si      -1.25462995       2.43329299       8.87590430
Si      -1.96485829      -2.52976159       9.87805747
Si      -2.79928640       1.76964691       6.70016456
Si       0.60761957       0.94299004       4.03505214
Si      -2.42761888       4.10890602       6.44614493
Si      -3.45615025      -1.99666538       6.72996222
Si       0.12229309       7.13520942      -0.20442580
Si       1.05465850       2.80504495       4.66198468
Si       1.64001381       6.79669773      -1.47187139
Si      -0.55040839      -1.02126789       4.30004690
Si       1.83718468      -3.37031649       6.94821145