2
Lattice="2.9378525039536303 1.0341099126156706e-16 2.9378525039536303 2.9378525039536303 2.9378525039536303 1.8507637854704022e-16 1.1523901228956685e-16 2.9378525039536303 2.9378525039536303" Properties=species:S:1:pos:R:3 n_minim_iter=1 energy=-325.9087296875307 free_energy=-325.9087296875307 pbc="T T T"
Si       0.00000000       0.00000000       0.00000000
Si       1.46892625       1.46892625       1.46892625
