2
Lattice="2.917729594996912 1.0270267457123626e-16 2.917729594996912 2.917729594996912 2.917729594996912 1.8380869233388646e-16 1.144496792139804e-16 2.917729594996912 2.917729594996912" Properties=species:S:1:pos:R:3 n_minim_iter=1 energy=-325.98050079732724 free_energy=-325.98050079732724 pbc="T T T"
Si       0.00000000       0.00000000       0.00000000
Si       1.45886480       1.45886480       1.45886480
