2
Lattice="2.600903667641651 9.1550554728228e-17 2.600903667641651 2.600903667641651 2.600903667641651 1.6384955715408811e-16 1.0202199372363944e-16 2.600903667641651 2.600903667641651" Properties=species:S:1:pos:R:3 n_minim_iter=1 energy=-326.0877428045783 free_energy=-326.0877428045783 pbc="T T T"
Si       0.00000000       0.00000000       0.00000000
Si       1.30045183       1.30045183       1.30045183
