2
Lattice="2.5488715755722557 8.971905018160143e-17 2.5488715755722557 2.5488715755722557 2.5488715755722557 1.6057168287160788e-16 9.998100395666935e-17 2.5488715755722557 2.5488715755722557" Properties=species:S:1:pos:R:3 n_minim_iter=1 stress="-0.17649209915443606 -2.30559418613071e-16 -1.2246187496749844e-16 -2.30559418613071e-16 -0.17649209915443623 9.805330621863007e-17 -1.2246187496749844e-16 9.805330621863007e-17 -0.17649209915443295" pbc="T T T"
Si       0.00000000       0.00000000       0.00000000
Si       1.27443579       1.27443579       1.27443579
