2
Lattice="2.675255112950268 9.416768974462073e-17 2.675255112950268 2.675255112950268 2.675255112950268 1.6853348741230853e-16 1.0493847339991184e-16 2.675255112950268 2.675255112950268" Properties=species:S:1:pos:R:3 n_minim_iter=1 stress="-0.020446829348578888 -1.2721088752158788e-16 -1.4947284815491806e-16 -1.2721088752158788e-16 -0.02044682934857878 -1.108006771125501e-16 -1.4947284815491806e-16 -1.108006771125501e-16 -0.020446829348579332" pbc="T T T"
Si      -0.00000000       0.00000000       0.00000000
Si       1.33762756       1.33762756       1.33762756
