2
Lattice="2.834319818745369 9.976669067433542e-17 2.834319818745369 2.834319818745369 2.834319818745369 1.7855411290783287e-16 1.1117788111738223e-16 2.834319818745369 2.834319818745369" Properties=species:S:1:pos:R:3 n_minim_iter=1 stress="0.04010434861621281 -2.90788179046305e-16 3.189899548559567e-16 -2.90788179046305e-16 0.040104348616212766 1.8102148840362472e-16 3.189899548559567e-16 1.8102148840362472e-16 0.04010434861621342" pbc="T T T"
Si      -0.00000000       0.00000000       0.00000000
Si       1.41715991       1.41715991       1.41715991
