2
Lattice="2.876629337313236 1.0125596532274435e-16 2.876629337313236 2.876629337313236 2.876629337313236 1.8121949262450407e-16 1.1283749715448638e-16 2.876629337313236 2.876629337313236" Properties=species:S:1:pos:R:3 n_minim_iter=1 stress="0.054837573437494215 -1.7331131389754466e-16 -9.870513256576259e-18 -1.7331131389754466e-16 0.05483757343749457 1.9219565435446602e-16 -9.870513256576259e-18 1.9219565435446602e-16 0.05483757343749524" pbc="T T T"
Si      -0.00000000       0.00000000       0.00000000
Si       1.43831467       1.43831467       1.43831467
