2
Lattice="2.600903667641652 9.155055472822802e-17 2.600903667641652 2.600903667641652 2.600903667641652 1.6384955715408814e-16 1.0202199372363945e-16 2.600903667641652 2.600903667641652" Properties=species:S:1:pos:R:3 n_minim_iter=1 stress="-0.08297635286810746 5.566781809118475e-17 1.1576635463749013e-16 5.566781809118475e-17 -0.0829763528681075 3.057251804150109e-16 1.1576635463749013e-16 3.057251804150109e-16 -0.08297635286810948" pbc="T T T"
Si      -0.00000000       0.00000000       0.00000000
Si       1.30045183       1.30045183       1.30045183
