2
Lattice="4.849675636780266 -2.2065781340705038e-17 1.5586423511686477e-16 -2.2065781340705136e-17 4.849675636780266 -2.5377444378064307e-16 2.424837818390133 2.424837818390133 1.3373388819585108" Properties=species:S:1:pos:R:3:forces:R:3 cutoff=-1.0 nneightol=1.2 n_minim_iter=1 energy=-325.70828605031863 stress="0.014661018051703003 -4.425554909467241e-17 1.12510632675832e-17 -4.425554909467241e-17 0.014661018051703122 -9.971530582250208e-17 1.12510632675832e-17 -9.971530582250208e-17 0.012119568648860199" free_energy=-325.70828605031863 pbc="T T T"
Si      -0.00000000      -1.21241891      -0.33433472      -0.00000000       0.00000000      -0.00000000
Si      -0.00000000       1.21241891       0.33433472       0.00000000      -0.00000000       0.00000000
