2
Lattice="5.002520896710585 -2.276121962094946e-17 1.607765449937567e-16 -2.276121962094945e-17 5.002520896710585 -2.6177254998988157e-16 2.5012604483552927 2.5012604483552927 1.3794872490529289" Properties=species:S:1:pos:R:3:forces:R:3 cutoff=-1.0 nneightol=1.2 n_minim_iter=1 energy=-325.5920234108688 stress="0.05775001345976308 1.081876068340793e-16 -4.823985296427824e-18 1.081876068340793e-16 0.057750013459763036 -2.7536916067108827e-17 -4.823985296427824e-18 -2.7536916067108827e-17 0.05497955516087193" free_energy=-325.5920234108688 pbc="T T T"
Si      -0.00000000      -1.25063022      -0.34487181      -0.00000000      -0.00000000       0.00000000
Si      -0.00000000       1.25063023       0.34487181       0.00000000      -0.00000000      -0.00000000
