2
Lattice="4.3950028110446 1.2664574464117749e-17 -2.2036683316907262e-16 1.2664574464117704e-17 4.3950028110446 4.3544258400166966e-16 2.1975014055223 2.1975014055223 1.1914777593920869" Properties=species:S:1:pos:R:3:forces:R:3 cutoff=-1.0 nneightol=1.2 n_minim_iter=1 energy=-324.63598083956714 stress="-0.3675679740770615 -2.001906484698394e-17 2.946674677290088e-17 -2.001906484698394e-17 -0.3675679740770611 7.23220564166924e-17 2.946674677290088e-17 7.23220564166924e-17 -0.3593164530606652" free_energy=-324.63598083956714 pbc="T T T"
Si      -0.00000000      -1.09875070      -0.29786944       0.00000000      -0.00000000      -0.00000000
Si      -0.00000000       1.09875070       0.29786944      -0.00000000       0.00000000       0.00000000
