2
Lattice="5.075560702284318 -2.309354707945711e-17 1.6312397898346417e-16 -2.3093547079457067e-17 5.075560702284318 -2.655945862293251e-16 2.537780351142159 2.537780351142159 1.3996285902972048" Properties=species:S:1:pos:R:3:forces:R:3 cutoff=-1.0 nneightol=1.2 n_minim_iter=1 energy=-325.5448307066589 stress="0.06743469137143787 -3.065527134405817e-17 1.5337127165273255e-17 -3.065527134405817e-17 0.06743469137143798 -3.4606851039590936e-17 1.5337127165273255e-17 -3.4606851039590936e-17 0.06312909917281927" free_energy=-325.5448307066589 pbc="T T T"
Si      -0.00000000      -1.26889017      -0.34990715      -0.00000000      -0.00000000      -0.00000000
Si      -0.00000000       1.26889018       0.34990715       0.00000000       0.00000000       0.00000000
