2
Lattice="4.536874009216177 1.3073388390025225e-17 -2.2748029998652433e-16 1.3073388390024999e-17 4.536874009216179 4.494987208878627e-16 2.2684370046080886 2.2684370046080895 1.229938799028957" Properties=species:S:1:pos:R:3:forces:R:3 cutoff=-1.0 nneightol=1.2 n_minim_iter=2 energy=-325.39903938595836 stress="-0.15554221949314204 -1.3297958880154182e-16 -1.8312502162312542e-17 -1.3297958880154182e-16 -0.1555422194931415 1.8212429259666608e-16 -1.8312502162312542e-17 1.8212429259666608e-16 -0.15538044288515576" free_energy=-325.39903938595836 pbc="T T T"
Si      -0.00000000      -1.13421850      -0.30748470       0.00000000       0.00000000      -0.00000000
Si      -0.00000000       1.13421850       0.30748470      -0.00000000      -0.00000000       0.00000000
