2
Lattice="2.632850973086425 -8.287896968680035e-16 4.287095632439488e-41 -1.316425486543212 2.280115827071424 2.27444291429869e-25 -2.0365259802679217e-40 -4.260291917908577e-25 4.2709179328701925" Properties=species:S:1:pos:R:3 n_minim_iter=1 energy=-3186.564761880532 free_energy=-3186.564761880532 pbc="T T T"
Ti       0.00000000       0.00000000       0.00000000
Ti       0.00000000       1.52007722       2.13545897
2
Lattice="2.606885149051378 -7.991317325200883e-16 6.432639844202409e-41 -1.3034425745256883 2.2576287638268764 2.2520117987155673e-25 -1.768097804244558e-40 -4.3455836802315095e-25 4.356422429803811" Properties=species:S:1:pos:R:3 n_minim_iter=2 stress="-0.26476700810474046 2.0956576623865134e-16 2.109322168769369e-17 2.0956576623865134e-16 -0.2647670081047404 1.0279945659311825e-17 2.109322168769369e-17 1.0279945659311825e-17 -0.26495580960437914" pbc="T T T"
Ti       0.00000000      -0.00000000      -0.00000000
Ti       0.00000000       1.50508584       2.17821121
