2
Lattice="2.905659909249967 -9.240747772541607e-16 4.951145757967497e-41 -1.4528299546249825 2.5163752961684582 2.5101145714328443e-25 -2.5778226798132767e-40 -4.590940484775177e-25 4.6023912029933305" Properties=species:S:1:pos:R:3 n_minim_iter=1 stress="0.03379714415642948 -4.898514624330246e-17 -1.41413841022825e-16 -4.898514624330246e-17 0.03379714415642958 2.377732039434176e-17 -1.41413841022825e-16 2.377732039434176e-17 0.03325093168554996" pbc="T T T"
Ti       0.00000000       0.00000000       0.00000000
Ti       0.00000000       1.67758353       2.30119560
