2
Lattice="3.0379136849437813 -9.661348882555308e-16 5.176501698081847e-41 -1.5189568424718898 2.6309104256657103 2.6243647383017317e-25 -3.0438900315110066e-40 -4.799901351518117e-25 4.811873259677995" Properties=species:S:1:pos:R:3 n_minim_iter=1 stress="0.09959743224094715 -6.652209517333765e-18 7.387533236895579e-19 -6.652209517333765e-18 0.09959743224094685 -3.089537647496561e-17 7.387533236895579e-19 -3.089537647496561e-17 0.10335208978993014" pbc="T T T"
Ti       0.00000000       0.00000000       0.00000000
Ti       0.00000000       1.75394028       2.40593663
