2
Lattice="2.760127758078956 -8.777918004513504e-16 4.703163917207525e-41 -1.3800638790394772 2.3903407561869656 2.3843936045353014e-25 -2.7655576292875582e-40 -4.360999794703193e-25 4.371876995129601" Properties=species:S:1:pos:R:3 n_minim_iter=1 stress="-0.10275942737259638 8.182851739662636e-17 -9.515688634270894e-17 8.182851739662636e-17 -0.10275942737259573 2.889792850817291e-17 -9.515688634270894e-17 2.889792850817291e-17 -0.1013353308697656" pbc="T T T"
Ti       0.00000000       0.00000000       0.00000000
Ti       0.00000000       1.59356050       2.18593850
