2
Lattice="2.7080373927376935 -8.612257210569315e-16 4.614403704572404e-41 -1.3540186963688459 2.3452291765090196 2.339394262162808e-25 -2.7133647889886837e-40 -4.278697056399018e-25 4.2893689774348465" Properties=species:S:1:pos:R:3 n_minim_iter=1 stress="-0.13721840922104986 -6.851738707509927e-16 -3.429490934187897e-17 -6.851738707509927e-16 -0.13721840922104997 2.7479236537038053e-18 -3.429490934187897e-17 2.7479236537038053e-18 -0.1378624392810203" pbc="T T T"
Ti       0.00000000       0.00000000       0.00000000
Ti       0.00000000       1.56348612       2.14468449
