2
Lattice="2.523851359999633 -7.866985437028981e-16 7.829419638614308e-41 -1.2619256799998158 2.185719393135587 2.180281338052721e-25 -2.1233593089577364e-40 -4.346459545129835e-25 4.357300479283307" Properties=species:S:1:pos:R:3 n_minim_iter=2 stress="-0.30928306217136237 -1.3448092939721481e-17 -1.625167655685592e-16 -1.3448092939721481e-17 -0.30928306217135954 -5.903360522138849e-16 -1.625167655685592e-16 -5.903360522138849e-16 -0.30929865399230017" pbc="T T T"
Ti       0.00000000      -0.00000000      -0.00000000
Ti       0.00000000       1.45714626       2.17865024
