2
Lattice="2.7343306622793984 -8.695876587763759e-16 4.659206542488874e-41 -1.3671653311396985 2.367999815880688 2.3621082483375647e-25 -2.7397097840589798e-40 -4.320240402621969e-25 4.331015941021825" Properties=species:S:1:pos:R:3 n_minim_iter=1 stress="-0.10275942737259638 8.182851739662636e-17 -9.515688634270894e-17 8.182851739662636e-17 -0.10275942737259573 2.889792850817291e-17 -9.515688634270894e-17 2.889792850817291e-17 -0.1013353308697656" pbc="T T T"
Ti       0.00000000       0.00000000       0.00000000
Ti       0.00000000       1.57866654       2.16550797
