2
Lattice="2.6812233801263856 -8.526981736133352e-16 4.568713538158939e-41 -1.3406116900631921 2.322007560410231 2.3162304212879817e-25 -2.0709193278543352e-40 -4.236330936515324e-25 4.246897188026055" Properties=species:S:1:pos:R:3 n_minim_iter=1 stress="-0.1779892971074497 -9.454780623283562e-16 -9.690200948254241e-17 -9.454780623283562e-16 -0.17798929710744976 -2.7808662157231315e-16 -9.690200948254241e-17 -2.7808662157231315e-16 -0.1842668317152307" pbc="T T T"
Ti       0.00000000       0.00000000       0.00000000
Ti       0.00000000       1.54800504       2.12344859
