2
Lattice="2.708037392737693 -8.612257210569313e-16 4.614403704572403e-41 -1.3540186963688459 2.345229176509019 2.3393942621628073e-25 -2.0916298950475353e-40 -4.278697056399016e-25 4.2893689774348465" Properties=species:S:1:pos:R:3 n_minim_iter=1 stress="-0.1779892971074497 -9.454780623283562e-16 -9.690200948254241e-17 -9.454780623283562e-16 -0.17798929710744976 -2.7808662157231315e-16 -9.690200948254241e-17 -2.7808662157231315e-16 -0.1842668317152307" pbc="T T T"
Ti       0.00000000       0.00000000       0.00000000
Ti       0.00000000       1.56348612       2.14468449
