2
Lattice="2.7854514456320074 -8.85845386096506e-16 4.746314620359414e-41 -1.3927257228160033 2.4122717129254077 2.4062699972015505e-25 -2.471176990538554e-40 -4.401011202108789e-25 4.41198819893927" Properties=species:S:1:pos:R:3 n_minim_iter=1 stress="-0.05055636590846987 -1.6864906412349547e-16 9.287093733827621e-18 -1.6864906412349547e-16 -0.05055636590847025 -5.671964301856073e-17 9.287093733827621e-18 -5.671964301856073e-17 -0.05214664289820459" pbc="T T T"
Ti       0.00000000       0.00000000       0.00000000
Ti       0.00000000       1.60818114       2.20599410
