14
Lattice="7.951419233988111 0.3716198420910177 2.2896486265278204 0.33554625372815305 8.115462578553673 0.02439652588705965 -1.7435796150963299 -0.17708303840960796 5.735490886667269" Properties=species:S:1:pos:R:3 unique_starting_index=20 config_type=initial n_minim_iter=1 energy=-2280.3355137534695 free_energy=-2280.3355137534695 pbc="T T T"
Si       4.39042374       5.30503485       6.92354472
Si       5.62400873       3.60049700       2.08733391
Si       2.15296213       3.00496453       1.12599131
Si       0.91937715       4.70950238       5.96220212
Si       5.96151828       5.47020315       5.42855390
Si       6.16089350       3.47601198       4.17800718
Si       0.58186759       2.83979624       2.62098214
Si       0.38249237       4.83398740       3.87152886
Si       1.66459099       4.85344827       2.10567894
Si       0.94641852       2.94935097       4.75984843
Si       4.87879488       3.45655111       5.94385710
Si       5.59696735       5.36064841       3.28968761
Si       4.10539397       5.11968922       1.76830898
Si       2.43799190       3.19031017       6.28122706
14
Lattice="7.952134605731794 0.3722174345274216 2.3007105816759847 0.33706334240857955 8.111857264655928 0.022054005191492858 -1.7349084060654658 -0.17933647693717736 5.732862368097532" Properties=species:S:1:pos:R:3 unique_starting_index=20 config_type=initial n_minim_iter=2 stress="-0.0006630071594735283 -0.0009746780302355812 0.0007731460096307162 -0.0009746780302355812 -0.0009192409492990478 0.0010773584817905589 0.0007731460096307162 0.0010773584817905589 -0.002881818780115286" pbc="T T T"
Si       4.39982394       5.30094275       6.92750579
Si       5.62581480       3.59939422       2.09406159
Si       2.15446560       3.00379547       1.12812117
Si       0.92847474       4.70534400       5.96156537
Si       5.96819997       5.46700036       5.43492222
Si       6.16560319       3.47421635       4.18530704
Si       0.58608957       2.83773786       2.62070474
Si       0.38868635       4.83052187       3.87031991
Si       1.66819897       4.85065800       2.10600809
Si       0.95323216       2.94665085       4.75990154
Si       4.88609057       3.45408022       5.94961887
Si       5.60105738       5.35808737       3.29572542
Si       4.10758489       5.11760488       1.77236015
Si       2.44670465       3.18713335       6.28326681
14
Lattice="7.95357257877137 0.37416000329639043 2.3043375444416205 0.3400801591498123 8.113100321162571 0.018510193655467907 -1.733872938436385 -0.18257344483167554 5.737631955701084" Properties=species:S:1:pos:R:3 unique_starting_index=20 config_type=initial n_minim_iter=3 stress="0.003651423116709451 -0.00035733412874319975 0.0012002641288725439 -0.00035733412874319975 0.00012166596814633787 0.0003218825903500662 0.0012002641288725439 0.0003218825903500662 0.004129280114922721" pbc="T T T"
Si       4.40378318       5.30007897       6.93195209
Si       5.62773962       3.60111317       2.09584164
Si       2.15599662       3.00460791       1.12852760
Si       0.93204018       4.70357371       5.96463805
Si       5.97177512       5.46749626       5.43858427
Si       6.16865096       3.47512788       4.18860138
Si       0.58800468       2.83719062       2.62189542
Si       0.39112884       4.82955900       3.87187831
Si       1.67084016       4.85074462       2.10593715
Si       0.95511335       2.94540017       4.76281053
Si       4.88893964       3.45394226       5.95454254
Si       5.60466645       5.35928671       3.29766916
Si       4.11001779       5.11909223       1.77259485
Si       2.44976201       3.18559465       6.28788485
14
Lattice="7.944479750344148 0.3786009961180444 2.3038021380482316 0.34638572280465946 8.115236094480448 0.010668251806357658 -1.7323530428496998 -0.18958310757379748 5.738731002090773" Properties=species:S:1:pos:R:3 unique_starting_index=20 config_type=initial n_minim_iter=4 stress="-0.00012769177289286853 0.00062739162355806 -0.0005818393435298016 0.00062739162355806 -0.003019606467478248 -0.002287855351814029 -0.0005818393435298016 -0.002287855351814029 0.000738086176986616" pbc="T T T"
Si       4.40259463       5.29793057       6.92689949
Si       5.62274740       3.60486580       2.09290642
Si       2.15591780       3.00632342       1.12630190
Si       0.93576503       4.69938818       5.96029498
Si       5.96834012       5.46839926       5.43363768
Si       6.16470720       3.47715407       4.18477140
Si       0.59017231       2.83585472       2.61956371
Si       0.39380523       4.82709991       3.86842999
Si       1.67346238       4.85053882       2.10102954
Si       0.95518952       2.94267962       4.76012232
Si       4.88505005       3.45371516       5.95217185
Si       5.60332291       5.36157437       3.29307907
Si       4.10864667       5.12213350       1.76771046
Si       2.44986576       3.18212048       6.28549093
14
Lattice="7.936911512215279 0.3851535608736583 2.3078478476291786 0.3509788347363159 8.134783068806504 0.013703870121187534 -1.7277034772685995 -0.18904077067079567 5.737886951067375" Properties=species:S:1:pos:R:3 unique_starting_index=20 config_type=initial n_minim_iter=5 stress="-0.0028393359123979854 0.00032087441572867167 0.0006585419114209948 0.00032087441572867167 0.002854600027162967 0.00015975516914114302 0.0006585419114209948 0.00015975516914114302 0.0014850831954965325" pbc="T T T"
Si       4.40399720       5.31521757       6.93029522
Si       5.61772839       3.61803211       2.09774143
Si       2.15618967       3.01567829       1.12914345
Si       0.94245848       4.71286375       5.96169724
Si       5.96646904       5.48690277       5.43841806
Si       6.16309258       3.49098114       4.18784995
Si       0.59371783       2.84399309       2.62102061
Si       0.39709429       4.83991472       3.87158872
Si       1.67679845       4.86295875       2.10285015
Si       0.95654391       2.95244659       4.76084304
Si       4.88338842       3.46793711       5.95658852
Si       5.60364296       5.37844927       3.29859563
Si       4.10691250       5.13803145       1.77200360
Si       2.45327437       3.19286441       6.28743507
14
Lattice="7.95084063155614 0.38943059154365445 2.3075357558863505 0.35396241292320235 8.140354630434478 0.019635849472494103 -1.7289206811264268 -0.18553645091476054 5.729825585735664" Properties=species:S:1:pos:R:3 unique_starting_index=20 config_type=initial n_minim_iter=6 stress="0.001937186435300058 0.001484111563312539 9.818604071312291e-05 0.001484111563312539 0.000144294229286473 0.0005603977364070047 9.818604071312291e-05 0.0005603977364070047 -0.0020126245600167064" pbc="T T T"
Si       4.41408113       5.32403793       6.92611174
Si       5.62580788       3.62524838       2.10106941
Si       2.16180123       3.02021084       1.13088545
Si       0.95007448       4.71900039       5.95592778
Si       5.97761770       5.49606122       5.43680327
Si       6.17746193       3.49882740       4.18486452
Si       0.59826466       2.84818755       2.62019392
Si       0.39842043       4.84542137       3.87213267
Si       1.68347418       4.86690412       2.10319315
Si       0.95761286       2.95939567       4.75654199
Si       4.89240818       3.47734465       5.95380404
Si       5.61826950       5.38485310       3.30045520
Si       4.11424936       5.14455040       1.77578468
Si       2.46163300       3.19969837       6.28121251
14
Lattice="7.947608641713883 0.37654339274684473 2.312535371978627 0.3390358896605493 8.147040200929954 0.024289168324099535 -1.7254308350536176 -0.17933963178971052 5.7326821368463206" Properties=species:S:1:pos:R:3 unique_starting_index=20 config_type=initial n_minim_iter=7 stress="-0.0019160771508700423 0.00030499773956076326 -0.0002177806245723882 0.00030499773956076326 -0.002331153031429329 0.0013704559630759708 -0.0002177806245723882 0.0013704559630759708 0.0006991122105534879" pbc="T T T"
Si       4.40248724       5.32285439       6.93603306
Si       5.61231617       3.62267843       2.10920941
Si       2.15872646       3.02138957       1.13347361
Si       0.94889752       4.72156553       5.96029726
Si       5.96412299       5.49267921       5.44530944
Si       6.17351420       3.49371786       4.19004032
Si       0.59709071       2.85156476       2.62419724
Si       0.38769950       4.85052610       3.87946636
Si       1.67723917       4.86751427       2.10736770
Si       0.94985241       2.96464399       4.76234989
Si       4.88397452       3.47672969       5.96213897
Si       5.61136129       5.37959997       3.30715679
Si       4.10317185       5.14268830       1.78318052
Si       2.45804184       3.20155567       6.28632615
14
Lattice="7.961682691630604 0.3594917402481027 2.3142893549226122 0.3243661703526201 8.171402872031512 0.012922653232997341 -1.724620618525438 -0.18476526651329503 5.725744036172619" Properties=species:S:1:pos:R:3 unique_starting_index=20 config_type=initial n_minim_iter=8 stress="-0.0003076584332471987 -0.0012683779946044132 -0.00014774462064368887 -0.0012683779946044132 0.00011969923933861947 -0.0013978799778766276 -0.00014774462064368887 -0.0013978799778766276 -0.001718620856368819" pbc="T T T"
Si       4.40178379       5.31996576       6.92432467
Si       5.61137362       3.62255375       2.10554973
Si       2.15964446       3.02616359       1.12863137
Si       0.95005463       4.72357560       5.94740632
Si       5.96426090       5.49013452       5.43465070
Si       6.18304666       3.48727417       4.18362782
Si       0.59716735       2.85599483       2.61830534
Si       0.37838159       4.85885518       3.86932823
Si       1.67466846       4.87463427       2.09825740
Si       0.94548183       2.96586494       4.75470229
Si       4.88675978       3.47149508       5.95469864
Si       5.61594642       5.38026440       3.29825375
Si       4.10061468       5.14657988       1.77761950
Si       2.46081357       3.19954947       6.27533654
14
Lattice="7.975304194354819 0.36938158790080966 2.3183468459078855 0.331792736877029 8.18584908352934 0.021880393931007245 -1.724460570144056 -0.1803451650243422 5.723496964147823" Properties=species:S:1:pos:R:3 unique_starting_index=20 config_type=initial n_minim_iter=9 stress="-0.001018598724570349 0.00019751558821252618 -0.00033504661633909324 0.00019751558821252618 -0.001214706778814587 6.539923737745973e-05 -0.00033504661633909324 6.539923737745973e-05 -0.0010144106040927345" pbc="T T T"
Si       4.41342893       5.33885391       6.93149474
Si       5.61664729       3.63818739       2.11073232
Si       2.16920743       3.03603160       1.13222947
Si       0.96598907       4.73669812       5.95299189
Si       5.97643704       5.50951200       5.44143916
Si       6.20172102       3.50463274       4.18957728
Si       0.60619932       2.86537351       2.62228504
Si       0.38091534       4.87025277       3.87414693
Si       1.68606464       4.88377819       2.10270905
Si       0.94741709       2.97697857       4.75818930
Si       4.89657172       3.49110732       5.96101516
Si       5.63521927       5.39790694       3.30553490
Si       4.11256759       5.15496985       1.78747059
Si       2.47006877       3.21991566       6.27625362
14
Lattice="7.985634755555328 0.3717657449511457 2.320000412626442 0.33344630775971246 8.214122753028281 0.021530981278718022 -1.7225722517868134 -0.18161154428470808 5.713235768685728" Properties=species:S:1:pos:R:3 unique_starting_index=20 config_type=initial n_minim_iter=10 stress="-0.000809730233411972 0.0012479183406132854 0.00036958512396983426 0.0012479183406132854 0.00010096469573357808 0.00015302710280173934 0.00036958512396983426 0.00015302710280173934 -0.001526504422554722" pbc="T T T"
Si       4.42121609       5.35746635       6.92242636
Si       5.61957913       3.65184249       2.11351050
Si       2.17529273       3.04681060       1.13234080
Si       0.97692968       4.75243446       5.94125666
Si       5.98303445       5.52758415       5.43551272
Si       6.21441388       3.52011270       4.18627271
Si       0.61347437       2.87669280       2.61925444
Si       0.38209493       4.88416425       3.86849445
Si       1.69251800       4.89754531       2.10061664
Si       0.94861935       2.98784060       4.75209564
Si       4.90399081       3.50673165       5.95415053
Si       5.64788946       5.41643635       3.30267152
Si       4.12095123       5.16686999       1.79172908
Si       2.47555759       3.23740696       6.26303808
14
Lattice="7.989503074675281 0.32678397608937293 2.32507306393708 0.28627027552773304 8.219061920971411 0.025747702697368466 -1.7194877566493532 -0.1687324487406079 5.713673691726478" Properties=species:S:1:pos:R:3 unique_starting_index=20 config_type=initial n_minim_iter=11 stress="0.0006730517418538743 -0.0002351652467316892 0.001768040263903065 -0.0002351652467316892 0.0008822136103708954 0.00012214456844837613 0.001768040263903065 0.00012214456844837613 0.001056258962862773" pbc="T T T"
Si       4.39369500       5.33977809       6.92558712
Si       5.59744786       3.62090656       2.11978882
Si       2.16259059       3.03733536       1.13890734
Si       0.95883774       4.75620688       5.94470564
Si       5.95136259       5.49707764       5.44202989
Si       6.20141292       3.49569119       4.19214531
Si       0.60492300       2.88003581       2.62246457
Si       0.35487268       4.88142226       3.87234914
Si       1.67007275       4.88647604       2.10484222
Si       0.92979125       2.99017789       4.75521034
Si       4.88621285       3.49063740       5.95965224
Si       5.62649435       5.38693556       3.30928412
Si       4.09290802       5.13841327       1.80336153
Si       2.46337758       3.23870018       6.26113293
14
Lattice="7.986617221948116 0.2816790934302822 2.320156003515047 0.23966399386895973 8.236804132428926 0.02437519646622271 -1.7248008611830425 -0.15988792961722098 5.724058338052483" Properties=species:S:1:pos:R:3 unique_starting_index=20 config_type=initial n_minim_iter=12 stress="0.003374544352182316 -0.0004570718303669149 0.0017657631709607155 -0.0004570718303669149 0.001326413349245142 -4.0359894677484154e-05 0.0017657631709607155 -4.0359894677484154e-05 0.0049364226324625496" pbc="T T T"
Si       4.34894674       5.32593290       6.92630404
Si       5.57165802       3.59498272       2.11560451
Si       2.15253361       3.03266239       1.14228550
Si       0.92982233       4.76361257       5.95298502
Si       5.91161389       5.47197515       5.44088850
Si       6.17767865       3.47730273       4.19164607
Si       0.58986646       2.88662015       2.62770104
Si       0.32380171       4.88129257       3.87694347
Si       1.64842217       4.87878483       2.10298162
Si       0.90268925       2.99796859       4.76324056
Si       4.85305819       3.47981047       5.96560791
Si       5.59879111       5.36062671       3.30534898
Si       4.06027708       5.11459052       1.81462608
Si       2.44120328       3.24400477       6.25396346
14
Lattice="7.974742233404649 0.17867725787652805 2.3195244817918077 0.12486059531403483 8.319240252525217 0.042852921022087015 -1.7228202796751144 -0.12405283142138539 5.7267912077886445" Properties=species:S:1:pos:R:3 unique_starting_index=20 config_type=initial n_minim_iter=13 stress="0.00592136827490027 0.00025985700666424083 -0.004725992077951582 0.00025985700666424083 -0.002083263003410185 0.002135050128924487 -0.004725992077951582 0.002135050128924487 0.001308338427731806" pbc="T T T"
Si       4.23753360       5.33346264       6.92560438
Si       5.49933401       3.55907811       2.12421953
Si       2.13924895       3.04040204       1.16356423
Si       0.87744854       4.81478656       5.96494908
Si       5.82549040       5.45089670       5.44786413
Si       6.11517150       3.46054982       4.20255382
Si       0.55129215       2.92296798       2.64130448
Si       0.26161105       4.91331486       3.88661480
Si       1.60101877       4.88438318       2.11739214
Si       0.83781136       3.05031813       4.77657918
Si       4.77576378       3.48948150       5.97177648
Si       5.53897119       5.32354655       3.31258943
Si       3.96643119       5.06556069       1.86170346
Si       2.41035136       3.30830398       6.22746515
14
Lattice="7.911407243511023 -0.04694822812081577 2.329890124581037 -0.1293140442562028 8.553719455530029 0.07860420234687009 -1.700401901905548 -0.050226351627300825 5.728600563448532" Properties=species:S:1:pos:R:3 unique_starting_index=20 config_type=initial n_minim_iter=14 stress="0.024738688105052514 -0.0016136047802842446 -0.0050677469765261635 -0.0016136047802842446 -0.0020694241583855064 0.007762243700676011 -0.0050677469765261635 0.007762243700676011 0.00763616744761034" pbc="T T T"
Si       3.97835771       5.36525280       6.91549402
Si       5.31337509       3.50908751       2.15385861
Si       2.10333358       3.09129208       1.22160087
Si       0.76831621       4.94745736       5.98323628
Si       5.62495435       5.43653123       5.47410698
Si       5.94932476       3.43281484       4.23609779
Si       0.45673695       3.02001364       2.66298791
Si       0.13236653       5.02373004       3.90099710
Si       1.50138900       4.91477553       2.15352680
Si       0.69910662       3.17802448       4.81022377
Si       4.58030229       3.54176935       5.98356809
Si       5.38258467       5.27852040       3.32687112
Si       3.73372567       4.97879245       1.97980393
Si       2.34796563       3.47775243       6.15729096
14
Lattice="7.891415560238793 -0.0958642605617933 2.3345876219185544 -0.18518709183501586 8.616541926731012 0.08618361238079102 -1.6923706908351586 -0.03456948004138946 5.728942892796946" Properties=species:S:1:pos:R:3 unique_starting_index=20 config_type=initial n_minim_iter=15 stress="0.02664448548540913 -0.002844057563415773 -0.0038239555122047838 -0.002844057563415773 -0.0029270928976444072 0.009013874597009567 -0.0038239555122047838 0.009013874597009567 0.010580308854023002" pbc="T T T"
Si       3.91741831       5.37843950       6.91385848
Si       5.26830408       3.50387248       2.16264614
Si       2.09643947       3.10766869       1.23585565
Si       0.74555370       4.98223570       5.98706799
Si       5.57993316       5.43995020       5.48166503
Si       5.90735887       3.43198696       4.24579163
Si       0.43392462       3.04615799       2.66804909
Si       0.10649890       5.05412123       3.90392250
Si       1.48120100       4.92595679       2.16321896
Si       0.66841095       3.21144772       4.81862476
Si       4.53265677       3.56015140       5.98649517
Si       5.34544683       5.27466047       3.33108936
Si       3.67812098       4.96196591       2.00759924
Si       2.33573680       3.52414227       6.14211489
14
Lattice="7.855915805910137 -0.08815553273524686 2.3445950527523536 -0.1836697428164483 8.700733742723328 0.08947660745182727 -1.673656084617574 -0.035138821945601105 5.715549130390663" Properties=species:S:1:pos:R:3 unique_starting_index=20 config_type=initial n_minim_iter=16 stress="0.010794740532319559 -0.0007414983454981576 -0.0015859241956929242 -0.0007414983454981576 -0.003170373171100174 0.004582281226070323 -0.0015859241956929242 0.004582281226070323 0.006338761589174115" pbc="T T T"
Si       3.88931758       5.42347781       6.89919354
Si       5.24172522       3.54854717       2.17330294
Si       2.10927240       3.15396158       1.25042725
Si       0.75686476       5.02889222       5.97631785
Si       5.57890020       5.49595257       5.48732199
Si       5.87424087       3.46965251       4.25615474
Si       0.41968978       3.08148681       2.66229880
Si       0.12434910       5.10778687       3.89346606
Si       1.49024072       4.96352024       2.17575686
Si       0.66946670       3.24956476       4.81933534
Si       4.50834926       3.61391915       5.97386393
Si       5.32912328       5.32787463       3.33028545
Si       3.64378923       4.98386811       2.02679321
Si       2.35480075       3.59357128       6.12282758
14
Lattice="7.853825425841322 -0.04132963707644684 2.354402464977019 -0.1327932476433582 8.699256253934298 0.07880264362514934 -1.6607180506811958 -0.05405775671491953 5.696226477912425" Properties=species:S:1:pos:R:3 unique_starting_index=20 config_type=initial n_minim_iter=17 stress="0.006079200157074657 0.0019771532983835437 0.004491008469942856 0.0019771532983835437 -0.002770318999486627 -0.004645522698617043 0.004491008469942856 -0.004645522698617043 -0.010473096924038581" pbc="T T T"
Si       3.92768763       5.42989191       6.87848512
Si       5.27315421       3.57550024       2.17478641
Si       2.13262650       3.17397695       1.25094647
Si       0.78715992       5.02836862       5.95464518
Si       5.63992536       5.52637070       5.48427911
Si       5.88693950       3.48493140       4.25524763
Si       0.42038877       3.07749816       2.64515248
Si       0.17337462       5.11893746       3.87418395
Si       1.51134116       4.98494954       2.17726997
Si       0.70941381       3.24036087       4.80226887
Si       4.54897297       3.61891932       5.95216161
Si       5.35090031       5.36350799       3.32716272
Si       3.67183896       5.00397235       2.00715262
Si       2.38847517       3.59989651       6.12227897
14
Lattice="7.828764201536835 -0.04162188278113408 2.370537960450423 -0.13751211167958632 8.688939226432675 0.09232804619397518 -1.6488199795003597 -0.04380158325021208 5.712768330136707" Properties=species:S:1:pos:R:3 unique_starting_index=20 config_type=initial n_minim_iter=18 stress="-0.01021742273495359 -0.0015403939429548912 0.005792165171786704 -0.0015403939429548912 0.00346211080863016 0.0018823817800010406 0.005792165171786704 0.0018823817800010406 -0.007994026830992262" pbc="T T T"
Si       3.90914826       5.43141685       6.91087406
Si       5.25175636       3.56739059       2.19347492
Si       2.13328385       3.17209891       1.26476028
Si       0.79067575       5.03612517       5.98215942
Si       5.63072692       5.51910332       5.51879497
Si       5.86377991       3.48271077       4.28001245
Si       0.41170519       3.08441244       2.65683937
Si       0.17865220       5.12080499       3.89562189
Si       1.50857599       4.99475105       2.19585652
Si       0.71187931       3.25202671       4.82624346
Si       4.53385612       3.60876471       5.97977781
Si       5.33055280       5.35148905       3.34939088
Si       3.64906429       4.99679875       2.02492351
Si       2.39336782       3.60671701       6.15071083
14
Lattice="7.841070372231594 -0.02444507207356993 2.3770684720745927 -0.11652412604740423 8.615390781021926 0.09413363538773241 -1.6547185723529874 -0.045265265213377044 5.739149363861372" Properties=species:S:1:pos:R:3 unique_starting_index=20 config_type=initial n_minim_iter=19 stress="-0.0035857004315296417 -0.0028763097308325872 0.001052242015444128 -0.0028763097308325872 0.006831132080774314 0.008668351360470013 0.001052242015444128 0.008668351360470013 0.002571553309142054" pbc="T T T"
Si       3.92996549       5.39108505       6.94494120
Si       5.25968070       3.53787081       2.19898524
Si       2.13986218       3.15459539       1.26541027
Si       0.81014697       5.00780963       6.01136623
Si       5.64838314       5.47636234       5.54362448
Si       5.88739849       3.45916879       4.28985955
Si       0.42144454       3.06931811       2.66672699
Si       0.18242919       5.08651166       3.92049192
Si       1.51846899       4.97878744       2.19678455
Si       0.72472545       3.22668178       4.84837571
Si       4.55135868       3.56689301       6.01356692
Si       5.34510223       5.31899867       3.36197576
Si       3.67194521       4.98499218       2.02263515
Si       2.39788247       3.56068826       6.18771633
14
Lattice="7.873434152987048 -0.07160004127649525 2.390099142283503 -0.14795543730805324 8.540542693434613 0.053180464231579704 -1.6589173193098086 -0.06573744321123502 5.76869654902442" Properties=species:S:1:pos:R:3 unique_starting_index=20 config_type=initial n_minim_iter=20 stress="0.002446645799686324 0.005332776668851081 0.011047279349315651 0.005332776668851081 -0.01071977829878925 -0.0019379274535578064 0.011047279349315651 -0.0019379274535578064 0.01051866531030133" pbc="T T T"
Si       3.89406272       5.25316269       6.93373872
Si       5.23610590       3.41718282       2.19264174
Si       2.17249867       3.15004252       1.27823744
Si       0.83045550       4.98602239       6.01933442
Si       5.66847652       5.32697546       5.55330918
Si       5.88554356       3.38369824       4.29986515
Si       0.39808488       3.07622975       2.65866698
Si       0.18101784       5.01950697       3.91211100
Si       1.51835883       4.95123039       2.18526931
Si       0.72370233       3.19202194       4.87194515
Si       4.54820257       3.45197482       6.02670684
Si       5.34285907       5.21118327       3.34003101
Si       3.65947352       4.87829748       2.03435680
Si       2.40708788       3.52490773       6.17761936
14
Lattice="7.983380278356808 -0.20705242521184752 2.397745296592946 -0.26264229053568405 8.469732554030157 -0.0009512038426823502 -1.6806162091329933 -0.07698128354506999 5.791781466320003" Properties=species:S:1:pos:R:3 unique_starting_index=20 config_type=initial n_minim_iter=21 stress="0.04784274216392677 -0.0037288498420968985 0.006660093938603943 -0.0037288498420968985 0.02542594758612011 -0.0073837077514250764 0.006660093938603943 -0.0073837077514250764 0.04203047010193911" pbc="T T T"
Si       3.77660189       5.01779502       6.86502022
Si       5.16281970       3.19056257       2.17186473
Si       2.26351989       3.16790383       1.32355533
Si       0.87730208       4.99513628       6.01671083
Si       5.72334855       5.03235782       5.56938752
Si       5.89698125       3.21234691       4.31109809
Si       0.31677323       3.15334103       2.61918804
Si       0.14314053       4.97335193       3.87747747
Si       1.48435111       4.96885153       2.16186928
Si       0.69425824       3.18299023       4.91631090
Si       4.55577067       3.21684732       6.02670627
Si       5.34586354       5.00270861       3.27226465
Si       3.60667333       4.67365138       2.07910953
Si       2.43344845       3.51204747       6.10946603
