14
Lattice="7.797282387467973 -0.059679804251756195 2.292984096820569 -0.17814190437260322 8.445824240212607 0.24828856777260847 -1.9682726291000707 0.07321248014526627 6.676987666205245" Properties=species:S:1:pos:R:3 unique_starting_index=20 config_type=initial n_minim_iter=1 energy=-2287.123285199734 free_energy=-2287.123285199734 pbc="T T T"
Si       3.06692927       5.40725842       8.32712931
Si       5.00674035       2.99241648       1.62895922
Si       2.58393858       3.05209849       0.89113102
Si       0.64412750       5.46694043       7.58930111
Si       5.81751901       4.94461096       5.48364756
Si       5.65221505       2.88825704       5.45306777
Si      -0.16665115       3.51474596       3.73461277
Si      -0.00134720       5.57109987       3.76519256
Si       1.34261883       4.16854372       2.33942137
Si       0.34440930       4.26674926       5.69799486
Si       4.30824903       4.29081320       6.87883897
Si       5.30645855       4.19260766       3.52026548
Si       3.46820072       4.20788690       2.43001525
Si       2.18266713       4.25147002       6.78824508
14
Lattice="7.7974676885516825 -0.05133586591212892 2.281770783504664 -0.16265104557407126 8.439168999096854 0.2249436633132766 -1.9711921331339648 0.05170875779425491 6.653810820814371" Properties=species:S:1:pos:R:3 unique_starting_index=20 config_type=initial n_minim_iter=2 stress="-0.007117262663693738 -0.0013819674477666857 -0.0013219263404084507 -0.0013819674477666857 -0.0028943842897060403 -0.0003860622940126434 -0.0013219263404084507 -0.0003860622940126434 -0.008636139756674096" pbc="T T T"
Si       3.07494492       5.38696160       8.28111549
Si       5.01237951       2.99503780       1.61351712
Si       2.58867959       3.05258029       0.87940978
Si       0.65124500       5.44450409       7.54700814
Si       5.82520025       4.93739597       5.44824909
Si       5.65625284       2.88280214       5.42353586
Si      -0.16157574       3.50214592       3.71227618
Si       0.00737167       5.55673975       3.73698941
Si       1.34970934       4.16251942       2.31916270
Si       0.35050739       4.24947929       5.66650273
Si       4.31391517       4.27702247       6.84136257
Si       5.31311712       4.19006260       3.49402254
Si       3.47537003       4.20414291       2.41002289
Si       2.18825448       4.23539898       6.75050238
14
Lattice="7.819416153563282 -0.04044950917986607 2.284087592299203 -0.14641065282815383 8.443036738385459 0.20846271558540644 -1.97543631187308 0.034772702312677845 6.656055964010992" Properties=species:S:1:pos:R:3 unique_starting_index=20 config_type=initial n_minim_iter=3 stress="0.006304059051460838 0.000608541864327509 -0.0008252829643161655 0.000608541864327509 -0.0015262275944334083 -0.0021050064010076836 -0.0008252829643161655 -0.0021050064010076836 -0.003479041709870154" pbc="T T T"
Si       3.09690544       5.37978020       8.27380328
Si       5.03269897       3.00269956       1.60946241
Si       2.60066375       3.05757973       0.87480299
Si       0.66487022       5.43466038       7.53914387
Si       5.85190052       4.94098218       5.44171550
Si       5.67871127       2.88571682       5.42094149
Si      -0.15433133       3.49637775       3.70689077
Si       0.01885791       5.55164311       3.72766478
Si       1.36209614       4.16370760       2.31190698
Si       0.36143514       4.24167990       5.66112002
Si       4.33547305       4.27365233       6.83669929
Si       5.33613405       4.19568004       3.48748625
Si       3.49326689       4.20778703       2.40553746
Si       2.20430230       4.22957290       6.74306881
14
Lattice="7.8098433630622655 -0.02912412948495967 2.2904443742973064 -0.130664424180121 8.451726043107719 0.19829107176591013 -1.969524280828656 0.023065354345420234 6.662736650506281" Properties=species:S:1:pos:R:3 unique_starting_index=20 config_type=initial n_minim_iter=4 stress="0.0020691978723037293 0.0004606629284369169 0.0018168909092591088 0.0004606629284369169 0.0020087472439939743 -0.005439023748826432 0.0018168909092591088 -0.005439023748826432 0.003772374451490157" pbc="T T T"
Si       3.10866084       5.38121771       8.27757314
Si       5.03269150       3.01179876       1.61030254
Si       2.60099381       3.06444955       0.87389895
Si       0.67696315       5.43386850       7.54116956
Si       5.85561031       4.95053849       5.44527385
Si       5.67952215       2.89403411       5.42632826
Si      -0.14595565       3.49512878       3.70619825
Si       0.03013251       5.55163316       3.72514384
Si       1.36909825       4.16922757       2.30999763
Si       0.37260018       4.24055796       5.66391933
Si       4.34055641       4.27643970       6.84147446
Si       5.33705448       4.20510931       3.48755276
Si       3.49631474       4.21480134       2.40875607
Si       2.21333992       4.23086592       6.74271603
14
Lattice="7.8101980865092075 -0.015079663300090843 2.2847873842634603 -0.11817967529870899 8.450789625731925 0.20690270502492117 -1.9731675634128758 0.02699174865396153 6.658899037600201" Properties=species:S:1:pos:R:3 unique_starting_index=20 config_type=initial n_minim_iter=5 stress="0.0012250592391274413 0.003704365788010548 0.001090171129813802 0.003704365788010548 0.0024537551761715155 -0.00036266142781470875 0.001090171129813802 -0.00036266142781470875 0.0034435815829629347" pbc="T T T"
Si       3.11509871       5.39383933       8.27505248
Si       5.03769356       3.01971841       1.60924664
Si       2.60375214       3.06886238       0.87553664
Si       0.68115729       5.44298330       7.54134248
Si       5.86127476       4.96452268       5.44408470
Si       5.68292031       2.90934245       5.42245855
Si      -0.14242391       3.49817903       3.70650443
Si       0.03593054       5.55335926       3.72813057
Si       1.37418434       4.17457045       2.31200451
Si       0.37717553       4.24698546       5.66509169
Si       4.34466650       4.28813126       6.83858462
Si       5.34167532       4.21571625       3.48549744
Si       3.50065932       4.22171698       2.41278199
Si       2.21819153       4.24098473       6.73780714
14
Lattice="7.817580435140726 -0.02100187917524121 2.274100809876673 -0.12613799054137353 8.440080126623773 0.2101419931597735 -1.982032460239073 0.031344602228049245 6.651512898759885" Properties=species:S:1:pos:R:3 unique_starting_index=20 config_type=initial n_minim_iter=6 stress="0.009405283838227809 0.0021591739548366662 -0.0059637446465341405 0.0021591739548366662 0.005633008592120066 -0.002442237100464812 -0.0059637446465341405 -0.002442237100464812 0.0020647968613141973" pbc="T T T"
Si       3.10881454       5.38668327       8.26097738
Si       5.04052000       3.00979262       1.60243755
Si       2.60059545       3.06373958       0.87477832
Si       0.66888998       5.44063023       7.53331815
Si       5.85823573       4.95548731       5.43437478
Si       5.68357739       2.90594497       5.41065943
Si      -0.14882575       3.49493554       3.70138092
Si       0.02583260       5.54447788       3.72509627
Si       1.36885220       4.17176259       2.30968370
Si       0.36978002       4.24445118       5.66024730
Si       4.34055778       4.27866026       6.82607201
Si       5.33962997       4.20597167       3.47550841
Si       3.49506975       4.21294123       2.41327999
Si       2.21434023       4.23748162       6.72247571
14
Lattice="7.827315925782004 -0.022804980263408606 2.288424042488181 -0.12963930306516455 8.41415458048427 0.21552659751152065 -1.9690877924460017 0.03677688134810593 6.640929705161141" Properties=species:S:1:pos:R:3 unique_starting_index=20 config_type=initial n_minim_iter=7 stress="0.0094993981219977 0.00032121827767536384 0.0008056612985972826 0.00032121827767536384 0.003798217300267414 -0.0008194724499757607 0.0008056612985972826 -0.0008194724499757607 0.0009367130017074656" pbc="T T T"
Si       3.12725847       5.37330804       8.26218440
Si       5.04563654       2.99813673       1.61283267
Si       2.60133036       3.05481844       0.88269594
Si       0.68295229       5.42998975       7.53204768
Si       5.87056017       4.94163349       5.44588631
Si       5.69833984       2.90061745       5.41945758
Si      -0.14197134       3.48649299       3.69899403
Si       0.03024899       5.52750904       3.72542277
Si       1.37164075       4.16216556       2.31365056
Si       0.38089115       4.23590121       5.65933914
Si       4.35694808       4.26596092       6.83122978
Si       5.34769768       4.19222527       3.48554121
Si       3.49856263       4.19936412       2.42455906
Si       2.23002620       4.22876236       6.72032128
14
Lattice="7.818688188454988 -0.01685223248995139 2.2913917464322946 -0.12433758524716705 8.36307419689003 0.21908624352581632 -1.9688432059675307 0.037464410863179774 6.656353623332618" Properties=species:S:1:pos:R:3 unique_starting_index=20 config_type=initial n_minim_iter=8 stress="1.3565077008980479e-05 0.0026873061680320197 -0.0014897970365786634 0.0026873061680320197 -0.005027973476060126 -0.0014065973980136987 -0.0014897970365786634 -0.0014065973980136987 -0.0019253625319035359" pbc="T T T"
Si       3.12553215       5.34304514       8.27955561
Si       5.03978003       2.98276456       1.61433467
Si       2.59997525       3.04064124       0.88727600
Si       0.68572737       5.40092181       7.55249694
Si       5.86574065       4.91848017       5.45886030
Si       5.69457474       2.89184425       5.43099444
Si      -0.14023326       3.46520621       3.70797132
Si       0.03093265       5.49184212       3.73583718
Si       1.37039193       4.14263653       2.32048834
Si       0.38224721       4.21350427       5.67352472
Si       4.35511547       4.24104985       6.84634327
Si       5.34326019       4.17018210       3.49330690
Si       3.49488202       4.17584015       2.43335090
Si       2.23062538       4.20784622       6.73348071
14
Lattice="7.791901154355222 -0.028565136104474306 2.2909052106804837 -0.14479611415617477 8.367169096205787 0.2476478357093445 -1.9637589054596738 0.06481879938486414 6.6609794032761025" Properties=species:S:1:pos:R:3 unique_starting_index=20 config_type=initial n_minim_iter=9 stress="-0.008759454360644703 -0.010321222376170839 -0.006593491013188326 -0.010321222376170839 -0.0010614992446110157 0.004847193771621103 -0.006593491013188326 0.004847193771621103 -0.0013542652093499056" pbc="T T T"
Si       3.09497433       5.35395083       8.29637306
Si       5.00257439       2.96935601       1.61668290
Si       2.58837180       3.04947193       0.90315939
Si       0.68077174       5.43406675       7.58284955
Si       5.82888299       4.93435150       5.47306090
Si       5.67258660       2.90819606       5.44098603
Si      -0.14553685       3.46907126       3.72647155
Si       0.01075954       5.49522670       3.75854642
Si       1.34459614       4.16956744       2.33900303
Si       0.36960177       4.23751885       5.68353837
Si       4.33875000       4.23385532       6.86052942
Si       5.31374436       4.16590391       3.51599408
Si       3.47134855       4.17613640       2.46272788
Si       2.21199759       4.22728636       6.73680457
14
Lattice="7.7778335570625865 0.012012163404779865 2.3154337008380175 -0.10410204473390393 8.408069443347399 0.2635409620687345 -1.9351799298154764 0.06921786547150695 6.648707294462492" Properties=species:S:1:pos:R:3 unique_starting_index=20 config_type=initial n_minim_iter=10 stress="-0.01606776220274386 -0.0031347029550410645 0.007199378752767546 -0.0031347029550410645 0.0011968667361911347 0.005705575892426625 0.007199378752767546 0.005705575892426625 -0.0006790317987598679" pbc="T T T"
Si       3.13534883       5.39965920       8.30360250
Si       4.99338424       3.00397522       1.63129769
Si       2.60320275       3.08964027       0.92407946
Si       0.74516735       5.48532426       7.59638427
Si       5.84799826       5.00823615       5.49477595
Si       5.69247620       2.96952458       5.45901710
Si      -0.10944668       3.48106332       3.73290601
Si       0.04607538       5.51977489       3.76866486
Si       1.36024301       4.22282774       2.35481993
Si       0.40607435       4.27583289       5.68099253
Si       4.37830858       4.26647174       6.87286203
Si       5.33247724       4.21346659       3.54668943
Si       3.48245321       4.21265581       2.49394144
Si       2.25609838       4.27664366       6.73374052
14
Lattice="7.795735286176164 0.060516083536986245 2.319946043984902 -0.058530718611220826 8.370563171475446 0.2853536009158118 -1.9340187577877612 0.07567241138189396 6.6442483399590175" Properties=species:S:1:pos:R:3 unique_starting_index=20 config_type=initial n_minim_iter=11 stress="0.0017291879834334914 0.0030761599760944594 0.008503619847041897 0.0030761599760944594 0.0042779242630836085 -0.00018823476545182035 0.008503619847041897 -0.00018823476545182035 0.007068481336712701" pbc="T T T"
Si       3.16633106       5.38507810       8.31051892
Si       4.99916253       3.01087273       1.63611427
Si       2.63685475       3.12167357       0.93902907
Si       0.80402328       5.49587893       7.61343371
Si       5.88031674       5.05453595       5.50173674
Si       5.72594579       3.01834531       5.46311699
Si      -0.07713093       3.45221572       3.74781125
Si       0.07724002       5.48840635       3.78643100
Si       1.38493044       4.25675554       2.36839365
Si       0.43434810       4.28229544       5.69012538
Si       4.41825537       4.24999612       6.88115433
Si       5.36883771       4.22445623       3.55942261
Si       3.50823753       4.21296920       2.53565128
Si       2.29494828       4.29378247       6.71389671
14
Lattice="7.8057776031457005 0.10421684429848513 2.3280975008275764 -0.019458949193575853 8.351599162632844 0.31306356752922065 -1.9244266548600968 0.0889746818777012 6.628488152999259" Properties=species:S:1:pos:R:3 unique_starting_index=20 config_type=initial n_minim_iter=12 stress="0.00747901483219349 -0.0011232107111235027 0.0033996885289266773 -0.0011232107111235027 0.004036269508327049 0.001986349318238472 0.0033996885289266773 0.001986349318238472 -0.0010282691166156295" pbc="T T T"
Si       3.19423051       5.37917019       8.30968240
Si       4.99489621       3.02064592       1.64128362
Si       2.66766149       3.16562050       0.95996682
Si       0.86699579       5.52414477       7.62836560
Si       5.90845361       5.11551194       5.51033546
Si       5.75772912       3.07304108       5.46884109
Si      -0.04656161       3.42927875       3.75931376
Si       0.10416288       5.47174961       3.80080813
Si       1.41171972       4.30070928       2.38092717
Si       0.45840617       4.30319878       5.69307870
Si       4.45017228       4.24408141       6.88872205
Si       5.40348583       4.24159191       3.57657053
Si       3.52149907       4.22658423       2.57968521
Si       2.34039292       4.31820646       6.68996401
14
Lattice="7.809759667218405 0.1458724586896318 2.321710658464028 0.02041240728165242 8.29832721992533 0.3285252363097453 -1.9295250122323049 0.09143352336253575 6.625202971363571" Properties=species:S:1:pos:R:3 unique_starting_index=20 config_type=initial n_minim_iter=13 stress="0.010092840156020992 -0.0026407515022894117 0.003011040314882125 -0.0026407515022894117 0.005313031206407404 -8.819562316482938e-05 0.003011040314882125 -8.819562316482938e-05 0.0017794963479694798" pbc="T T T"
Si       3.20394472       5.33829560       8.30673454
Si       4.98185477       3.01789896       1.63548088
Si       2.69670234       3.19733760       0.96870432
Si       0.91879229       5.51773424       7.63995799
Si       5.92505941       5.14913320       5.50963071
Si       5.78249154       3.11085378       5.46757806
Si      -0.02441235       3.38650001       3.76580815
Si       0.11815552       5.42477943       3.80786080
Si       1.42418243       4.32233587       2.39138401
Si       0.46902650       4.29805180       5.69623233
Si       4.47646463       4.21329733       6.88405485
Si       5.43162057       4.23758140       3.57920654
Si       3.53721728       4.21951698       2.62084655
Si       2.36342978       4.31611622       6.65459231
14
Lattice="7.795597003432594 0.18370172165907173 2.3106405049129597 0.06112823725735907 8.223437986270733 0.327361459698721 -1.9411360958256936 0.07953383396870224 6.645506210909906" Properties=species:S:1:pos:R:3 unique_starting_index=20 config_type=initial n_minim_iter=14 stress="0.010665485276266344 -5.066337993515648e-05 -0.001871987827074455 -5.066337993515648e-05 0.007548891014976221 -0.0020517430850567273 -0.001871987827074455 -0.0020517430850567273 0.012401889328795558" pbc="T T T"
Si       3.19900390       5.27644497       8.31396055
Si       4.96797108       3.01286481       1.62122651
Si       2.71658524       3.21022857       0.96954762
Si       0.94761807       5.47380873       7.66228167
Si       5.92531730       5.14826112       5.50938811
Si       5.78457960       3.12122061       5.47163181
Si      -0.00972816       3.33841242       3.77412007
Si       0.13100955       5.36545294       3.81187636
Si       1.43734525       4.30526480       2.39336151
Si       0.46603714       4.26525192       5.70311287
Si       4.47824389       4.18140875       6.89014667
Si       5.44955200       4.22142162       3.58039531
Si       3.54251343       4.20212919       2.65063290
Si       2.37307571       4.28454435       6.63287528
14
Lattice="7.773823644424067 0.2663060465924349 2.2720824621729734 0.14861630228949294 8.085622899132716 0.32804742620391625 -1.975666517051558 0.05700342296401205 6.671389876257226" Properties=species:S:1:pos:R:3 unique_starting_index=20 config_type=initial n_minim_iter=15 stress="0.001988587911103542 -0.0012025884324977096 -0.012531029184513102 -0.0012025884324977096 -0.004160614318371628 -0.0032721183201625597 -0.012531029184513102 -0.0032721183201625597 0.012297725824220795" pbc="T T T"
Si       3.17276636       5.15108514       8.30286413
Si       4.94030737       3.01614079       1.58186926
Si       2.77400707       3.25784723       0.96865563
Si       1.00646606       5.39279158       7.68965050
Si       5.92783073       5.16597692       5.49394039
Si       5.78663274       3.14645296       5.46294576
Si       0.01894270       3.24295545       3.77757937
Si       0.16014069       5.26247941       3.80857401
Si       1.46859404       4.27101214       2.38668431
Si       0.45237968       4.20694133       5.70950432
Si       4.47817939       4.13792022       6.88483546
Si       5.49439375       4.20199104       3.56201545
Si       3.56152881       4.17820679       2.70820361
Si       2.38524462       4.23072558       6.56331615
14
Lattice="7.756182687411664 0.28225022836763797 2.2614387682017645 0.17304983824322775 8.280961496238652 0.30899113736807704 -1.9718490245249136 0.038864320332939475 6.642594694962049" Properties=species:S:1:pos:R:3 unique_starting_index=20 config_type=initial n_minim_iter=16 stress="-0.01425226334867943 0.003392007391217434 -0.0059674909655172215 0.003392007391217434 0.006983874260762381 -0.003668224013237544 -0.0059674909655172215 -0.003668224013237544 -0.0027195159972926266" pbc="T T T"
Si       3.14843704       5.26245292       8.24373615
Si       4.91723269       3.10685185       1.55621955
Si       2.80894646       3.33962313       0.96928845
Si       1.04015082       5.49522419       7.65680505
Si       5.92492006       5.28011488       5.46774081
Si       5.77427703       3.20426478       5.44117181
Si       0.03246344       3.32196117       3.74528379
Si       0.18310647       5.39781126       3.77185279
Si       1.48026764       4.32879011       2.35023977
Si       0.45464245       4.28970605       5.68106967
Si       4.47711586       4.27328593       6.86278483
Si       5.50274106       4.31236999       3.53195493
Si       3.57018038       4.28515342       2.68790463
Si       2.38720312       4.31692263       6.52511997
14
Lattice="7.75344857815736 0.3074553688975691 2.260673599230198 0.1981997681879749 8.280714887745827 0.31643097973764284 -1.9704260047047517 0.039027756127295546 6.63868356705587" Properties=species:S:1:pos:R:3 unique_starting_index=20 config_type=initial n_minim_iter=17 stress="-0.016281516936956293 0.002540241133601785 -0.00664808549533593 0.002540241133601785 0.005744014865215852 -0.004107774691127141 -0.00664808549533593 -0.004107774691127141 -0.0016708446531086072" pbc="T T T"
Si       3.14840683       5.26037966       8.23800501
Si       4.90576058       3.12068609       1.55084223
Si       2.83281552       3.36681835       0.97778314
Si       1.07546176       5.50651192       7.66494591
Si       5.93260805       5.31119937       5.46903773
Si       5.78289864       3.23115084       5.44317528
Si       0.04861429       3.31599864       3.74675042
Si       0.19832371       5.39604717       3.77261286
Si       1.49085548       4.34101420       2.35089965
Si       0.46228018       4.29739220       5.68101501
Si       4.49036686       4.28618381       6.86488850
Si       5.51894216       4.32980581       3.53477313
Si       3.57692494       4.29746728       2.71155429
Si       2.40429740       4.32973073       6.50423386
14
Lattice="7.8037976051052675 0.31874702712238107 2.2928764519418903 0.19804491636981691 8.205303623064019 0.35616112149823026 -1.946110698089939 0.07124167026859762 6.607751532686785" Properties=species:S:1:pos:R:3 unique_starting_index=20 config_type=initial n_minim_iter=18 stress="0.013676251440007262 0.0009339562907685069 0.0015992703086370281 0.0009339562907685069 -0.00039294564968751246 0.001815729741858673 0.0015992703086370281 0.001815729741858673 -0.009884275438175483" pbc="T T T"
Si       3.18995512       5.24469107       8.25608956
Si       4.91608740       3.09530454       1.57883645
Si       2.86577670       3.35060125       1.00069954
Si       1.13964443       5.49998778       7.67795265
Si       5.98675071       5.28834647       5.49641699
Si       5.84509172       3.24157927       5.46885386
Si       0.06898111       3.30694585       3.76037212
Si       0.21064010       5.35371305       3.78793525
Si       1.50206421       4.31599702       2.37313599
Si       0.49271700       4.27823233       5.68741178
Si       4.55366761       4.27929530       6.88365311
Si       5.56301482       4.31705999       3.56937733
Si       3.59004117       4.25916368       2.76706773
Si       2.46569065       4.33612864       6.48972138
14
Lattice="7.802624673053063 0.28482614583826993 2.3017471605982815 0.16259584476661978 8.143650296717466 0.3512106317404642 -1.9446763328158516 0.07446887750008382 6.628712549629544" Properties=species:S:1:pos:R:3 unique_starting_index=20 config_type=initial n_minim_iter=19 stress="0.014432669634217883 0.0013780183894174076 0.0040593011769192635 0.0013780183894174076 -0.005258668610375205 0.0015736097903998358 0.0040593011769192635 0.0015736097903998358 -0.00030136436429382247" pbc="T T T"
Si       3.17567493       5.19896728       8.28247667
Si       4.91231528       3.06283742       1.58391479
Si       2.84486926       3.30397804       0.99919368
Si       1.10822890       5.44010790       7.69775555
Si       5.96901440       5.20657367       5.50997717
Si       5.83408442       3.18184436       5.48646334
Si       0.05152978       3.29637165       3.77169317
Si       0.18645976       5.32110096       3.79520701
Si       1.48586481       4.24955374       2.37456476
Si       0.48451307       4.23225460       5.70216752
Si       4.53467937       4.25339158       6.90710558
Si       5.53603112       4.27069072       3.57950282
Si       3.57293820       4.21134516       2.77403317
Si       2.44760599       4.29160016       6.50763717
14
Lattice="7.785448154419449 0.26575561496837324 2.3005996887320674 0.1436417567110756 8.166999672517429 0.3472387179489581 -1.944375458347772 0.07566659930313172 6.638514489281996" Properties=species:S:1:pos:R:3 unique_starting_index=20 config_type=initial n_minim_iter=20 stress="-0.017914596063375456 0.002960325117374099 -0.002836963064778719 0.002960325117374099 -0.004438733205549486 0.0008903551693662772 -0.002836963064778719 0.0008903551693662772 0.0023217004402125924" pbc="T T T"
Si       3.14112896       5.20308954       8.28850267
Si       4.88431071       3.07547427       1.57828805
Si       2.84358550       3.30533234       0.99785022
Si       1.10040375       5.43294762       7.70806485
Si       5.94617800       5.18871342       5.51380045
Si       5.81910839       3.16047972       5.49599112
Si       0.03853645       3.31970846       3.77255245
Si       0.16560606       5.34794217       3.79036178
Si       1.47037055       4.21847835       2.37301093
Si       0.47473132       4.22648764       5.70906441
Si       4.51434390       4.28994354       6.91334197
Si       5.50998313       4.28193425       3.57728848
Si       3.55033335       4.20928810       2.78722131
Si       2.43438111       4.29913379       6.49913159
14
Lattice="7.788609319061301 0.21025321530575763 2.30569728081788 0.08645567748220633 8.215070089201586 0.33882342492488754 -1.9421752307073596 0.08271394051649841 6.641574189973031" Properties=species:S:1:pos:R:3 unique_starting_index=20 config_type=initial n_minim_iter=21 stress="-0.014323449431080677 -0.0008355877917673391 0.00015386105638542965 -0.0008355877917673391 -0.0026549065071436078 0.002590207405221272 0.00015386105638542965 0.002590207405221272 0.004267112109364656" pbc="T T T"
Si       3.11387101       5.22560284       8.29539638
Si       4.87387510       3.07845031       1.58395698
Si       2.81901875       3.28243441       0.99069851
Si       1.05901466       5.42958694       7.70213792
Si       5.92029275       5.14790492       5.51698637
Si       5.80507536       3.11350605       5.50265604
Si       0.01259701       3.36013233       3.76910852
Si       0.12781440       5.39453120       3.78343886
Si       1.43963894       4.19355549       2.38016219
Si       0.45807005       4.22807498       5.70827732
Si       4.49325083       4.31448175       6.90593270
Si       5.47481972       4.27996226       3.57781757
Si       3.52005500       4.20039024       2.77558481
Si       2.41283477       4.30764701       6.51051009
