24
Lattice="9.036103059140267 -9.602751525858717e-15 3.085744140619681e-15 4.518051529570142 7.825494800429745 -3.8136342971936175e-15 4.518051529570132 2.608498266809919 11.104682605687602" Properties=species:S:1:pos:R:3 unique_starting_index=24 config_type=initial n_minim_iter=1 energy=-3897.1453468198893 free_energy=-3897.1453468198893 pbc="T T T"
Si       9.85503460       4.10828768      10.89889787
Si       9.58680643       6.48056648      10.89889787
Si       7.66646680       5.06213467      10.89889787
Si       9.97994779       4.40756381       8.43544281
Si       9.26516909       6.43910641       8.43544281
Si       7.86319094       4.80431860       8.43544281
Si      10.79631659       4.04639157       1.32257316
Si       9.16976903       7.32668866       1.32257316
Si       7.14222220       4.27790860       1.32257316
Si       9.95182000       6.66259350       3.23804302
Si       7.32631999       5.28723218       3.23804302
Si       9.83016783       3.70116314       3.23804302
Si      10.85993097       7.77746707       8.85903123
Si       5.90675568       5.51624257       8.85903123
Si      10.34162118       2.35727919       8.85903123
Si      11.96758362       4.01279744       9.06725492
Si       8.61322889       8.35783272       9.06725492
Si       6.52749532       3.28035867       9.06725492
Si      10.14665779       9.55339015       7.90767585
Si       4.72539776       4.01056834       7.90767585
Si      12.23625227       2.08703033       7.90767585
Si       5.07862965       1.49388987       1.95585191
Si       5.20304076       3.65127736       1.95585191
Si       3.27248283       2.68032680       1.95585191
24
Lattice="9.02579208440785 -1.1551237105922148e-14 3.2603673701462117e-15 4.512896042203934 7.8165652343736856 -3.547139081532732e-15 4.5128960422039235 2.6055217447912318 10.909550456004235" Properties=species:S:1:pos:R:3 unique_starting_index=24 config_type=initial n_minim_iter=2 stress="-0.005649108643189747 -2.1550268739962742e-16 2.618054736481417e-16 -2.1550268739962742e-16 -0.005649108643190661 -8.813396385620639e-17 2.618054736481417e-16 -8.813396385620639e-17 -0.022139823788952927" pbc="T T T"
Si       9.85365475       4.07388182      10.68255847
Si       9.59667074       6.49657443      10.68255847
Si       7.62704941       5.06267344      10.68255847
Si       9.96893444       4.38786874       8.28336552
Si       9.26711026       6.43941611       8.28336552
Si       7.84133021       4.80584485       8.28336552
Si      10.77583826       4.07918331       1.28651440
Si       9.13098777       7.29255803       1.28651440
Si       7.17054887       4.26138836       1.28651440
Si       9.90956329       6.60731969       3.19402165
Si       7.37469492       5.27827371       3.19402165
Si       9.79311669       3.74753630       3.19402165
Si      10.81887799       7.81870627       8.71722746
Si       5.87094602       5.46007005       8.71722746
Si      10.38755089       2.35435337       8.71722746
Si      11.94238033       3.94531435       8.90493737
Si       8.66365066       8.36974757       8.90493737
Si       6.47134392       3.31806777       8.90493737
Si       9.99059478       9.57539676       7.80934892
Si       4.76374903       3.86441050       7.80934892
Si      12.32303109       2.19332243       7.80934892
Si       5.05922653       1.47517420       1.89858908
Si       5.21863959       3.64383160       1.89858908
Si       3.26082066       2.69755866       1.89858908
24
Lattice="9.062507559189406 -7.964478935772458e-15 3.348036793475279e-15 4.53125377959471 7.848361768246522 -3.4535043578844634e-15 4.5312537795947 2.616120589415513 11.046940955661702" Properties=species:S:1:pos:R:3 unique_starting_index=24 config_type=initial n_minim_iter=3 stress="0.014068507850550771 3.419449290581737e-16 2.704473529823737e-16 3.419449290581737e-16 0.014068507850548917 -1.360714738359592e-16 2.704473529823737e-16 -1.360714738359592e-16 0.0004632727908576236" pbc="T T T"
Si       9.89631686       4.08312394      10.80886455
Si       9.64076673       6.52889984      10.80886455
Si       7.65043773       5.08469898      10.80886455
Si      10.00749818       4.40336326       8.38627142
Si       9.30784068       6.46506602       8.38627142
Si       7.87218246       4.82829347       8.38627142
Si      10.81776261       4.10594870       1.29905437
Si       9.16027703       7.31548288       1.29905437
Si       7.20948168       4.27529117       1.29905437
Si       9.94135966       6.62062470       3.23811477
Si       7.42070521       5.29915767       3.23811477
Si       9.82545645       3.77694039       3.23811477
Si      10.85517799       7.86455621       8.83051613
Si       5.88651976       5.46858180       8.83051613
Si      10.44582358       2.36358475       8.83051613
Si      11.98846565       3.94601309       9.01716862
Si       8.71343381       8.40930926       9.01716862
Si       6.48562186       3.34140040       9.01716862
Si       9.99408781       9.62507204       7.91830822
Si       4.79241341       3.84259791       7.91830822
Si      12.40102010       2.22905281       7.91830822
Si       5.07546974       1.47739130       1.91772445
Si       5.24531339       3.65679008       1.91772445
Si       3.27297686       2.71417961       1.91772445
24
Lattice="9.03224293862549 -6.429464526724947e-15 3.2494609194865446e-15 4.516121469312751 7.822151838002275 -3.42013127479305e-15 4.516121469312743 2.607383946000765 11.086600284718577" Properties=species:S:1:pos:R:3 unique_starting_index=24 config_type=initial n_minim_iter=4 stress="0.002828891274891909 4.163589102436201e-16 3.804280221596175e-16 4.163589102436201e-16 0.0028288912748890066 -5.30955056263013e-16 3.804280221596175e-16 -5.30955056263013e-16 0.002517240636557319" pbc="T T T"
Si       9.86371611       4.06809239      10.84548840
Si       9.60955557       6.50818253      10.84548840
Si       7.62345579       5.06802798      10.84548840
Si       9.97303522       4.38851177       8.41618371
Si       9.27740469       6.44264596       8.41618371
Si       7.84628756       4.81314516       8.41618371
Si      10.78146893       4.09439711       1.30290798
Si       9.12789860       7.28982743       1.30290798
Si       7.18735993       4.26007836       1.30290798
Si       9.90600664       6.59494354       3.25068782
Si       7.40009301       5.28138163       3.25068782
Si       9.79062782       3.76797773       3.25068782
Si      10.81659634       7.84177680       8.86276917
Si       5.86500889       5.44655882       8.86276917
Si      10.41512224       2.35596728       8.86276917
Si      11.94781288       3.93011773       9.04974514
Si       8.68699674       8.38205061       9.04974514
Si       6.46191784       3.33213456       9.04974514
Si       9.95336892       9.59613625       7.94931811
Si       4.77730275       3.82180221       7.94931811
Si      12.36605580       2.22636444       7.94931811
Si       5.05719107       1.47181444       1.92350949
Si       5.22901781       3.64374872       1.92350949
Si       3.26215418       2.70658790       1.92350949
24
Lattice="9.03170947073623 -2.9191513113691027e-15 3.2603526838819176e-15 4.515854735368118 7.821689841258073 -3.428298535701591e-15 4.515854735368113 2.6072299470860316 11.016721139168038" Properties=species:S:1:pos:R:3 unique_starting_index=24 config_type=initial n_minim_iter=5 stress="-0.009132736806158791 2.2860480896303946e-16 1.9572280680018105e-16 2.2860480896303946e-16 -0.009132736806160563 -6.485814439628448e-16 1.9572280680018105e-16 -6.485814439628448e-16 -0.004774843073172146" pbc="T T T"
Si       9.86073154       4.06898696      10.76385899
Si       9.60920620       6.50515053      10.76385899
Si       7.62518933       5.06924141      10.76385899
Si       9.95206163       4.39956515       8.36342482
Si       9.27725205       6.41895562       8.36342482
Si       7.86581339       4.82485814       8.36342482
Si      10.78465520       4.09950011       1.29208974
Si       9.12081920       7.29003532       1.29208974
Si       7.18965266       4.25384347       1.29208974
Si       9.88975083       6.56711567       3.23450010
Si       7.43125362       5.28121763       3.23450010
Si       9.77412260       3.79504561       3.23450010
Si      10.79604483       7.86486910       8.80473830
Si       5.85421919       5.41721454       8.80473830
Si      10.44486304       2.36129527       8.80473830
Si      11.94633139       3.93999985       9.00134120
Si       8.67811239       8.37582655       9.00134120
Si       6.47068328       3.32755251       9.00134120
Si       9.96708538       9.61964153       7.91262033
Si       4.74902141       3.82192838       7.91262033
Si      12.37902027       2.20180899       7.91262033
Si       5.04594036       1.47147101       1.90279629
Si       5.23440712       3.63417703       1.90279629
Si       3.26721538       2.71604102       1.90279629
24
Lattice="9.113288734154617 1.1852892165184976e-14 3.2222600682706307e-15 4.556644367077296 7.892339555800429 -3.442335479217417e-15 4.5566443670773005 2.6307798519334877 11.02869991080406" Properties=species:S:1:pos:R:3 unique_starting_index=24 config_type=initial n_minim_iter=6 stress="-0.026667248480694752 -7.937851216965898e-16 4.170818412511395e-16 -7.937851216965898e-16 -0.026667248480694718 -6.363297286068139e-16 4.170818412511395e-16 -6.363297286068139e-16 0.0006188526020405358" pbc="T T T"
Si       9.93858379       4.11483799      10.72760089
Si       9.69373044       6.54964705      10.72760089
Si       7.70755061       5.12019330      10.72760089
Si      10.02904174       4.42606382       8.38547595
Si       9.37897198       6.47237301       8.38547595
Si       7.93185112       4.88624149       8.38547595
Si      10.89786437       4.15329451       1.28629556
Si       9.18078582       7.36118013       1.28629556
Si       7.26121465       4.27020368       1.28629556
Si       9.92011040       6.52174558       3.25228945
Si       7.61852401       5.33019483       3.25228945
Si       9.80123043       3.93273792       3.25228945
Si      10.80532021       7.99508927       8.80640229
Si       5.89996604       5.36013716       8.80640229
Si      10.63457859       2.42945189       8.80640229
Si      12.00969658       4.02058079       9.04220667
Si       8.73980317       8.39041194       9.04220667
Si       6.59036509       3.37368560       9.04220667
Si      10.11373181       9.78675486       7.95651802
Si       4.69413233       3.86537124       7.95651802
Si      12.53200071       2.13255223       7.95651802
Si       5.05194253       1.48350038       1.87433400
Si       5.30256755       3.63336039       1.87433400
Si       3.31542166       2.77547801       1.87433400
24
Lattice="9.230173737612253 1.9091312340567302e-14 3.110067924644866e-15 4.615086868806108 7.993564938116178 -3.4213810186732265e-15 4.615086868806117 2.664521646038741 10.836538179250121" Properties=species:S:1:pos:R:3 unique_starting_index=24 config_type=initial n_minim_iter=7 stress="-0.009698036838435214 -8.949364623834148e-17 1.312480906508617e-15 -8.949364623834148e-17 -0.00969803683843428 -8.474472040226503e-16 1.312480906508617e-15 -8.474472040226503e-16 -0.0035316409483726508" pbc="T T T"
Si      10.05791889       4.17059247      10.51127704
Si       9.81954808       6.62511703      10.51127704
Si       7.81305286       5.19141958      10.51127704
Si      10.14450573       4.47686678       8.24591333
Si       9.51101333       6.54696629       8.24591333
Si       8.03500077       4.96329602       8.24591333
Si      11.04593685       4.22005877       1.26025649
Si       9.28270003       7.45603254       1.26025649
Si       7.36188295       4.31103777       1.26025649
Si      10.00754301       6.53543890       3.20306227
Si       7.79671894       5.39906702       3.20306227
Si       9.88625789       4.05262316       3.20306227
Si      10.90208532       8.12571697       8.65352498
Si       5.97222658       5.37862436       8.65352498
Si      10.81620793       2.48278776       8.65352498
Si      12.14183069       4.09345210       8.90416243
Si       8.84439770       8.46840778       8.90416243
Si       6.70429144       3.42526920       8.90416243
Si      10.22984002       9.97247846       7.83961758
Si       4.70900686       3.87306211       7.83961758
Si      12.75167295       2.14158851       7.83961758
Si       5.09211507       1.49698059       1.81892608
Si       5.38769206       3.66141071       1.81892608
Si       3.36545210       2.83517284       1.81892608
24
Lattice="9.275350721017801 2.5359269765950047e-14 3.3881946899732413e-15 4.637675360508876 8.03268935341173 -3.0984053689910262e-15 4.63767536050889 2.6775631178039276 10.812293278049188" Properties=species:S:1:pos:R:3 unique_starting_index=24 config_type=initial n_minim_iter=8 stress="0.0075592081824192555 1.0395495821975967e-15 1.9830410895189204e-15 1.0395495821975967e-15 0.007559208182422272 -1.3435382459828742e-15 1.9830410895189204e-15 -1.3435382459828742e-15 0.002064794820332151" pbc="T T T"
Si      10.09252665       4.20573585      10.47156652
Si       9.86216311       6.63751655      10.47156652
Si       7.87136102       5.22212552      10.47156652
Si      10.18294179       4.49848889       8.23573933
Si       9.56342397       6.56944183       8.23573933
Si       8.07968502       4.99744719       8.23573933
Si      11.10535294       4.24060902       1.26147976
Si       9.32554891       7.49721326       1.26147976
Si       7.39514893       4.32755563       1.26147976
Si      10.03724496       6.53125269       3.19365380
Si       7.87584729       5.42688277       3.19365380
Si       9.91295853       4.10724245       3.19365380
Si      10.94598816       8.15676574       8.62994539
Si       6.01374009       5.40112095       8.62994539
Si      10.86632252       2.50749122       8.62994539
Si      12.18939600       4.14836916       8.89983290
Si       8.86340944       8.48214202       8.89983290
Si       6.77324533       3.43486674       8.89983290
Si      10.29737551      10.02745941       7.82517666
Si       4.71797818       3.90405908       7.82517666
Si      12.81069709       2.13385942       7.82517666
Si       5.10108253       1.50618467       1.80650228
Si       5.42041434       3.66457473       1.80650228
Si       3.39152782       2.86192916       1.80650228
24
Lattice="9.308870501543112 3.037193896785387e-14 3.5073158671233374e-15 4.6544352507715265 8.06171833487593 -3.095253647522445e-15 4.654435250771543 2.687239444958663 10.77058816497485" Properties=species:S:1:pos:R:3 unique_starting_index=24 config_type=initial n_minim_iter=9 stress="0.010733530111561855 1.1625086660564631e-15 3.609154334412433e-15 1.1625086660564631e-15 0.010733530111569906 -2.2474286179002903e-15 3.609154334412433e-15 -2.2474286179002903e-15 0.00826824978998163" pbc="T T T"
Si      10.11597999       4.23171665      10.41297860
Si       9.89497596       6.64483733      10.41297860
Si       7.91565416       5.24688189      10.41297860
Si      10.20797931       4.51555012       8.21005380
Si       9.60316930       6.58259434       8.21005380
Si       8.11546150       5.02529140       8.21005380
Si      11.14666529       4.26170218       1.25884933
Si       9.35366508       7.52244422       1.25884933
Si       7.42627974       4.33928947       1.25884933
Si      10.05358731       6.51881435       3.18005850
Si       7.94548759       5.44725484       3.18005850
Si       9.92753521       4.15736668       3.18005850
Si      10.96696983       8.19069095       8.59438394
Si       6.04090872       5.40232900       8.59438394
Si      10.91873156       2.53041592       8.59438394
Si      12.21988178       4.17938287       8.87886200
Si       8.88834744       8.49303662       8.87886200
Si       6.81838088       3.45101637       8.87886200
Si      10.33506785      10.06553299       7.80341376
Si       4.73319888       3.91766482       7.80341376
Si      12.85834338       2.14023807       7.80341376
Si       5.10484704       1.51065514       1.79118767
Si       5.44818033       3.66559965       1.79118767
Si       3.41027699       2.88546274       1.79118767
24
Lattice="9.363368943791558 4.222586140205151e-14 3.3375430904629367e-15 4.68168447189574 8.108915370329768 -2.919627462469125e-15 4.681684471895762 2.702971790109948 10.635625548323915" Properties=species:S:1:pos:R:3 unique_starting_index=24 config_type=initial n_minim_iter=10 stress="0.011923335494979828 6.375134959263433e-16 3.4827457146444103e-15 6.375134959263433e-16 0.011923335494985777 -2.6037071305212576e-15 3.4827457146444103e-15 -2.6037071305212576e-15 -0.005630446301008047" pbc="T T T"
Si      10.14296828       4.28375806      10.24029232
Si       9.94540951       6.64218918      10.24029232
Si       8.00172764       5.29188270      10.24029232
Si      10.25155536       4.53702559       8.12183070
Si       9.67177986       6.60959458       8.12183070
Si       8.16677021       5.07120977       8.12183070
Si      11.20862595       4.30238880       1.24929313
Si       9.39644599       7.55576041       1.24929313
Si       7.48503350       4.35968073       1.24929313
Si      10.07246385       6.48455339       3.13531629
Si       8.07471707       5.48073288       3.13531629
Si       9.94292452       4.25254367       3.13531629
Si      10.99830636       8.24187718       8.48190450
Si       6.08990876       5.40387412       8.48190450
Si      11.00189031       2.57207863       8.48190450
Si      12.28578910       4.23448339       8.78587203
Si       8.91667222       8.52256378       8.78587203
Si       6.88764411       3.46078277       8.78587203
Si      10.39911421      10.13544078       7.73100624
Si       4.74963066       3.93817670       7.73100624
Si      12.94136056       2.14421246       7.73100624
Si       5.10363073       1.51789287       1.75611287
Si       5.49701886       3.66092743       1.75611287
Si       3.44440242       2.93009426       1.75611287
24
Lattice="9.328190691380875 4.466986236491207e-14 3.6069472973477475e-15 4.664095345690398 8.078450110081382 -2.7365879872195573e-15 4.66409534569042 2.6928167033604877 10.729583241803601" Properties=species:S:1:pos:R:3 unique_starting_index=24 config_type=initial n_minim_iter=11 stress="-0.0011701371667224563 -1.931950571869974e-16 1.7601758621749251e-15 -1.931950571869974e-16 -0.001170137166721516 -1.2648131626836377e-15 1.7601758621749251e-15 -1.2648131626836377e-15 0.013798183836080466" pbc="T T T"
Si      10.07179632       4.29217253      10.33388460
Si       9.90335184       6.57634522      10.33388460
Si       8.00942251       5.28838167      10.33388460
Si      10.21611405       4.52309113       8.18849847
Si       9.63121161       6.58586873       8.18849847
Si       8.13724502       5.04793956       8.18849847
Si      11.14847290       4.29622931       1.27390707
Si       9.36150028       7.50674609       1.27390707
Si       7.47459750       4.35392401       1.27390707
Si      10.02731138       6.44924941       3.14736374
Si       8.05751095       5.45928168       3.14736374
Si       9.89974836       4.24836833       3.14736374
Si      10.95802775       8.19173792       8.55741619
Si       6.08311344       5.39406145       8.55741619
Si      10.94342949       2.57110004       8.55741619
Si      12.25768108       4.21440986       8.85848799
Si       8.87775391       8.50825828       8.85848799
Si       6.84913568       3.43423128       8.85848799
Si      10.34655503      10.07415235       7.81339495
Si       4.75863108       3.92330332       7.81339495
Si      12.87938457       2.15944375       7.81339495
Si       5.07600078       1.50579925       1.76598447
Si       5.48612897       3.64304600       1.76598447
Si       3.43015489       2.92960406       1.76598447
24
Lattice="9.32728265348777 4.5821419222862846e-14 3.4516707249054036e-15 4.663641326743845 8.077663726198352 -2.734108850294351e-15 4.663641326743864 2.6925545753994777 10.674063196618775" Properties=species:S:1:pos:R:3 unique_starting_index=24 config_type=initial n_minim_iter=12 stress="-0.013215075956355765 -8.241644621795865e-17 3.566064372661975e-15 -8.241644621795865e-17 -0.01321507595635043 -3.1618510484975143e-15 3.566064372661975e-15 -3.1618510484975143e-15 0.014618633684158519" pbc="T T T"
Si      10.03707489       4.31508199      10.27602835
Si       9.89905631       6.53482085      10.27602835
Si       8.04571536       5.30542382      10.27602835
Si      10.22176180       4.53878214       8.14636794
Si       9.61298284       6.58291432       8.14636794
Si       8.14710193       5.03363019       8.14636794
Si      11.12180375       4.31365530       1.28916379
Si       9.35792743       7.47493693       1.28916379
Si       7.50211538       4.36673442       1.28916379
Si      10.02144253       6.44121343       3.10894754
Si       8.06558865       5.45821710       3.10894754
Si       9.89481538       4.25589612       3.10894754
Si      10.95767296       8.17005102       8.51965320
Si       6.10025616       5.40459764       8.51965320
Si      10.92391744       2.58067798       8.51965320
Si      12.26552684       4.20263496       8.80229086
Si       8.88221232       8.52094035       8.80229086
Si       6.83410741       3.43175134       8.80229086
Si      10.32018787      10.05337475       7.78913752
Si       4.78799252       3.91085750       7.78913752
Si      12.87366618       2.19109441       7.78913752
Si       5.05903002       1.50238229       1.74894009
Si       5.49666549       3.63005737       1.74894009
Si       3.43522708       2.94522326       1.74894009
24
Lattice="9.338587088696729 4.0567932624868926e-14 3.690020179309e-15 4.669293544348327 8.087453654264745 -2.51824851945127e-15 4.669293544348343 2.6958178847549408 10.613342318658953" Properties=species:S:1:pos:R:3 unique_starting_index=24 config_type=initial n_minim_iter=13 stress="-0.00939008497977573 -4.724401503336814e-16 2.4231428994687058e-15 -4.724401503336814e-16 -0.009390084979770693 -2.786406577066965e-15 2.4231428994687058e-15 -2.786406577066965e-15 -0.0015250616849132443" pbc="T T T"
Si      10.03976586       4.31388817      10.22206756
Si       9.92135357       6.53774820      10.22206756
Si       8.05464044       5.32327013      10.22206756
Si      10.25081160       4.56339601       8.09816486
Si       9.59975058       6.59576525       8.09816486
Si       8.16519769       5.01574524       8.09816486
Si      11.11042018       4.33604272       1.30792690
Si       9.36684001       7.45388476       1.30792690
Si       7.53849968       4.38497902       1.30792690
Si      10.03943440       6.45730552       3.06734628
Si       8.06526542       5.46575247       3.06734628
Si       9.91106004       4.25184851       3.06734628
Si      10.97652684       8.16483084       8.47828542
Si       6.11795890       5.42353567       8.47828542
Si      10.92127413       2.58654000       8.47828542
Si      12.29117021       4.18729311       8.73369119
Si       8.90528593       8.55081909       8.73369119
Si       6.81930372       3.43679430       8.73369119
Si      10.30874735      10.04558739       7.75880956
Si       4.82306570       3.90484339       7.75880956
Si      12.88394682       2.22447573       7.75880956
Si       5.05229582       1.50098932       1.73162300
Si       5.51254337       3.62492187       1.73162300
Si       3.44304005       2.96154166       1.73162300
24
Lattice="9.39749330945071 4.733561791667684e-14 2.9259198513368353e-15 4.698746654725313 8.13846793787863 -2.4301165252278636e-15 4.698746654725329 2.7128226459595717 10.601454205602375" Properties=species:S:1:pos:R:3 unique_starting_index=24 config_type=initial n_minim_iter=14 stress="-0.010464672680533806 -9.832066167244437e-16 1.718164003434067e-15 -9.832066167244437e-16 -0.010464672680528277 -2.6965268162358554e-15 1.718164003434067e-15 -2.6965268162358554e-15 -0.020126190680997573" pbc="T T T"
Si      10.07134760       4.34139783      10.19012796
Si       9.99955107       6.55134396      10.19012796
Si       8.12157985       5.38419327      10.19012796
Si      10.33760696       4.62500537       8.09445279
Si       9.62081006       6.64012756       8.09445279
Si       8.23406150       5.01180214       8.09445279
Si      11.14887895       4.40575864       1.35541932
Si       9.40504730       7.45233308       1.35541932
Si       7.63855227       4.41884335       1.35541932
Si      10.07932547       6.43250495       3.02354599
Si       8.18461025       5.51269944       3.02354599
Si       9.92854280       4.33173068       3.02354599
Si      11.02174178       8.20429929       8.47852152
Si       6.17898318       5.44295873       8.47852152
Si      10.99175356       2.62967704       8.47852152
Si      12.37440987       4.21242149       8.70840522
Si       8.95971673       8.61034256       8.70840522
Si       6.85835193       3.45417102       8.70840522
Si      10.35253673      10.10405703       7.79525595
Si       4.86834725       3.91353129       7.79525595
Si      12.97159454       2.25934675       7.79525595
Si       5.03485965       1.49454960       1.69685492
Si       5.58574463       3.61304156       1.69685492
Si       3.47563428       3.03087597       1.69685492
24
Lattice="9.445447787237116 4.9142951130681705e-14 2.747151196424658e-15 4.722723893618514 8.179997733866877 -2.5438431467063008e-15 4.722723893618532 2.726665911288986 10.773708341022914" Properties=species:S:1:pos:R:3 unique_starting_index=24 config_type=initial n_minim_iter=15 stress="0.01215545430416263 1.720517089258335e-17 8.641263737445545e-16 1.720517089258335e-17 0.012155454304163305 -2.2891546559291035e-15 8.641263737445545e-16 -2.2891546559291035e-15 -0.005451671844397741" pbc="T T T"
Si      10.12406612       4.33568788      10.33694149
Si      10.07404573       6.59985451      10.33694149
Si       8.13823010       5.42445227      10.33694149
Si      10.43989619       4.69615220       8.23690066
Si       9.60395943       6.69313921       8.23690066
Si       8.29248633       4.97070324       8.23690066
Si      11.19264602       4.48161866       1.43593445
Si       9.41337601       7.45230646       1.43593445
Si       7.73031992       4.42606953       1.43593445
Si      10.16398135       6.41765459       3.03106755
Si       8.25105205       5.59343876       3.03106755
Si       9.92130855       4.34890130       3.03106755
Si      11.06922635       8.22197908       8.63128583
Si       6.23583870       5.47524168       8.63128583
Si      11.03127690       2.66277389       8.63128583
Si      12.44617789       4.23728923       8.82209235
Si       8.99820557       8.66006162       8.82209235
Si       6.89195848       3.46264380       8.82209235
Si      10.38801682      10.13792875       7.96556356
Si       4.91718238       3.92732209       7.96556356
Si      13.03114274       2.29474382       7.96556356
Si       5.00844335       1.48785453       1.68452400
Si       5.65270535       3.59351191       1.68452400
Si       3.50702157       3.09863048       1.68452400
24
Lattice="9.489476363668057 5.6527786779995466e-14 2.8317619104059326e-15 4.744738181833978 8.218127599548541 -2.708885936920347e-15 4.744738181833997 2.739375866516211 10.985327361116854" Properties=species:S:1:pos:R:3 unique_starting_index=24 config_type=initial n_minim_iter=16 stress="0.019698483198326382 9.630068121530807e-16 9.658578617920751e-16 9.630068121530807e-16 0.01969848319832562 -1.3337728583877683e-15 9.658578617920751e-16 -1.3337728583877683e-15 -0.004817096929497692" pbc="T T T"
Si      10.17643098       4.34251491      10.50156767
Si      10.13000807       6.64179029      10.50156767
Si       8.16198863       5.45194918      10.50156767
Si      10.53209040       4.77907858       8.42461949
Si       9.57410313       6.73151856       8.42461949
Si       8.36223414       4.92565725       8.42461949
Si      11.24670677       4.59048352       1.54911790
Si       9.38012305       7.44469202       1.54911790
Si       7.84159785       4.40107885       1.54911790
Si      10.29488551       6.37347591       3.03786830
Si       8.31191698       5.72889442       3.03786830
Si       9.86162518       4.33388405       3.03786830
Si      11.08830802       8.20863868       8.82288435
Si       6.32590814       5.49843710       8.82288435
Si      11.05421150       2.72917861       8.82288435
Si      12.51715010       4.27404071       8.96826016
Si       9.01894890       8.70314962       8.96826016
Si       6.93232867       3.45906406       8.96826016
Si      10.43547562      10.15709482       8.17434330
Si       4.96491183       3.95883958       8.17434330
Si      13.06804022       2.32031999       8.17434330
Si       4.96006221       1.48301759       1.65059184
Si       5.72511341       3.55403109       1.65059184
Si       3.54903751       3.18107811       1.65059184
24
Lattice="9.487601943831741 5.982750613847015e-14 2.4450576506147612e-15 4.7438009719158165 8.21650430435293 -3.1423826963766115e-15 4.743800971915837 2.7388347681176755 11.148914614720887" Properties=species:S:1:pos:R:3 unique_starting_index=24 config_type=initial n_minim_iter=17 stress="0.02459281660560638 3.214310935573032e-16 1.3354160564522794e-15 3.214310935573032e-16 0.024592816605603772 -1.5525776497150375e-15 1.3354160564522794e-15 -1.5525776497150375e-15 0.0012005057191249143" pbc="T T T"
Si      10.19932992       4.33936916      10.64207628
Si      10.11753406       6.66319424      10.64207628
Si       8.14594044       5.43044440      10.64207628
Si      10.53445311       4.79907249       8.56724821
Si       9.55185770       6.72356777       8.56724821
Si       8.37649360       4.91036754       8.56724821
Si      11.27801553       4.62732439       1.60173869
Si       9.32881471       7.45338576       1.60173869
Si       7.85597417       4.35229765       1.60173869
Si      10.37297826       6.34807682       3.07617290
Si       8.29111802       5.80922428       3.07617290
Si       9.79870813       4.27570670       3.07617290
Si      11.06597207       8.18816538       8.96345722
Si       6.35105768       5.48933025       8.96345722
Si      11.04577466       2.75551217       8.96345722