18
Lattice="8.872797631111862 1.4482402058880817e-15 2.096616646885443e-28 -4.436398815555931 7.684068151181258 2.4347223464844903e-28 -1.1397655480564302e-28 -2.1863674977731757e-28 4.823442125121398" Properties=species:S:1:pos:R:3 unique_starting_index=50 config_type=initial n_minim_iter=1 energy=-2927.41409762281 free_energy=-2927.41409762281 pbc="T T T"
Si       2.70655774       6.31657444       3.68629218
Si      -0.31936376       2.18183316       0.47066410
Si      -2.38719400       6.86972869       2.07847814
Si       1.72984106       1.36749370       1.27457112
Si       4.75576256       5.50223499       2.88238516
Si       6.82359280       0.81433945       4.49019920
Si       6.35194628       3.35833950       1.47745435
Si       4.16883299       0.50395154       3.08526840
Si       2.78841715       3.82177709       4.69308244
Si      -1.91554748       4.32572864       3.88917542
Si       0.26756581       7.18011660       0.67354733
Si       1.64798165       3.86229105       2.28136138
Si      -1.92259131       6.68910967       4.33230724
Si       2.31783574       6.00452622       1.11667915
Si      -0.39524445       2.67450040       2.72449320
Si       6.35899011       0.99495847       1.92058617
Si       2.11856306       1.67954192       3.52840022
Si       4.83164325       5.00956774       0.31277213
18
Lattice="8.752116412382914 1.6573619017961217e-15 2.0711736290830777e-28 -4.376058206191458 7.579555150002323 2.4077542737466907e-28 -1.1426555132651602e-28 -2.190292973900171e-28 4.842743435193845" Properties=species:S:1:pos:R:3 unique_starting_index=50 config_type=initial n_minim_iter=2 stress="-0.013762919432599385 1.0678750636648314e-16 -6.402066522456635e-17 1.0678750636648314e-16 -0.013762919432599828 7.991783445711724e-18 -6.402066522456635e-17 7.991783445711724e-18 -0.011150555193926787" pbc="T T T"
Si       2.67223632       6.23088527       3.69068887
Si      -0.31607144       2.14988796       0.46219325
Si      -2.35616490       6.77833705       2.07644106
Si       1.70382187       1.34866987       1.26931715
Si       4.69212963       5.42966718       2.88356497
Si       6.73222309       0.80121809       4.49781278
Si       6.26486140       3.30732105       1.48171007
Si       4.10785154       0.50036549       3.09595788
Si       2.75546166       3.77186860       4.71020569
Si      -1.88880320       4.27223410       3.90308179
Si       0.26820665       7.07918965       0.67458616
Si       1.62059654       3.80768654       2.28883397
Si      -1.90069522       6.59248343       4.36165389
Si       2.28354752       5.92936377       1.13315827
Si      -0.38285232       2.63726309       2.74740608
Si       6.27675342       0.98707171       1.94028218
Si       2.09251067       1.65019137       3.55452999
Si       4.75891052       4.94229206       0.32603437
18
Lattice="8.72802500526685 1.4318394807472425e-15 2.089770790490606e-28 -4.364012502633426 7.558691379426903 2.4431794559173794e-28 -1.1471053771436748e-28 -2.1876706992621064e-28 4.910338136514676" Properties=species:S:1:pos:R:3 unique_starting_index=50 config_type=initial n_minim_iter=3 stress="-0.004925698179729915 2.754591612840522e-16 -1.6947378569824424e-16 2.754591612840522e-16 -0.004925698179730047 3.045901456811215e-17 -1.6947378569824424e-16 3.045901456811215e-17 0.018262132034386057" pbc="T T T"
Si       2.66761606       6.21360177       3.72916812
Si      -0.31668356       2.14166721       0.45560937
Si      -2.35093252       6.76211377       2.09238874
Si       1.69639643       1.34508961       1.27399906
Si       4.68069605       5.41702416       2.91077843
Si       6.71494501       0.79657760       4.54755781
Si       6.24707850       3.29168770       1.50027036
Si       4.09115842       0.50271884       3.13704974
Si       2.75380057       3.76428483       4.77382912
Si      -1.88306601       4.26700367       3.95543943
Si       0.27285407       7.05597253       0.68188067
Si       1.61021192       3.79440654       2.31866005
Si      -1.90062944       6.56759227       4.43769005
Si       2.27400396       5.92088861       1.16413129
Si      -0.37337454       2.62890186       2.80091067
Si       6.26464193       0.99109910       1.98252098
Si       2.09000853       1.63780276       3.61930036
Si       4.73738703       4.92978951       0.34574160
18
Lattice="8.887410739383256 1.124577030991722e-15 2.0993772107826866e-28 -4.44370536969163 7.69672347417254 2.4351646709138466e-28 -1.1143321531874365e-28 -2.138137032566844e-28 4.714114910539198" Properties=species:S:1:pos:R:3 unique_starting_index=50 config_type=initial n_minim_iter=4 stress="-0.0025741130620387 3.595285751375652e-16 1.540713788595264e-17 3.595285751375652e-16 -0.0025741130620385235 -1.1439154329849755e-16 1.540713788595264e-17 -1.1439154329849755e-16 -0.006257741466347657" pbc="T T T"
Si       2.72900969       6.32211015       3.52289978
Si      -0.33310223       2.17227666       0.38015651
Si      -2.39590749       6.89906012       1.95152815
Si       1.71469566       1.37461332       1.16584233
Si       4.77680759       5.52444680       2.73721396
Si       6.83961284       0.79766334       4.30858560
Si       6.36280400       3.32134875       1.42908184
Si       4.13867576       0.52569918       3.00045348
Si       2.82963633       3.84967553       4.57182511
Si      -1.91909864       4.37537471       3.78613930
Si       0.30502960       7.17102428       0.64339602
Si       1.61406903       3.84704794       2.21476766
Si      -1.96074707       6.65838042       4.32883641
Si       2.30299475       6.06559003       1.18609314
Si      -0.34224770       2.66947649       2.75746478
Si       6.40445243       1.03834305       1.97177896
Si       2.14071061       1.63113344       3.54315060
Si       4.78595305       5.02724697       0.40040732
18
Lattice="8.882729098442343 2.276891512824994e-15 2.1105067487506077e-28 -4.4413645492211735 7.69266905418631 2.4561704182369e-28 -1.1213990545301756e-28 -2.1459139569361443e-28 4.769163286939467" Properties=species:S:1:pos:R:3 unique_starting_index=50 config_type=initial n_minim_iter=5 stress="0.005026885736118355 2.847219546614901e-16 -1.9077989184616745e-17 2.847219546614901e-16 0.005026885736118486 1.4904679050481832e-17 -1.9077989184616745e-17 1.4904679050481832e-17 0.009229927369735621" pbc="T T T"
Si       2.73368463       6.31229486       3.56973394
Si      -0.34159916       2.16908127       0.39029175
Si      -2.39208549       6.90396196       1.98001285
Si       1.70767991       1.38037418       1.18515230
Si       4.78296370       5.52358777       2.77487339
Si       6.83345003       0.78870709       4.36459449
Si       6.37069635       3.33274298       1.44278809
Si       4.14225645       0.50911267       3.03250919
Si       2.81114082       3.85081339       4.62223028
Si      -1.92933182       4.35992606       3.82736974
Si       0.29910808       7.18355637       0.64792755
Si       1.63022371       3.84185566       2.23764864
Si      -1.96331589       6.66454106       4.37667138
Si       2.31195525       6.06067994       1.19722919
Si      -0.34863939       2.66011709       2.78695028
Si       6.40468042       1.02812798       1.99208973
Si       2.12940928       1.63198910       3.58181083
Si       4.79000392       5.03255196       0.40236864
18
Lattice="8.861094913109268 3.623550318437507e-15 2.108014022603614e-28 -4.4305474565546366 7.673933300097686 2.453291718124318e-28 -1.1212498196668535e-28 -2.1448509777303238e-28 4.771918510581075" Properties=species:S:1:pos:R:3 unique_starting_index=50 config_type=initial n_minim_iter=6 stress="0.0022100360156872573 2.1529553685437455e-16 -1.0110422112112463e-16 2.1529553685437455e-16 0.0022100360156872135 -1.2261666749334363e-16 -1.0110422112112463e-16 -1.2261666749334363e-16 0.0053420753032924" pbc="T T T"
Si       2.75123298       6.27795829       3.54674346
Si      -0.36929259       2.15231649       0.36546446
Si      -2.38194041       6.91759181       1.95610396
Si       1.67931446       1.39597500       1.16078421
Si       4.79984003       5.52161680       2.75142371
Si       6.81248786       0.75634148       4.34206321
Si       6.38241458       3.33247868       1.43004810
Si       4.12535136       0.48036078       3.02068760
Si       2.78387641       3.86109382       4.61132711
Si      -1.95186714       4.34145461       3.81600736
Si       0.30519609       7.19357251       0.63472835
Si       1.64667103       3.81283947       2.22536785
Si      -1.98446862       6.64843556       4.41782614
Si       2.31940094       6.06831574       1.23654713
Si      -0.33493234       2.63111528       2.82718664
Si       6.41501606       1.02549773       2.03186688
Si       2.11114650       1.60561755       3.62250639
Si       4.76547978       5.04281801       0.44122738
18
Lattice="8.829735343144113 3.509011259162037e-15 2.10171476548848e-28 -4.4148676715720585 7.64677511585611 2.4490891953607337e-28 -1.1227608779559283e-28 -2.146644825449553e-28 4.783104338616379" Properties=species:S:1:pos:R:3 unique_starting_index=50 config_type=initial n_minim_iter=7 stress="-0.001286364838676249 4.27054572104911e-16 -4.408915183936795e-17 4.27054572104911e-16 -0.001286364838675545 -1.0240199691346377e-16 -4.408915183936795e-17 -1.0240199691346377e-16 0.0007426996445597037" pbc="T T T"
Si       2.74989971       6.24204353       3.57070341
Si      -0.38404926       2.14427034       0.38196718
Si      -2.36585046       6.90723635       1.97633529
Si       1.66496795       1.40473158       1.17915124
Si       4.79891692       5.50250477       2.77351935
Si       6.78071812       0.73953875       4.36788746
Si       6.37439987       3.33180995       1.43050338
Si       4.11309979       0.46047791       3.02487150
Si       2.75710334       3.85448725       4.61923961
Si      -1.95953221       4.31496516       3.82205555
Si       0.30176787       7.18629720       0.63331933
Si       1.65776432       3.79228786       2.22768744
Si      -1.98103465       6.63251678       4.41543278
Si       2.31957767       6.04614305       1.22669656
Si      -0.33854304       2.61489039       2.82106467
Si       6.39590231       1.01425832       2.02388062
Si       2.09528998       1.60063206       3.61824873
Si       4.75341070       5.03188472       0.42951250
18
Lattice="8.849195518799194 1.7375020405455454e-15 2.1039608296917348e-28 -4.424597759399598 7.663628122335516 2.4497256602466343e-28 -1.119308614693557e-28 -2.141202863155626e-28 4.763383434936169" Properties=species:S:1:pos:R:3 unique_starting_index=50 config_type=initial n_minim_iter=8 stress="-0.00045130167384133417 1.2888065729341076e-16 -3.35089708962868e-18 1.2888065729341076e-16 -0.00045130167384032233 -4.9361291743376325e-17 -3.35089708962868e-18 -4.9361291743376325e-17 -0.005574479318934551" pbc="T T T"
Si       2.77736494       6.23092869       3.55152128
Si      -0.41713770       2.14289517       0.37593232
Si      -2.36022726       6.95343237       1.96372680
Si       1.64723281       1.43269943       1.16982956
Si       4.84173545       5.52073294       2.75762404
Si       6.78482500       0.71019574       4.34541851
Si       6.41004480       3.33855470       1.41416656
Si       4.11084854       0.44308912       3.00196104
Si       2.75289992       3.88198428       4.58975552
Si      -1.98544705       4.32507341       3.79585828
Si       0.31374921       7.22053899       0.62026932
Si       1.67169783       3.78164383       2.20806380
Si      -2.00412799       6.64178210       4.41212661
Si       2.32941825       6.07836281       1.23653765
Si      -0.32529028       2.60711132       2.82433213
Si       6.42872574       1.02184601       2.03043489
Si       2.09517949       1.58526530       3.61822937
Si       4.74988803       5.05651679       0.44264041
18
Lattice="8.833545291729736 8.858123004262143e-16 2.1040652913983917e-28 -4.41677264586487 7.650074628118373 2.453036818925464e-28 -1.122440259557708e-28 -2.145267037590352e-28 4.785071236213734" Properties=species:S:1:pos:R:3 unique_starting_index=50 config_type=initial n_minim_iter=9 stress="-0.0007085274162464999 -9.278693155484869e-17 2.377611474624707e-17 -9.278693155484869e-17 -0.0007085274162450935 1.0858045181950378e-17 2.377611474624707e-17 1.0858045181950378e-17 0.0005635171008843096" pbc="T T T"
Si       2.77506100       6.21471160       3.57099804
Si      -0.42220503       2.13944550       0.38095055
Si      -2.35285599       6.94599215       1.97597430
Si       1.64171164       1.43536302       1.17846242
Si       4.83897766       5.51062912       2.77348617
Si       6.76962862       0.70408247       4.36850991
Si       6.39371268       3.32157753       1.42010260
Si       4.09648682       0.45216824       3.01512635
Si       2.76011842       3.87632884       4.61015009
Si      -1.97694005       4.32849709       3.81263822
Si       0.32028582       7.19790638       0.62259073
Si       1.65665422       3.77374578       2.21761448
Si      -1.99887267       6.62066296       4.42941122
Si       2.31632600       6.07081765       1.23936373
Si      -0.31745334       2.60866863       2.83438747
Si       6.41564531       1.02941166       2.03687560
Si       2.10044664       1.57925697       3.63189935
Si       4.73422598       5.04140598       0.44185186
18
Lattice="8.856837423618462 1.5728055818282814e-15 2.1087108715632023e-28 -4.4284187118092335 7.670246206042306 2.457440184439095e-28 -1.12075356736158e-28 -2.142508558444006e-28 4.775870339344895" Properties=species:S:1:pos:R:3 unique_starting_index=50 config_type=initial n_minim_iter=10 stress="0.002192690643352762 1.0385524158151763e-16 -3.593014947630758e-18 1.0385524158151763e-16 0.0021926906433543387 6.882334584211773e-17 -3.593014947630758e-18 6.882334584211773e-17 -0.00015901039750933067" pbc="T T T"
Si       2.78813621       6.22481071       3.56722162
Si      -0.43164261       2.14324405       0.38330806
Si      -2.35649361       6.97243763       1.97526484
Si       1.64028249       1.44543549       1.17928645
Si       4.86006131       5.52700214       2.77124323
Si       6.78491231       0.69780856       4.36320001
Si       6.40872426       3.33012996       1.41477469
Si       4.10803371       0.45506320       3.00673147
Si       2.76849814       3.88505304       4.59868825
Si      -1.98030556       4.34011624       3.80270986
Si       0.32038498       7.21518300       0.61879630
Si       1.65992056       3.78519316       2.21075308
Si      -2.00113337       6.63785075       4.42040147
Si       2.32069534       6.08435316       1.23648791
Si      -0.31956199       2.61828849       2.82844469
Si       6.42955207       1.03239545       2.03246630
Si       2.10772336       1.58589304       3.62442308
Si       4.74798069       5.05195770       0.44050952
18
Lattice="8.835809876410387 3.5258226973816197e-15 2.1088284411838764e-28 -4.417904938205198 7.652035815980833 2.4574820438639247e-28 -1.1231862953257328e-28 -2.1457038220411714e-28 4.792548343665146" Properties=species:S:1:pos:R:3 unique_starting_index=50 config_type=initial n_minim_iter=11 stress="-0.001310147858661383 1.5846454498608702e-16 2.5290084814671453e-17 1.5846454498608702e-16 -0.0013101478586601113 -1.1520800703042542e-17 2.5290084814671453e-17 -1.1520800703042542e-17 -0.0016611656048252038" pbc="T T T"
Si       2.80240111       6.19101638       3.58106739
Si      -0.45752804       2.12957706       0.38603516
Si      -2.34487309       6.98347818       1.98355128
Si       1.61550382       1.46101943       1.18479322
Si       4.87543296       5.52245874       2.78230934
Si       6.76277801       0.66855763       4.37982545
Si       6.39152013       3.32551042       1.41012596
Si       4.10212137       0.45406179       3.00764208
Si       2.76007329       3.87246360       4.60515819
Si      -1.97361521       4.32652539       3.80640013
Si       0.31578356       7.19797402       0.61136791
Si       1.65783163       3.77957221       2.20888402
Si      -1.99084301       6.62378422       4.44403891
Si       2.31388196       6.06426432       1.24900668
Si      -0.32303897       2.61602308       2.84652280
Si       6.40874794       1.02825159       2.04776474
Si       2.10402296       1.58777149       3.64528085
Si       4.74094389       5.03601272       0.45024863
18
Lattice="8.842570637776342 3.800999810355418e-15 2.110533419282161e-28 -4.4212853188881756 7.657890807072677 2.4596891127313853e-28 -1.123292207098039e-28 -2.1458069158456875e-28 4.793427593712254" Properties=species:S:1:pos:R:3 unique_starting_index=50 config_type=initial n_minim_iter=12 stress="0.0001252481953110222 2.289954916493976e-16 2.293802861648652e-17 2.289954916493976e-16 0.0001252481953126421 9.247894855071826e-17 2.293802861648652e-17 9.247894855071826e-17 4.113482583054255e-05" pbc="T T T"
Si       2.80463909       6.19850848       3.58031050
Si      -0.45553906       2.12974785       0.38469211
Si      -2.34910005       6.98752527       1.98250130
Si       1.61664622       1.45938232       1.18359671
Si       4.87682437       5.52814294       2.78140590
Si       6.77038536       0.67036553       4.37921510
Si       6.39093423       3.32688946       1.41089513
Si       4.10698899       0.45973466       3.00870432
Si       2.76593272       3.87126667       4.60651352
Si      -1.96964893       4.33100133       3.80760892
Si       0.31429632       7.19815613       0.61199053
Si       1.65535259       3.78662413       2.20979973
Si      -1.98875836       6.62896196       4.44575764
Si       2.31394331       6.06572508       1.25013925
Si      -0.32518497       2.62109457       2.84794845
Si       6.41004366       1.02892884       2.04904385
Si       2.10734200       1.59216572       3.64685305
Si       4.74647028       5.03679623       0.45123465
18
Lattice="8.84295413847858 3.2175219599195874e-15 2.1113240697835237e-28 -4.421477069239295 7.6582229284231875 2.4611612371579123e-28 -1.1238672744080012e-28 -2.146555881639415e-28 4.797386427104915" Properties=species:S:1:pos:R:3 unique_starting_index=50 config_type=initial n_minim_iter=13 stress="0.0001298336845924796 2.073432662761799e-16 -7.379181963166476e-17 2.073432662761799e-16 0.00012983368459444793 1.700095178778731e-17 -7.379181963166476e-17 1.700095178778731e-17 0.0008759068396422394" pbc="T T T"
Si       2.81021965       6.20014026       3.58308477
Si      -0.45710793       2.12443118       0.38482715
Si      -2.35311174       6.99187440       1.98395596
Si       1.61125741       1.45808266       1.18439155
Si       4.87858498       5.53379174       2.78352036
Si       6.77458880       0.66634852       4.38264917
Si       6.39035572       3.32640512       1.41309407
Si       4.10705053       0.46080996       3.01222288
Si       2.76702493       3.87100784       4.61135169
Si      -1.96887867       4.33181780       3.81178728
Si       0.31442652       7.19741296       0.61352966
Si       1.65445213       3.78721508       2.21265847
Si      -1.99003305       6.63129336       4.44857831
Si       2.31640796       6.06599541       1.25032069
Si      -0.32637493       2.61915708       2.84944950
Si       6.41151010       1.02692956       2.04988510
Si       2.10506910       1.59222751       3.64901391
Si       4.74785199       5.03906584       0.45075629
18
Lattice="8.845478958568092 1.9502161562709435e-15 2.1116778164092476e-28 -4.42273947928405 7.660409486760693 2.461505151215701e-28 -1.1236100732597367e-28 -2.1461485373618614e-28 4.795928055592846" Properties=species:S:1:pos:R:3 unique_starting_index=50 config_type=initial n_minim_iter=14 stress="-2.560745396469709e-06 2.5520244617199067e-16 -1.0983612643145249e-16 2.5520244617199067e-16 -2.5607453941957764e-06 1.3315281579053999e-16 -1.0983612643145249e-16 1.3315281579053999e-16 0.0002478365608440412" pbc="T T T"
Si       2.81492397       6.20109950       3.58216601
Si      -0.45989177       2.12206406       0.38488064
Si      -2.35503221       6.99765540       1.98352333
Si       1.60781550       1.45930998       1.18420199
Si       4.88263124       5.53834542       2.78284467
Si       6.77777168       0.66275407       4.38148736
Si       6.39232505       3.32732866       1.41294046
Si       4.10812810       0.46082926       3.01158315
Si       2.76776528       3.87225155       4.61022583
Si      -1.96958558       4.33308082       3.81090449
Si       0.31461137       7.19958021       0.61361912
Si       1.65497419       3.78815793       2.21226181
Si      -1.99143141       6.63434109       4.44677953
Si       2.31848414       6.06786912       1.24949416
Si      -0.32705275       2.61860875       2.84813684
Si       6.41417087       1.02606839       2.04881550
Si       2.10425533       1.59254036       3.64745818
Si       4.74979221       5.04180072       0.45017281
18
Lattice="8.84839060325592 1.4752502484463542e-15 2.1122197721174984e-28 -4.424195301627963 7.662931045027142 2.4619446706253253e-28 -1.1232242065647042e-28 -2.1454956017366524e-28 4.793921679154164" Properties=species:S:1:pos:R:3 unique_starting_index=50 config_type=initial n_minim_iter=15 stress="-6.785789600314933e-05 2.230351297618256e-16 -1.814508616936751e-18 2.230351297618256e-16 -6.785789600091967e-05 3.082529932772551e-17 -1.814508616936751e-18 3.082529932772551e-17 -0.0004295438360486185" pbc="T T T"
Si       2.81917451       6.20139378       3.58062934
Si      -0.46321801       2.12075740       0.38468156
Si      -2.35595651       7.00371090       1.98265545
Si       1.60502078       1.46153726       1.18366850
Si       4.88741330       5.54217363       2.78164240
Si       6.78015180       0.65922014       4.37961629
Si       6.39403260       3.32851553       1.41284484
Si       4.10975800       0.46127860       3.01081873
Si       2.76879529       3.87313690       4.60879262
Si      -1.96983731       4.33441551       3.80980568
Si       0.31443729       7.20165243       0.61385789
Si       1.65540000       3.78979414       2.21183178
Si      -1.99219240       6.63726807       4.44446181
Si       2.31994365       6.06958623       1.24851403
Si      -0.32775127       2.61900778       2.84648792
Si       6.41638769       1.02566297       2.04750097
Si       2.10425164       1.59334481       3.64547487
Si       4.75194656       5.04392325       0.44952708
18
Lattice="8.866943348386966 -5.153680614121761e-15 2.117545934510461e-28 -4.433471674193479 7.67899819362057 2.46456048719525e-28 -1.1211372060377058e-28 -2.142103299500699e-28 4.782500161558866" Properties=species:S:1:pos:R:3 unique_starting_index=50 config_type=initial n_minim_iter=16 stress="-0.0006759099949807535 5.389393916083528e-16 8.327436115789352e-17 5.389393916083528e-16 -0.0006759099949787898 5.3016021126110305e-17 8.327436115789352e-17 5.3016021126110305e-17 -0.003174949712629659" pbc="T T T"
Si       2.83836714       6.19343432       3.55188131
Si      -0.48898379       2.12418297       0.36354787
Si      -2.34938337       7.04037908       1.95771459
Si       1.59510452       1.48556386       1.16063123
Si       4.92245545       5.55481522       2.75479795
Si       6.78285503       0.63861911       4.34896467
Si       6.39613415       3.34223779       1.44336847
Si       4.12986742       0.46866463       3.03753519
Si       2.77441343       3.86809576       4.63170191
Si      -1.96266248       4.33676040       3.83461855
Si       0.30360424       7.21033355       0.64628511
Si       1.65905823       3.81090242       2.24045183
Si      -1.99721396       6.65596051       4.42020033
Si       2.32936618       6.08065595       1.23186689
Si      -0.33215224       2.62137991       2.82603361
Si       6.43068562       1.02303768       2.02895025
Si       2.10410548       1.59834223       3.62311697
Si       4.76562391       5.05761827       0.43478353
