22
Lattice="5.529986593257486 -0.6362035390246453 -1.4111039861729944 -2.3777494916427315 10.594693250860782 -2.0451565533008376 -4.743278564763342 -5.190251124750472 10.77790055962341" Properties=species:S:1:pos:R:3 unique_starting_index=18 config_type=initial n_minim_iter=1 energy=-3583.711459402852 free_energy=-3583.711459402852 pbc="T T T"
Si      -0.04001375       9.32826583      -1.03176806
Si      -1.52197468      -1.27264335       5.69912490
Si      -4.10042243      -3.66167262       9.64280135
Si      -0.06550100      -2.83476689       8.71108326
Si      -5.56506839      -0.39807479       8.96469284
Si       4.15303998       2.12757864       0.04897715
Si       2.20141990       0.78422973       0.33720417
Si      -1.52886776       0.37885762       7.03496511
Si      -2.01496154      -3.46414429       9.28694865
Si      -2.67605396       1.00506040       5.35531774
Si       1.13521794      -0.27143171       2.50996175
Si      -2.94730758       3.49366636       5.05403392
Si      -3.31550495      -2.81946456       6.22050680
Si      -0.50843635       6.79325568      -1.10735287
Si       1.02427789       1.43332197       3.81953259
Si       1.20664286       7.81865850      -1.84849518
Si      -0.89209737      -1.31725644       3.28049970
Si       2.39658123      -4.98412313       6.29004389
Si       0.18471424       3.19201623       2.93794439
Si      -2.80443122       2.45256189       6.89934212
Si      -1.51201876       4.35615032       3.46124531
Si      -1.83584007      -2.16042214       7.60399949
22
Lattice="5.5301063452173365 -0.6362169751598621 -1.4111185111516087 -2.377812842046202 10.594934994830023 -2.0452321956447714 -4.743358099775876 -5.190394133289561 10.778117399595587" Properties=species:S:1:pos:R:3 unique_starting_index=18 config_type=initial n_minim_iter=2 stress="0.00020770985628445156 1.6083179682259868e-06 -3.683951151301719e-06 1.6083179682259868e-06 0.00015850792476974142 -1.4370215713360145e-05 -3.683951151301719e-06 -1.4370215713360145e-05 0.00017619093324721012" pbc="T T T"
Si      -0.04002532       9.32847810      -1.03181718
Si      -1.52199641      -1.27269026       5.69923445
Si      -4.10049715      -3.66178111       9.64299188
Si      -0.06548494      -2.83485639       8.71126456
Si      -5.56518990      -0.39810536       8.96485637
Si       4.15313178       2.12762456       0.04897924
Si       2.20147022       0.78424312       0.33720826
Si      -1.52888613       0.37884755       7.03509323
Si      -2.01497749      -3.46424263       9.28713417
Si      -2.67610049       1.00506909       5.35542180
Si       1.13525136      -0.27145234       2.51001328
Si      -2.94736234       3.49373938       5.05411098
Si      -3.31556790      -2.81954442       6.22062700
Si      -0.50846172       6.79340243      -1.10739296
Si       1.02430657       1.43334062       3.81960838
Si       1.20666741       7.81884112      -1.84854662
Si      -0.89211081      -1.31729624       3.28056478
Si       2.39665477      -4.98425280       6.29019538
Si       0.18472042       3.19208118       2.93799692
Si      -2.80447610       2.45259308       6.89946236
Si      -1.51204768       4.35624112       3.46129286
Si      -1.83585370      -2.16048943       7.60415977
22
Lattice="5.530022357664824 -0.6362503979735928 -1.4110191573584498 -2.377872821257579 10.59522773777764 -2.0453458167353653 -4.743103501398703 -5.190584669967846 10.778036945754577" Properties=species:S:1:pos:R:3 unique_starting_index=18 config_type=initial n_minim_iter=3 stress="-5.407097702481068e-05 0.00011557936643655972 7.222154794091866e-07 0.00011557936643655972 -8.527655606151515e-05 -0.00023239284321463862 7.222154794091866e-07 -0.00023239284321463862 7.718428289829633e-05" pbc="T T T"
Si      -0.04011636       9.32874797      -1.03191829
Si      -1.52189201      -1.27279901       5.69918651
Si      -4.10034117      -3.66195157       9.64290053
Si      -0.06536313      -2.83501781       8.71127572
Si      -5.56522428      -0.39814058       8.96470275
Si       4.15308400       2.12767431       0.04900644
Si       2.20146930       0.78423553       0.33715591
Si      -1.52873125       0.37879836       7.03494959
Si      -2.01470440      -3.46434732       9.28706750
Si      -2.67598173       1.00509305       5.35546126
Si       1.13531945      -0.27157032       2.51001344
Si      -2.94726095       3.49387772       5.05396006
Si      -3.31545817      -2.81966675       6.22054055
Si      -0.50860195       6.79349162      -1.10742499
Si       1.02438544       1.43333415       3.81962907
Si       1.20665290       7.81911904      -1.84850745
Si      -0.89205903      -1.31737383       3.28052836
Si       2.39681053      -4.98443379       6.29035971
Si       0.18471495       3.19217640       2.93801592
Si      -2.80428879       2.45255017       6.89930580
Si      -1.51197949       4.35637331       3.46115720
Si      -1.83556809      -2.16057347       7.60420609
22
Lattice="5.530059468338664 -0.6364080880988209 -1.4110048200216476 -2.3780845248665674 10.595390971770973 -2.044981795138766 -4.743000720933349 -5.190237920179897 10.777718627382834" Properties=species:S:1:pos:R:3 unique_starting_index=18 config_type=initial n_minim_iter=4 stress="7.0677752311755535e-06 -6.929010637750528e-05 3.8673141272154855e-06 -6.929010637750528e-05 3.129519507417235e-05 8.260622593114593e-05 3.8673141272154855e-06 8.260622593114593e-05 -5.108331471179243e-05" pbc="T T T"
Si      -0.04029651       9.32888824      -1.03161088
Si      -1.52186364      -1.27262186       5.69907181
Si      -4.10027802      -3.66163261       9.64264313
Si      -0.06528709      -2.83478527       8.71107969
Si      -5.56526743      -0.39774990       8.96455616
Si       4.15307233       2.12764394       0.04908323
Si       2.20147535       0.78421681       0.33715883
Si      -1.52872401       0.37906726       7.03484225
Si      -2.01461200      -3.46405876       9.28683252
Si      -2.67599571       1.00532787       5.35543416
Si       1.13535060      -0.27153822       2.50997589
Si      -2.94732825       3.49417115       5.05399477
Si      -3.31541012      -2.81945786       6.22036141
Si      -0.50875501       6.79355960      -1.10718499
Si       1.02439281       1.43347074       3.81963861
Si       1.20652772       7.81919428      -1.84820277
Si      -0.89203420      -1.31728016       3.28043723
Si       2.39694813      -4.98435827       6.29015629
Si       0.18466125       3.19233292       2.93810137
Si      -2.80431157       2.45287103       6.89928214
Si      -1.51205046       4.35660788       3.46123502
Si      -1.83549799      -2.16033268       7.60404925
22
Lattice="5.53010386214148 -0.6363323416027342 -1.4110031170514101 -2.3778872378015374 10.59561193858562 -2.044799707744846 -4.743093434639913 -5.1902583503164 10.777779326833386" Properties=species:S:1:pos:R:3 unique_starting_index=18 config_type=initial n_minim_iter=5 stress="-8.604020335650334e-05 0.00031743135341157026 -6.261248811353328e-05 0.00031743135341157026 6.419668561070107e-05 0.0001978227286823102 -6.261248811353328e-05 0.0001978227286823102 7.464925352561582e-05" pbc="T T T"
Si      -0.04010636       9.32916951      -1.03152431
Si      -1.52190309      -1.27261981       5.69918474
Si      -4.10037251      -3.66164010       9.64267606
Si      -0.06521775      -2.83469159       8.71119776
Si      -5.56543559      -0.39762437       8.96467154
Si       4.15321578       2.12785187       0.04913914
Si       2.20156199       0.78423990       0.33706181
Si      -1.52871469       0.37923645       7.03474327
Si      -2.01467958      -3.46395009       9.28693387
Si      -2.67601619       1.00535183       5.35555636
Si       1.13547418      -0.27163135       2.51003905
Si      -2.94728721       3.49440910       5.05411121
Si      -3.31543703      -2.81949729       6.22047537
Si      -0.50876117       6.79355239      -1.10702619
Si       1.02463247       1.43365296       3.81978460
Si       1.20675699       7.81959012      -1.84785832
Si      -0.89208096      -1.31731089       3.28044053
Si       2.39699271      -4.98431268       6.29038915
Si       0.18471563       3.19254276       2.93837870
Si      -2.80412889       2.45311180       6.89943907
Si      -1.51186554       4.35693162       3.46127113
Si      -1.83560511      -2.16038392       7.60416064
22
Lattice="5.530215456044315 -0.6365373820087845 -1.4109077213513876 -2.3784124769110306 10.595773854401335 -2.045065311810431 -4.74281526942436 -5.190309252380314 10.777784697370542" Properties=species:S:1:pos:R:3 unique_starting_index=18 config_type=initial n_minim_iter=6 stress="-1.0959739969658242e-05 -3.3917333750920876e-05 -6.910527135998358e-05 -3.3917333750920876e-05 2.6791216924843683e-05 -3.139592006801647e-05 -6.910527135998358e-05 -3.139592006801647e-05 -1.5594650610486923e-05" pbc="T T T"
Si      -0.04053244       9.32922280      -1.03177750
Si      -1.52181737      -1.27270885       5.69918766
Si      -4.10017301      -3.66169956       9.64263984
Si      -0.06495318      -2.83489781       8.71122285
Si      -5.56546226      -0.39757642       8.96456340
Si       4.15321940       2.12769546       0.04913173
Si       2.20158780       0.78410792       0.33702021
Si      -1.52868363       0.37915642       7.03458021
Si      -2.01445949      -3.46405760       9.28694859
Si      -2.67605558       1.00532267       5.35548186
Si       1.13558278      -0.27180840       2.51005637
Si      -2.94744119       3.49445950       5.05395353
Si      -3.31527925      -2.81951155       6.22050594
Si      -0.50913013       6.79353759      -1.10717483
Si       1.02469748       1.43354045       3.81975524
Si       1.20643647       7.81965162      -1.84793354
Si      -0.89200958      -1.31736837       3.28043492
Si       2.39736205      -4.98457083       6.29058746
Si       0.18460783       3.19248341       2.93835669
Si      -2.80414762       2.45309915       6.89929265
Si      -1.51199986       4.35699490       3.46108528
Si      -1.83549032      -2.16053154       7.60415165
22
Lattice="5.530293240927295 -0.6366264018336326 -1.4103124386474595 -2.37891156842553 10.595452408755353 -2.045214080081052 -4.741712857250185 -5.1899223821034965 10.777317842079864" Properties=species:S:1:pos:R:3 unique_starting_index=18 config_type=initial n_minim_iter=7 stress="0.00024599505264290316 8.640425386420439e-05 0.0002461489627074308 8.640425386420439e-05 -0.00010664231705507538 2.1699132422331655e-05 0.0002461489627074308 2.1699132422331655e-05 -0.0001729932445547895" pbc="T T T"
Si      -0.04087453       9.32901064      -1.03175636
Si      -1.52126601      -1.27265926       5.69911354
Si      -4.09918856      -3.66139606       9.64219918
Si      -0.06386506      -2.83468007       8.71126178
Si      -5.56483113      -0.39732874       8.96404844
Si       4.15339220       2.12760940       0.04957953
Si       2.20171054       0.78392810       0.33723150
Si      -1.52794402       0.37928820       7.03432991
Si      -2.01344350      -3.46368262       9.28683128
Si      -2.67565591       1.00540921       5.35527070
Si       1.13602696      -0.27194195       2.51025811
Si      -2.94699486       3.49461793       5.05374620
Si      -3.31463880      -2.81934415       6.22029501
Si      -0.50943875       6.79320671      -1.10715549
Si       1.02515079       1.43351228       3.81992941
Si       1.20614934       7.81939947      -1.84756387
Si      -0.89166954      -1.31730178       3.28036773
Si       2.39826014      -4.98440211       6.29099760
Si       0.18488528       3.19240522       2.93863413
Si      -2.80341771       2.45321057       6.89896604
Si      -1.51164078       4.35715158       3.46090296
Si      -1.83479513      -2.16043412       7.60398173
22
Lattice="5.5300008612305085 -0.6368866660079493 -1.4103016848070011 -2.379297173136445 10.595620239040224 -2.0453238922572887 -4.740990666420163 -5.189649387447717 10.778002729129945" Properties=species:S:1:pos:R:3 unique_starting_index=18 config_type=initial n_minim_iter=8 stress="-0.0001887588861156292 -6.48372980385097e-05 0.00013821371147115986 -6.48372980385097e-05 -9.32904365226049e-06 4.3517367466470674e-05 0.00013821371147115986 4.3517367466470674e-05 0.0002381903725246238" pbc="T T T"
Si      -0.04139815       9.32919355      -1.03183285
Si      -1.52104842      -1.27265163       5.69952832
Si      -4.09857501      -3.66116118       9.64276863
Si      -0.06347037      -2.83459476       8.71187912
Si      -5.56450426      -0.39698026       8.96461837
Si       4.15310746       2.12749447       0.04963286
Si       2.20156525       0.78369325       0.33729224
Si      -1.52768534       0.37945340       7.03467510
Si      -2.01295961      -3.46340659       9.28751964
Si      -2.67552437       1.00558106       5.35563415
Si       1.13615903      -0.27213277       2.51053914
Si      -2.94681899       3.49498859       5.05412546
Si      -3.31416570      -2.81923339       6.22082009
Si      -0.50977835       6.79316754      -1.10718996
Si       1.02512862       1.43349833       3.82024798
Si       1.20570815       7.81939855      -1.84746032
Si      -0.89150260      -1.31727517       3.28060669
Si       2.39850636      -4.98451931       6.29163353
Si       0.18480522       3.19242091       2.93909285
Si      -2.80310653       2.45348598       6.89933960
Si      -1.51156073       4.35754412       3.46106039
Si      -1.83455848      -2.16040675       7.60448590
22
Lattice="5.530162024081287 -0.6368797387132754 -1.4103953075479725 -2.379297201134209 10.595688164722915 -2.0452707638017884 -4.741359909960861 -5.1897357560087 10.777876932193255" Properties=species:S:1:pos:R:3 unique_starting_index=18 config_type=initial n_minim_iter=9 stress="3.6514059375646994e-05 3.4648695130233187e-06 -7.657937069417039e-05 3.4648695130233187e-06 -3.1479115273178207e-06 1.7428797705436865e-05 -7.657937069417039e-05 1.7428797705436865e-05 -3.064451540145512e-05" pbc="T T T"
Si      -0.04140965       9.32929590      -1.03189003
Si      -1.52123944      -1.27273116       5.69943256
Si      -4.09890198      -3.66123902       9.64262777
Si      -0.06364903      -2.83463949       8.71165663
Si      -5.56491908      -0.39702743       8.96453110
Si       4.15320715       2.12752795       0.04948701
Si       2.20160242       0.78363732       0.33721977
Si      -1.52787342       0.37942851       7.03445849
Si      -2.01321400      -3.46342947       9.28738548
Si      -2.67573883       1.00555152       5.35556462
Si       1.13617665      -0.27220850       2.51048515
Si      -2.94698276       3.49504507       5.05406767
Si      -3.31438841      -2.81932547       6.22081808
Si      -0.50977457       6.79317578      -1.10718420
Si       1.02505328       1.43348651       3.82010625
Si       1.20579059       7.81944734      -1.84744057
Si      -0.89160609      -1.31731236       3.28056403
Si       2.39842033      -4.98458076       6.29150827
Si       0.18474704       3.19240255       2.93908056
Si      -2.80329227       2.45349182       6.89917156
Si      -1.51163634       4.35766103       3.46093436
Si      -1.83483553      -2.16050248       7.60434603
22
Lattice="5.529962673276714 -0.6366911254107186 -1.4095339130179738 -2.3793930950121043 10.596425668433614 -2.0464826617451033 -4.739986409035317 -5.191087507210569 10.777313387631668" Properties=species:S:1:pos:R:3 unique_starting_index=18 config_type=initial n_minim_iter=10 stress="3.72996834487708e-05 -6.881822174090592e-06 -1.2574096082124297e-05 -6.881822174090592e-06 -0.00010043207278481972 5.934622546675967e-06 -1.2574096082124297e-05 5.934622546675967e-06 6.495541492017362e-05" pbc="T T T"
Si      -0.04165662       9.33010149      -1.03304688
Si      -1.52062730      -1.27371009       5.69898901
Si      -4.09767985      -3.66244303       9.64193087
Si      -0.06225379      -2.83538316       8.71125957
Si      -5.56423068      -0.39810105       8.96347879
Si       4.15324849       2.12787608       0.04954084
Si       2.20154809       0.78326973       0.33736643
Si      -1.52677702       0.37891650       7.03335090
Si      -2.01181578      -3.46425724       9.28754912
Si      -2.67514524       1.00491692       5.35481882
Si       1.13694091      -0.27284549       2.51097532
Si      -2.94635721       3.49503384       5.05328962
Si      -3.31384365      -2.82069149       6.22074140
Si      -0.50981358       6.79354512      -1.10780290
Si       1.02568843       1.43352050       3.81970663
Si       1.20564502       7.81995488      -1.84781970
Si      -0.89117618      -1.31776335       3.28061307
Si       2.39940979      -4.98524069       6.29261745
Si       0.18523343       3.19209306       2.93939133
Si      -2.80206235       2.45326178       6.89819785
Si      -1.51083781       4.35845943       3.45965734
Si      -1.83406948      -2.16157691       7.60413939
22
Lattice="5.529659234120599 -0.636696898827882 -1.4089570586005535 -2.3794356445859854 10.598220331130724 -2.0470904457663366 -4.739041097830183 -5.19256185627937 10.776235510234171" Properties=species:S:1:pos:R:3 unique_starting_index=18 config_type=initial n_minim_iter=11 stress="-9.79275142924918e-05 1.1732467421550473e-05 5.5376167764976275e-05 1.1732467421550473e-05 0.00025539637763553246 -6.457780426259252e-05 5.5376167764976275e-05 -6.457780426259252e-05 -0.00013050125752331733" pbc="T T T"
Si      -0.04180952       9.33164563      -1.03367771
Si      -1.52024518      -1.27452251       5.69841349
Si      -4.09678887      -3.66365857       9.64086861
Si      -0.06159392      -2.83624747       8.71041211
Si      -5.56356721      -0.39870536       8.96220637
Si       4.15319763       2.12832419       0.04968150
Si       2.20139632       0.78321495       0.33744522
Si      -1.52610278       0.37862635       7.03230624
Si      -2.01101396      -3.46525614       9.28679241
Si      -2.67477476       1.00474676       5.35401148
Si       1.13726345      -0.27319178       2.51106099
Si      -2.94593699       3.49543542       5.05241582
Si      -3.31343435      -2.82183918       6.22023161
Si      -0.50986894       6.79464616      -1.10811835
Si       1.02604065       1.43355555       3.81922824
Si       1.20549129       7.82123618      -1.84803767
Si      -0.89090285      -1.31819449       3.28038835
Si       2.39989211      -4.98629708       6.29274822
Si       0.18542089       3.19237253       2.93919463
Si      -2.80136443       2.45332581       6.89714839
Si      -1.51041498       4.35938950       3.45868729
Si      -1.83357542      -2.16246534       7.60336553
22
Lattice="5.529985558485307 -0.6367844685246463 -1.4086922368661545 -2.3799819513234732 10.59804089395948 -2.047559310430677 -4.738732040592347 -5.192637483801984 10.77623289753288" Properties=species:S:1:pos:R:3 unique_starting_index=18 config_type=initial n_minim_iter=12 stress="8.296360348823769e-05 -1.7427015701308578e-05 1.0639143590729599e-05 -1.7427015701308578e-05 -2.7576610878505653e-05 -9.403595350080454e-06 1.0639143590729599e-05 -9.403595350080454e-06 3.0714254550512443e-06" pbc="T T T"
Si      -0.04222797       9.33134745      -1.03427008
Si      -1.52018693      -1.27502038       5.69843490
Si      -4.09648342      -3.66384450       9.64078928
Si      -0.06112690      -2.83627905       8.71023706
Si      -5.56381571      -0.39874627       8.96195918
Si       4.15363502       2.12832488       0.04986195
Si       2.20136486       0.78290451       0.33752553
Si      -1.52567418       0.37845737       7.03192353
Si      -2.01051656      -3.46523231       9.28689917
Si      -2.67485504       1.00458554       5.35381910
Si       1.13770886      -0.27350226       2.51149995
Si      -2.94613507       3.49544291       5.05224538
Si      -3.31357183      -2.82239709       6.22044520
Si      -0.51016459       6.79441515      -1.10834204
Si       1.02638862       1.43344494       3.81909972
Si       1.20529219       7.82093659      -1.84829340
Si      -0.89077154      -1.31827554       3.28051381
Si       2.40062444      -4.98628283       6.29338597
Si       0.18542732       3.19211340       2.93946455
Si      -2.80119104       2.45322544       6.89691734
Si      -1.51032046       4.35989580       3.45809878
Si      -1.83347545      -2.16276127       7.60336771
22
Lattice="5.529767382769406 -0.6370248249084037 -1.4084146017470007 -2.380587370227103 10.598724247776069 -2.0484006150437857 -4.737790519835911 -5.193297618153581 10.7764822590826" Properties=species:S:1:pos:R:3 unique_starting_index=18 config_type=initial n_minim_iter=13 stress="1.7194263508880774e-05 -2.9077295641428886e-05 6.55389348782717e-06 -2.9077295641428886e-05 2.752961653833392e-05 -2.716621402011113e-05 6.55389348782717e-06 -2.716621402011113e-05 -4.56258549644291e-05" pbc="T T T"
Si      -0.04289892       9.33152780      -1.03536463
Si      -1.52000144      -1.27589924       5.69846582
Si      -4.09556890      -3.66449851       9.64091931
Si      -0.06063112      -2.83677064       8.70999606
Si      -5.56353097      -0.39893806       8.96177312
Si       4.15379337       2.12847498       0.05014143
Si       2.20099374       0.78266655       0.33735753
Si      -1.52507311       0.37819904       7.03128483
Si      -2.00963055      -3.46567114       9.28755764
Si      -2.67455886       1.00430551       5.35366271
Si       1.13814573      -0.27403955       2.51219174
Si      -2.94605879       3.49584205       5.05204421
Si      -3.31349415      -2.82360387       6.22095222
Si      -0.51060772       6.79466994      -1.10877430
Si       1.02643553       1.43319555       3.81895737
Si       1.20476608       7.82116179      -1.84883425
Si      -0.89052721      -1.31856007       3.28072710
Si       2.40123604      -4.98691749       6.29428791
Si       0.18515274       3.19206903       2.93979110
Si      -2.80076550       2.45319916       6.89658368
Si      -1.51000000       4.36106116       3.45714934
Si      -1.83323692      -2.16354067       7.60356728
22
Lattice="5.5296936568703305 -0.6371556688609742 -1.408448419994203 -2.380893457633714 10.598751723612166 -2.0488033871085496 -4.737446074591201 -5.1933336487889745 10.777377568480022" Properties=species:S:1:pos:R:3 unique_starting_index=18 config_type=initial n_minim_iter=14 stress="4.062760792445419e-05 -1.753296138500688e-05 -1.539675493319839e-05 -1.753296138500688e-05 1.7198607131308207e-05 -8.218418480303621e-07 -1.539675493319839e-05 -8.218418480303621e-07 -1.3731442810816753e-05" pbc="T T T"
Si      -0.04329897       9.33134973      -1.03585839
Si      -1.52000588      -1.27623215       5.69894180
Si      -4.09529374      -3.66452845       9.64172942
Si      -0.06041952      -2.83693282       8.71039085
Si      -5.56342491      -0.39897076       8.96237642
Si       4.15394475       2.12851900       0.05034401
Si       2.20074823       0.78254948       0.33728208
Si      -1.52491679       0.37820017       7.03137234
Si      -2.00914940      -3.46559025       9.28865781
Si      -2.67458385       1.00434073       5.35401863
Si       1.13835715      -0.27432895       2.51271626
Si      -2.94611284       3.49599068       5.05252320
Si      -3.31362432      -2.82412410       6.22168179
Si      -0.51083561       6.79461228      -1.10894505
Si       1.02655382       1.43304257       3.81923170
Si       1.20462812       7.82094341      -1.84918996
Si      -0.89046430      -1.31863957       3.28103745
Si       2.40157469      -4.98701867       6.29517825
Si       0.18495113       3.19202125       2.94022035
Si      -2.80065769       2.45324298       6.89680293
Si      -1.50997367       4.36168026       3.45687803
Si      -1.83324378      -2.16379977       7.60419497
22
Lattice="5.529150493784922 -0.6373803649238134 -1.4083644974080243 -2.381384139482576 10.598551088832004 -2.0497424423185824 -4.736240094419495 -5.1934165085577435 10.778847805810313" Properties=species:S:1:pos:R:3 unique_starting_index=18 config_type=initial n_minim_iter=15 stress="-1.0771725358192018e-05 1.2933848366039345e-06 -2.0722162461457544e-07 1.2933848366039345e-06 3.789017148372888e-05 -1.4367988835565159e-05 -2.0722162461457544e-07 -1.4367988835565159e-05 -1.8855358085463616e-05" pbc="T T T"
Si      -0.04405646       9.33075494      -1.03683449
Si      -1.51979699      -1.27681337       5.69993021
Si      -4.09421093      -3.66454168       9.64306687
Si      -0.05971180      -2.83749549       8.71109897
Si      -5.56272273      -0.39911398       8.96314091
Si       4.15385701       2.12846900       0.05075417
Si       2.20012820       0.78231741       0.33727830
Si      -1.52430634       0.37790176       7.03148606
Si      -2.00802400      -3.46545861       9.29047240
Si      -2.67413704       1.00414949       5.35434049
Si       1.13865740      -0.27492373       2.51348321
Si      -2.94581828       3.49617961       5.05313390
Si      -3.31345253      -2.82492255       6.22284566
Si      -0.51125279       6.79439546      -1.10935961
Si       1.02642602       1.43275273       3.81975228
Si       1.20425898       7.82038666      -1.84991755
Si      -0.89025487      -1.31881795       3.28147441
Si       2.40237684      -4.98715693       6.29701150
Si       0.18467116       3.19176177       2.94083424
Si      -2.80021245       2.45318420       6.89720406
Si      -1.51000573       4.36245230       3.45620196
Si      -1.83291491      -2.16425860       7.60505293
22
Lattice="5.528766903788387 -0.6376794567928163 -1.408402748194952 -2.3820211792236936 10.597429475126123 -2.050189446780777 -4.735295936357424 -5.192587444462435 10.780076740736721" Properties=species:S:1:pos:R:3 unique_starting_index=18 config_type=initial n_minim_iter=16 stress="-6.409837873880023e-05 3.0810393077108574e-05 3.680991944275885e-06 3.0810393077108574e-05 3.677118160783826e-05 1.7317234157877113e-05 3.680991944275885e-06 1.7317234157877113e-05 -1.4988743831466844e-05" pbc="T T T"
Si      -0.04483373       9.32925411      -1.03744828
Si      -1.51973141      -1.27724200       5.70054779
Si      -4.09318026      -3.66389004       9.64420910
Si      -0.05907016      -2.83745543       8.71158277
Si      -5.56223364      -0.39884574       8.96384013
Si       4.15376913       2.12816877       0.05112960
Si       2.19949679       0.78200858       0.33729547
Si      -1.52387823       0.37812527       7.03177601
Si      -2.00716053      -3.46449836       9.29207406
Si      -2.67387955       1.00429872       5.35472644
Si       1.13892466      -0.27547915       2.51405755
Si      -2.94575486       3.49638768       5.05381611
Si      -3.31349739      -2.82517313       6.22388697
Si      -0.51174068       6.79362059      -1.10945880
Si       1.02616051       1.43257951       3.82031314
Si       1.20385971       7.81920711      -1.85031803
Si      -0.89016093      -1.31877703       3.28177379
Si       2.40327427      -4.98671567       6.29866863
Si       0.18430853       3.19134046       2.94155827
Si      -2.80004579       2.45305365       6.89765407
Si      -1.51025523       4.36305812       3.45560926
Si      -1.83286580      -2.16444356       7.60595661
22
Lattice="5.52921696550531 -0.6381580905643763 -1.408557623235038 -2.3834773073342093 10.594992479444167 -2.050669620710125 -4.735017039110473 -5.190921056031885 10.781353685768085" Properties=species:S:1:pos:R:3 unique_starting_index=18 config_type=initial n_minim_iter=17 stress="-3.860189237622185e-05 2.6355440558074103e-05 -9.817951435055243e-06 2.6355440558074103e-05 -2.8460799149522885e-05 1.7060075400352295e-05 -9.817951435055243e-06 1.7060075400352295e-05 -2.166010113973464e-05" pbc="T T T"
Si      -0.04607896       9.32642792      -1.03816313
Si      -1.52004019      -1.27759588       5.70128735
Si      -4.09261652      -3.66286665       9.64537718
Si      -0.05839902      -2.83703548       8.71197181
Si      -5.56284844      -0.39840095       8.96438612
Si       4.15409326       2.12737270       0.05134548
Si       2.19901257       0.78146082       0.33725788
Si      -1.52376283       0.37826687       7.03192686
Si      -2.00640589      -3.46281546       9.29405620
Si      -2.67438176       1.00451502       5.35483782
Si       1.13935536      -0.27621579       2.51446319
Si      -2.94643799       3.49641255       5.05439584
Si      -3.31423634      -2.82507044       6.22502814
Si      -0.51261551       6.79201645      -1.10953705
Si       1.02601045       1.43201079       3.82089013
Si       1.20343222       7.81691279      -1.85095300
Si      -0.89027116      -1.31859836       3.28201824
Si       2.40459437      -4.98603615       6.30037996
Si       0.18354818       3.19060680       2.94234117
Si      -2.80066488       2.45267734       6.89834775
Si      -1.51078275       4.36340994       3.45474068
Si      -1.83317278      -2.16438186       7.60670818
22
Lattice="5.529810190955749 -0.6385603632041827 -1.40867706458638 -2.3848473690327587 10.592805981623464 -2.0512061826548225 -4.7348696754673885 -5.1894871970799645 10.782711457695974" Properties=species:S:1:pos:R:3 unique_starting_index=18 config_type=initial n_minim_iter=18 stress="-3.951145515272377e-05 4.7832809902912136e-05 -1.2079310856606544e-05 4.7832809902912136e-05 2.4265006981799032e-05 -1.1939746851226443e-06 -1.2079310856606544e-05 -1.1939746851226443e-06 -2.3923928184546974e-05" pbc="T T T"
Si      -0.04712234       9.32375359      -1.03889714
Si      -1.52038172      -1.27795213       5.70197337
Si      -4.09188310      -3.66227839       9.64657434
Si      -0.05761732      -2.83673557       8.71256800
Si      -5.56374611      -0.39811585       8.96470437
Si       4.15466920       2.12674612       0.05177630
Si       2.19847683       0.78084362       0.33748631
Si      -1.52373938       0.37844168       7.03180241
Si      -2.00578972      -3.46112390       9.29602163
Si      -2.67474408       1.00466107       5.35504453
Si       1.13987492      -0.27701105       2.51475762
Si      -2.94715080       3.49637886       5.05532797
Si      -3.31526665      -2.82523727       6.22628245
Si      -0.51326433       6.79076770      -1.10962241
Si       1.02595241       1.43150743       3.82157192
Si       1.20305128       7.81486455      -1.85165228