12
Lattice="5.39447282734329 0.21180768246773515 0.7982793929102642 -1.0992544075113255 7.278946692122669 -2.7810862509768968 0.888889790709367 -3.811578295141138 8.207843350013887" Properties=species:S:1:pos:R:3 unique_starting_index=44 config_type=initial n_minim_iter=1 energy=-1956.0418553956463 free_energy=-1956.0418553956463 pbc="T T T"
Si       0.96598690       0.19688044       5.70757667
Si      -0.47942079       2.47253497       1.83048486
Si       0.64807840       3.25151335       3.50185671
Si       2.64439165       2.72186729       2.97738476
Si       5.68062798       2.39419810       6.14796778
Si       4.85966979      -1.06040000       6.19207286
Si       3.55161709       4.48262315      -0.83868198
Si      -0.28038869       3.33513672      -0.52149416
Si       2.81081881      -0.48322525       6.50889070
Si       5.57536553       0.42296991       2.52679328
Si       1.27179509      -1.93333819       6.29312015
Si       3.28017140      -2.47508335       5.83428013
12
Lattice="5.396455607016652 0.21077830170368317 0.7973496510013094 -1.1004947657581878 7.281095639204736 -2.7821520171891017 0.8880837566013112 -3.812894951191447 8.211202911874269" Properties=species:S:1:pos:R:3 unique_starting_index=44 config_type=initial n_minim_iter=2 stress="0.0040742594556567 -6.835393395680549e-05 0.0012819741423788836 -6.835393395680549e-05 0.0026609390003595364 0.0005430760848026448 0.0012819741423788836 0.0005430760848026448 0.0006275305146433618" pbc="T T T"
Si       0.96502249       0.19667153       5.70956611
Si      -0.48051096       2.47317616       1.83125963
Si       0.64676659       3.25215822       3.50313340
Si       2.64435407       2.72205027       2.97801298
Si       5.68106141       2.39341814       6.14926980
Si       4.86046372      -1.06171919       6.19355071
Si       3.55223808       4.48310651      -0.83992349
Si      -0.28095472       3.33601124      -0.52156228
Si       2.81051658      -0.48391063       6.51103013
Si       5.57696911       0.42188527       2.52658464
Si       1.27121513      -1.93413239       6.29562509
Si       3.28062027      -2.47653243       5.83594359
12
Lattice="5.394339243901523 0.20965957887172285 0.7951085577046032 -1.1002005134538548 7.2800337956743855 -2.783337639756187 0.8847492585727952 -3.8131697740126844 8.213751408048099" Properties=species:S:1:pos:R:3 unique_starting_index=44 config_type=initial n_minim_iter=3 stress="-0.0007732286159541752 -0.0010904775234440566 -0.001132110190570603 -0.0010904775234440566 -0.0013708425678382148 -0.0006160620444674906 -0.001132110190570603 -0.0006160620444674906 0.0020613965580657985" pbc="T T T"
Si       0.96197514       0.19586641       5.71056238
Si      -0.48157842       2.47235196       1.83155509
Si       0.64413007       3.25096150       3.50352919
Si       2.64190785       2.72087371       2.97752244
Si       5.67609332       2.39067509       6.14846517
Si       4.85642750      -1.06296101       6.19331539
Si       3.55045804       4.48154169      -0.84228639
Si      -0.28091830       3.33522034      -0.52190632
Si       2.80664512      -0.48476108       6.51179249
Si       5.57394909       0.42037774       2.52485547
Si       1.26824308      -1.93433027       6.29750720
Si       3.27724380      -2.47737090       5.83627647
12
Lattice="5.394474925826146 0.2108718917015545 0.7926615060182974 -1.0978467236870624 7.283658155168839 -2.7808127703886507 0.8808333412381744 -3.8140878995969807 8.20965953216705" Properties=species:S:1:pos:R:3 unique_starting_index=44 config_type=initial n_minim_iter=4 stress="0.00273611346924924 0.0013127446308963968 -0.0010793562964855636 0.0013127446308963968 -0.0015513335119988873 -0.0009484816315263806 -0.0010793562964855636 -0.0009484816315263806 -0.0016249980390310847" pbc="T T T"
Si       0.95911770       0.19727451       5.70768731
Si      -0.48162874       2.47313261       1.83037351
Si       0.64237811       3.25353370       3.50239622
Si       2.64247453       2.72443236       2.97624721
Si       5.67480364       2.39193434       6.14480408
Si       4.85412242      -1.06152374       6.18839420
Si       3.55130940       4.48447457      -0.84270726
Si      -0.27847341       3.33649555      -0.52173342
Si       2.80412190      -0.48213327       6.50806898
Si       5.57335079       0.42144853       2.52210292
Si       1.26534477      -1.93320978       6.29583675
Si       3.27392794      -2.47785716       5.83121858
12
Lattice="5.389681110910015 0.2096015598289643 0.793485314634178 -1.0996142450256023 7.290273585054027 -2.7784758588324334 0.882085958373084 -3.814610472015593 8.210531362364575" Properties=species:S:1:pos:R:3 unique_starting_index=44 config_type=initial n_minim_iter=5 stress="-0.0017383378019177416 -0.0007267612748504827 -0.00036163854498734704 -0.0007267612748504827 0.002501045362876708 0.0006620456208106774 -0.00036163854498734704 0.0006620456208106774 -0.0005646530877456422" pbc="T T T"
Si       0.95781432       0.19974014       5.70946966
Si      -0.48163434       2.47580491       1.83093579
Si       0.64022863       3.25847800       3.50507036
Si       2.64031370       2.72886176       2.97929190
Si       5.66964363       2.39365958       6.14887979
Si       4.85027056      -1.06116691       6.18977954
Si       3.54630526       4.48722528      -0.84062581
Si      -0.27803342       3.33989333      -0.52048836
Si       2.80246269      -0.47952833       6.51003415
Si       5.56837700       0.42057780       2.52398698
Si       1.26606386      -1.93245592       6.29808172
Si       3.27148531      -2.47898494       5.83116369
12
Lattice="5.390202328439669 0.2098587742905023 0.7946947830556592 -1.0997390061775856 7.287801666098868 -2.7795628770481455 0.8833269313997819 -3.8132116710552193 8.213562089679098" Properties=species:S:1:pos:R:3 unique_starting_index=44 config_type=initial n_minim_iter=6 stress="-4.889045402751015e-05 -0.0005071783607556906 0.001588292629902791 -0.0005071783607556906 -0.0013414963906170899 -0.0005506829753453998 0.001588292629902791 -0.0005506829753453998 0.001059724458506225" pbc="T T T"
Si       0.95846820       0.19970487       5.71143423
Si      -0.48098556       2.47432348       1.83071629
Si       0.64057899       3.25789277       3.50653976
Si       2.64159641       2.72923277       2.98140251
Si       5.67122740       2.39248138       6.15244920
Si       4.85096915      -1.06036977       6.19251227
Si       3.54652939       4.48567478      -0.84016324
Si      -0.27704939       3.33903870      -0.52054801
Si       2.80395034      -0.47869454       6.51267652
Si       5.56912733       0.42042408       2.52615052
Si       1.26763148      -1.93183758       6.30117697
Si       3.27203152      -2.47773187       5.83308364
12
Lattice="5.389304048968132 0.21293475780790053 0.7902993092758149 -1.093723903933214 7.28719034727326 -2.7754506253042295 0.8746183241123551 -3.8099427632979355 8.210663081991523" Properties=species:S:1:pos:R:3 unique_starting_index=44 config_type=initial n_minim_iter=7 stress="-0.0009866559616794111 0.002246589630584162 -0.0013143806488144763 0.002246589630584162 -0.0012647462266880151 0.002628014801186555 -0.0013143806488144763 0.002628014801186555 0.0011423670589873764" pbc="T T T"
Si       0.95365011       0.20122392       5.70999550
Si      -0.48050315       2.47337896       1.82978942
Si       0.63814290       3.26109765       3.50728416
Si       2.64122089       2.73515104       2.98178270
Si       5.66664477       2.39723117       6.14908649
Si       4.84386832      -1.05592353       6.18727374
Si       3.54896050       4.48691192      -0.84054856
Si      -0.27280824       3.34049196      -0.51849604
Si       2.79848241      -0.47394716       6.50899267
Si       5.56663973       0.42331821       2.52237678
Si       1.26186386      -1.92939047       6.29994341
Si       3.26477044      -2.47296277       5.82707471
12
Lattice="5.389084042019012 0.21125176278396382 0.7851898339557292 -1.0933411154570063 7.294390612686987 -2.777190253644617 0.8690831751254315 -3.8184099296981246 8.205569820166794" Properties=species:S:1:pos:R:3 unique_starting_index=44 config_type=initial n_minim_iter=8 stress="-0.000790202621337522 -0.001890999436840889 -0.0007780055115721255 -0.001890999436840889 -0.001379020944446309 -0.0004968727119305698 -0.0007780055115721255 -0.0004968727119305698 -0.0025033998036001585" pbc="T T T"
Si       0.94796627       0.19396200       5.70342559
Si      -0.48116866       2.47045253       1.82272054
Si       0.63270291       3.26216542       3.50187175
Si       2.63981780       2.73990532       2.97852350
Si       5.66070170       2.39222904       6.13897803
Si       4.83801148      -1.06285992       6.17845289
Si       3.54871200       4.48801870      -0.84467282
Si      -0.26894192       3.34535565      -0.51947644
Si       2.79435416      -0.47886973       6.50029539
Si       5.56448634       0.41857113       2.51703492
Si       1.25768048      -1.93519709       6.29715121
Si       3.25941070      -2.47679804       5.81753343
12
Lattice="5.387507689383922 0.21896751314830726 0.7815216022713949 -1.0804310142241969 7.307153758086351 -2.782513584934542 0.857490651282675 -3.82938371918253 8.210506971750227" Properties=species:S:1:pos:R:3 unique_starting_index=44 config_type=initial n_minim_iter=9 stress="-0.004114065482107135 0.003695102270634428 0.00019166179554003338 0.003695102270634428 0.0025759473259521688 -0.004142900928627095 0.00019166179554003338 -0.004142900928627095 0.0022408830991815067" pbc="T T T"
Si       0.94041141       0.18801530       5.70196014
Si      -0.47629225       2.46649553       1.81454906
Si       0.63245643       3.26774738       3.50091617
Si       2.64265956       2.75594512       2.98181937
Si       5.65696580       2.39791090       6.13764142
Si       4.82998442      -1.06445856       6.17788164
Si       3.55628493       4.49858320      -0.84883318
Si      -0.25652659       3.35478727      -0.51920925
Si       2.78912367      -0.48044358       6.49892562
Si       5.56093903       0.42221577       2.51634466
Si       1.24912422      -1.93959442       6.30287191
Si       3.24814721      -2.47521028       5.81229832
12
Lattice="5.3920580069728805 0.2201585121903659 0.7763943527747991 -1.078685322144513 7.304743788799602 -2.771214349913263 0.8510895456416722 -3.820850988143321 8.198161390037692" Properties=species:S:1:pos:R:3 unique_starting_index=44 config_type=initial n_minim_iter=10 stress="-0.0011188902007308887 0.00040447505793360643 -0.0006566915347885039 0.00040447505793360643 -0.0028822425568240328 -0.00017367072905953012 -0.0006566915347885039 -0.00017367072905953012 -0.00021756278403621443" pbc="T T T"
Si       0.93179206       0.19075747       5.69354848
Si      -0.47550459       2.46170107       1.80769916
Si       0.62796754       3.27322685       3.50137182
Si       2.64428880       2.77001771       2.98669980
Si       5.65587320       2.40174488       6.13211638
Si       4.82917405      -1.06070729       6.16691697
Si       3.56229858       4.49513650      -0.84414870
Si      -0.24837417       3.35957244      -0.51220412
Si       2.78590693      -0.47451468       6.48791493
Si       5.56299402       0.42143513       2.51261884
Si       1.24417338      -1.93079185       6.29691896
Si       3.24343361      -2.46304316       5.79372885
12
Lattice="5.3932279486281915 0.22085320602306238 0.7747306929594784 -1.0777270456788026 7.309009509403065 -2.7683025266052406 0.8493569393067093 -3.8226003387618968 8.191213990107729" Properties=species:S:1:pos:R:3 unique_starting_index=44 config_type=initial n_minim_iter=11 stress="-0.0007965049760724439 0.0003306538160935103 -0.00045478297590336483 0.0003306538160935103 -0.0020125370520517874 -0.00043335411708342856 -0.00045478297590336483 -0.00043335411708342856 -0.00046673534158652645" pbc="T T T"
Si       0.93074889       0.19058371       5.68722707
Si      -0.47449271       2.45958168       1.80210146
Si       0.62752677       3.27598270       3.49882573
Si       2.64484933       2.77680091       2.98829263
Si       5.65549745       2.40224428       6.12759267
Si       4.82810588      -1.06271917       6.16087583
Si       3.56397082       4.49593501      -0.84268441
Si      -0.24369925       3.36420633      -0.50970664
Si       2.78309731      -0.47488593       6.48087965
Si       5.56309096       0.42023903       2.51109309
Si       1.24421305      -1.92948484       6.29366401
Si       3.24081991      -2.45962018       5.78335002
12
Lattice="5.398064338111343 0.22041650881052577 0.7710973349385105 -1.0789261710043367 7.318844072207761 -2.760792403040732 0.8492413518672253 -3.8298330310869124 8.16402671994876" Properties=species:S:1:pos:R:3 unique_starting_index=44 config_type=initial n_minim_iter=12 stress="0.0016185923240160565 -0.0007156691737683058 -0.00041105474438215623 -0.0007156691737683058 0.002557270751084825 5.7730280880121494e-05 -0.00041105474438215623 5.7730280880121494e-05 -8.760061411306115e-05" pbc="T T T"
Si       0.92951749       0.18742013       5.66246200
Si      -0.47369690       2.45325953       1.78476801
Si       0.62974263       3.28136441       3.48521719
Si       2.64573998       2.78708285       2.98936029
Si       5.65732106       2.39848919       6.10800525
Si       4.83299341      -1.06781103       6.14169497
Si       3.56629997       4.49081608      -0.84058619
Si      -0.23461796       3.37670913      -0.50296543
Si       2.78277338      -0.47390515       6.45797349
Si       5.56507379       0.41411341       2.50490603
Si       1.24528127      -1.93389739       6.27673540
Si       3.23728550      -2.45511411       5.74654808
12
Lattice="5.396024936184558 0.21861727359441258 0.7738319922403453 -1.0825614435436408 7.313064081640251 -2.7578177655017253 0.8533619713160335 -3.8215907460934773 8.16843170922354" Properties=species:S:1:pos:R:3 unique_starting_index=44 config_type=initial n_minim_iter=13 stress="0.0019763797533627826 -0.0013573771426076348 -0.0009794468452915897 -0.0013573771426076348 0.0031006299937076398 0.00041282201485124114 -0.0009794468452915897 0.00041282201485124114 0.00036483682101608986" pbc="T T T"
Si       0.93122525       0.19104256       5.66711300
Si      -0.47508307       2.45094246       1.78436920
Si       0.62838144       3.28427551       3.49180861
Si       2.64684479       2.78931023       3.00101226
Si       5.65404772       2.40089929       6.11783906
Si       4.83182463      -1.06842776       6.14826982
Si       3.56573410       4.48206411      -0.83455304
Si      -0.23395474       3.37700240      -0.49989010
Si       2.78399116      -0.46813345       6.46467406
Si       5.56144355       0.41130989       2.51026531
Si       1.24678594      -1.92705444       6.28527272
Si       3.24020097      -2.44863170       5.73912915
12
Lattice="5.3956000326992895 0.22363767341677596 0.7861168158488399 -1.0816632254467677 7.293731001908945 -2.755193837851118 0.8651492912505118 -3.800290826872822 8.184993209986244" Properties=species:S:1:pos:R:3 unique_starting_index=44 config_type=initial n_minim_iter=14 stress="0.0005571649533323799 -0.000378873708043007 0.00038303844532518687 -0.000378873708043007 -0.00022780338593281232 0.0003535525377131714 0.00038303844532518687 0.0003535525377131714 0.0004412333397689146" pbc="T T T"
Si       0.94264685       0.19665887       5.68283023
Si      -0.47313121       2.44714514       1.78776038
Si       0.63387933       3.28646134       3.50874794
Si       2.65944913       2.79303021       3.02706599
Si       5.66121153       2.41432976       6.14884386
Si       4.84398415      -1.05728268       6.17301494
Si       3.56723080       4.47280983      -0.81722044
Si      -0.22905981       3.37183334      -0.49598181
Si       2.79592078      -0.45506100       6.48584070
Si       5.56049222       0.41595573       2.52851004
Si       1.25890065      -1.90954717       6.30505120
Si       3.24314490      -2.42917062       5.73709498
12
Lattice="5.393402473332383 0.2253784976915883 0.7869886929456333 -1.0795581172700162 7.286311903121658 -2.7515888947727896 0.864792938744105 -3.7926751865525543 8.183586230549963" Properties=species:S:1:pos:R:3 unique_starting_index=44 config_type=initial n_minim_iter=15 stress="-0.0004672935408609995 8.15761531036152e-05 5.6199481024442556e-05 8.15761531036152e-05 -0.0009279319430382544 -0.00014599694574852774 5.6199481024442556e-05 -0.00014599694574852774 -0.00048342724260227397" pbc="T T T"
Si       0.94265190       0.19895565       5.68291107
Si      -0.47411275       2.44457980       1.78471920
Si       0.63346708       3.28448165       3.51108731
Si       2.66309497       2.79612504       3.03771750
Si       5.65768013       2.41613969       6.15360422
Si       4.84165425      -1.05608128       6.17503440
Si       3.56522684       4.46753041      -0.81119942
Si      -0.22393051       3.37274426      -0.49218478
Si       2.80066864      -0.45055213       6.48570560
Si       5.55520408       0.41549950       2.53107642
Si       1.25981526      -1.90249900       6.30694521
Si       3.23957121      -2.41678529       5.72033513
12
Lattice="5.397078766957178 0.23136493945750092 0.7900254654256872 -1.0730587547691348 7.27474132578913 -2.7534950130098648 0.8649802649912806 -3.7864823974194093 8.187410924684945" Properties=species:S:1:pos:R:3 unique_starting_index=44 config_type=initial n_minim_iter=16 stress="0.00180192146780076 0.0012802337413458204 0.00027208954737830375 0.0012802337413458204 -0.0009413353571961989 6.77027418784576e-05 0.00027208954737830375 6.77027418784576e-05 0.001215074979881308" pbc="T T T"
Si       0.94491353       0.19343620       5.68791925
Si      -0.47399775       2.43694263       1.77363923
Si       0.63995822       3.27444246       3.51147105
Si       2.67255225       2.80750710       3.06106101
Si       5.66062521       2.41441134       6.16607241
Si       4.84623269      -1.05456805       6.18289608
Si       3.57159110       4.45952091      -0.80650288
Si      -0.20904354       3.37717493      -0.48409020
Si       2.80797297      -0.44226035       6.48530688
Si       5.55256469       0.41403709       2.53925188
Si       1.26476299      -1.89577625       6.31612606
Si       3.23892595      -2.39957974       5.68582519
12
Lattice="5.4014530175765145 0.23330749130206438 0.7848097199010352 -1.0672002184400746 7.2739714596050655 -2.7630203700626477 0.8572298643305764 -3.798244577005596 8.184873795198593" Properties=species:S:1:pos:R:3 unique_starting_index=44 config_type=initial n_minim_iter=17 stress="0.0007689520776159196 0.0015889134685235055 0.001280145562021083 0.0015889134685235055 0.0005488420135186387 -0.00041757937324403643 0.001280145562021083 -0.00041757937324403643 -0.0007439133418165964" pbc="T T T"
Si       0.93966563       0.18147172       5.68418057
Si      -0.47805164       2.43471384       1.76328001
Si       0.63826874       3.26397895       3.50133825
Si       2.67933165       2.80326904       3.05987303
Si       5.65859666       2.40292072       6.15556841
Si       4.84805905      -1.06670974       6.17595213
Si       3.58210837       4.45950586      -0.81453504
Si      -0.20587058       3.37755916      -0.48574711
Si       2.80629425      -0.44871343       6.47410483
Si       5.55114230       0.41013846       2.53413828
Si       1.26568539      -1.90649689       6.31253922
Si       3.23396654      -2.40022945       5.66155113
12
Lattice="5.400283646800803 0.22979813384286374 0.7856894208805874 -1.071577594387306 7.267724787626637 -2.765236117440702 0.8610165539313642 -3.7978873593434868 8.183689173876484" Properties=species:S:1:pos:R:3 unique_starting_index=44 config_type=initial n_minim_iter=18 stress="-0.002115599049164517 0.00044654915086051285 0.0014172600025083963 0.00044654915086051285 0.0002006698002927209 -4.537337551692208e-05 0.0014172600025083963 -4.537337551692208e-05 -0.0013571896032039182" pbc="T T T"
Si       0.94249752       0.17837366       5.68522702
Si      -0.48348992       2.43987528       1.76300432
Si       0.63966121       3.25570126       3.49983246
Si       2.67733729       2.79600527       3.05817175
Si       5.65483009       2.39643931       6.15488481
Si       4.85188666      -1.07481504       6.17573539
Si       3.57769152       4.45872494      -0.81391857
Si      -0.21362202       3.36834840      -0.48710196
Si       2.81149413      -0.45066371       6.47194978
Si       5.54761170       0.40768234       2.53492240
Si       1.27288706      -1.90841375       6.30783204
Si       3.23681650      -2.40591609       5.65684578
12
Lattice="5.401641646837456 0.23097983963555735 0.7836076102758895 -1.0701523181721069 7.260000553346279 -2.7566602739414323 0.8582196090171771 -3.7879617751943004 8.174421117087904" Properties=species:S:1:pos:R:3 unique_starting_index=44 config_type=initial n_minim_iter=19 stress="6.945242717911703e-05 -0.000688377274391819 -0.0005603982664373307 -0.000688377274391819 7.136023307238434e-05 -0.00020891840685531292 -0.0005603982664373307 -0.00020891840685531292 0.00026475466151172844" pbc="T T T"
Si       0.94113253       0.18046104       5.68118933
Si      -0.48687506       2.44185675       1.75748117
Si       0.63943197       3.25518128       3.50303063
Si       2.67922115       2.80044965       3.06441661
Si       5.65094181       2.39993200       6.15290738
Si       4.85189178      -1.07098433       6.17117175
Si       3.58044674       4.45578269      -0.80859235
Si      -0.21283404       3.36233763      -0.48030675
Si       2.81401436      -0.44337324       6.46273057
Si       5.54344584       0.40985274       2.53486779
Si       1.27494238      -1.89986771       6.30275598
Si       3.23575416      -2.39619747       5.63559481
12
Lattice="5.409902538286125 0.22834619627446787 0.7700580141472664 -1.0740300652563088 7.24675523678016 -2.715126587979025 0.8515935233809497 -3.765722475041555 8.095754651683862" Properties=species:S:1:pos:R:3 unique_starting_index=44 config_type=initial n_minim_iter=20 stress="0.004044467456228855 -0.0035348063972858675 -0.003284467856121842 -0.0035348063972858675 9.441512173248113e-05 -0.0006000706131763466 -0.003284467856121842 -0.0006000706131763466 0.004122142624909419" pbc="T T T"
Si       0.93601982       0.18475059       5.63660242
Si      -0.50263742       2.46028058       1.71392820
Si       0.63519854       3.25761509       3.49396981
Si       2.68259333       2.81805938       3.06588148
Si       5.63204093       2.39797417       6.11210181
Si       4.85764602      -1.07391578       6.12217428
Si       3.59066973       4.45244718      -0.79355056
Si      -0.21998079       3.33129355      -0.44904401
Si       2.82694832      -0.42432231       6.38468518
Si       5.52271038       0.41573178       2.52308730
Si       1.29065021      -1.88292265       6.24113068
Si       3.24005366      -2.37339152       5.52910641
12
Lattice="5.4144239934971 0.22982427406527164 0.7613393992124183 -1.0739342906182316 7.2607260253314525 -2.681854946236088 0.8465508780804324 -3.7589597995887374 8.036369762823703" Properties=species:S:1:pos:R:3 unique_starting_index=44 config_type=initial n_minim_iter=21 stress="0.0039639603817146945 -0.000336835972455734 -0.0027349910987242163 -0.000336835972455734 0.004403690707081617 0.0008518507667648854 -0.0027349910987242163 0.0008518507667648854 0.00019016647010942697" pbc="T T T"
Si       0.93274032       0.19301754       5.59753057
Si      -0.50262105       2.47089059       1.67399194
Si       0.63426497       3.27905555       3.47907120
Si       2.68466740       2.84768821       3.06633848
Si       5.62152800       2.40647943       6.08862908
Si       4.85892228      -1.06843658       6.08512730
Si       3.60115348       4.45102459      -0.77372767
Si      -0.22217608       3.32940876      -0.43153829
Si       2.83165454      -0.41071245       6.33466357
Si       5.50695444       0.42468004       2.51200112
Si       1.29782769      -1.87232056       6.20097218
Si       3.23822207      -2.35899449       5.46573625
