18
Lattice="4.521236106689967 0.0 0.0 0.0 11.434587795420294 -6.549778408025705e-16 0.0 6.734408266266282e-16 9.98222616233723" Properties=species:S:1:pos:R:3 unique_starting_index=36 config_type=initial n_minim_iter=1 energy=-2928.211732236846 free_energy=-2928.211732236846 pbc="T T T"
Si       4.52076374      10.94978310       8.46027627
Si      -0.00047237      10.94978310       1.52194990
Si       2.26014568      10.94978310       3.46916318
Si       2.26014568      10.94978310       6.51306298
Si      -0.00047237       2.04076846       1.80799718
Si       4.52076374       2.04076846       8.17422898
Si       2.26014568       2.04076846       6.79911026
Si       2.26014568       2.04076846       3.18311590
Si      -0.00047237       8.53120043       2.16588696
Si       4.52076374       8.53120043       7.81633921
Si       2.26014568       8.53120043       7.15700004
Si       2.26014568       8.53120043       2.82522613
Si       2.26014568       0.56084002       1.20670622
Si       2.26014568       0.56084002       8.77551995
Si      -0.00047237       0.56084002       6.19781930
Si       4.52076374       0.56084002       3.78440687
Si      -0.00047237       9.23391101       0.00000000
Si       2.26014568       9.23391101       4.99111308
