22
Lattice="5.508763214045671 -0.6861595479791145 -1.3892817899941132 -2.462042746311965 10.146405623522208 -1.8046391927744774 -4.504019264198935 -4.5956674546701 11.007637868473939" Properties=species:S:1:pos:R:3 unique_starting_index=18 config_type=initial n_minim_iter=1 energy=-3577.5262476996586 free_energy=-3577.5262476996586 pbc="T T T"
Si       0.44013187       8.58367840      -0.56289581
Si      -0.78109015      -0.23035089       5.73763165
Si      -3.95650481      -3.17933341       9.91034110
Si       0.03594217      -2.38756984       9.02478822
Si      -5.37331225       0.23326702       9.31192634
Si       3.82708466       1.77062198       0.07124461
Si       2.22157505       0.10218886       0.00777291
Si      -1.90778731       0.88718100       8.04049586
Si      -1.92101795      -3.16435648       9.39107511
Si      -2.71372699       1.30302285       6.06135706
Si       1.69012646      -0.25523121       3.00809300
Si      -2.84680679       3.56936677       5.38749861
Si      -2.99079145      -1.82792244       6.23123164
Si      -0.91201954       6.72922562      -0.78156706
Si       0.97378621       1.70555515       4.45670435
Si       1.07279159       6.80652528      -1.57119333
Si      -0.47957148      -1.09869638       2.90339283
Si       2.38727198      -4.19474079       6.28644974
Si       0.18846688       2.05633572       2.50364685
Si      -2.85055306       2.94221892       7.41733956
Si      -1.41323152       3.96550473       3.19729794
Si      -1.73890803      -1.42352197       8.22598916
22
Lattice="5.5024245860373595 -0.6513529039706241 -1.3870485904378402 -2.402547411911299 10.161589498968985 -1.8387654831134477 -4.529155616272517 -4.669630897342904 11.021392253873158" Properties=species:S:1:pos:R:3 unique_starting_index=18 config_type=initial n_minim_iter=2 stress="0.004080148479097746 0.00444786998436216 -0.0020642061623091716 0.00444786998436216 -0.010846960920305444 -0.007183250522026039 -0.0020642061623091716 -0.007183250522026039 0.003867566019256611" pbc="T T T"
Si       0.48959084       8.60671601      -0.59266969
Si      -0.78252002      -0.25538406       5.73705734
Si      -3.97544455      -3.24268553       9.91960161
Si       0.02181015      -2.42426565       9.03135105
Si      -5.36998212       0.17052564       9.30859395
Si       3.83661798       1.79684126       0.06557556
Si       2.22120280       0.11597284       0.00646026
Si      -1.90183445       0.85041967       8.03607571
Si      -1.93764722      -3.21708333       9.40204799
Si      -2.70683590       1.27140641       6.05665079
Si       1.68763172      -0.25651559       3.00822742
Si      -2.82385323       3.54429165       5.37318727
Si      -3.00040047      -1.87044633       6.23649368
Si      -0.87189345       6.74330314      -0.80372541
Si       0.98275547       1.69738431       4.44996031
Si       1.11050021       6.83488733      -1.59375003
Si      -0.48668509      -1.11414766       2.90718224
Si       2.36120520      -4.21250887       6.29851494
Si       0.19993616       2.05419839       2.49683799
Si      -2.83299832       2.90532912       7.40522019
Si      -1.39004109       3.95557669       3.18359772
Si      -1.74766499      -1.46281994       8.22753109
22
Lattice="5.488296318000448 -0.650065649826917 -1.3801937589398943 -2.3850629158495984 10.221028662074419 -1.8243275953956015 -4.515531746755289 -4.690916455500935 10.990068340803502" Properties=species:S:1:pos:R:3 unique_starting_index=18 config_type=initial n_minim_iter=3 stress="-0.0008216930103475307 0.006584585230067862 -0.0022890113932135733 0.006584585230067862 0.014219856549257053 0.003150062481495465 -0.0022890113932135733 0.003150062481495465 0.0059705840604564455" pbc="T T T"
Si       0.49982385       8.66126325      -0.58028229
Si      -0.77598087      -0.25126910       5.72453145
Si      -3.96515514      -3.25494519       9.89294672
Si       0.02611212      -2.42880095       9.01164549
Si      -5.35004065       0.17497627       9.28438887
Si       3.83297801       1.81435354       0.07251956
Si       2.21691707       0.12199654       0.00626485
Si      -1.88800032       0.86339552       8.02031627
Si      -1.92638721      -3.23218572       9.38173739
Si      -2.69347973       1.28391554       6.04440648
Si       1.68620977      -0.25210309       3.00368480
Si      -2.80688045       3.57148454       5.36410799
Si      -2.99068988      -1.87783188       6.21947194
Si      -0.85967530       6.78673766      -0.79304240
Si       0.98639573       1.71374753       4.44369652
Si       1.11480745       6.87918493      -1.58078738
Si      -0.48586708      -1.11857302       2.90094030
Si       2.35548972      -4.22882298       6.28196817
Si       0.20450612       2.07217405       2.49628968
Si      -2.81628326       2.92862142       7.39129970
Si      -1.37862289       3.98338034       3.18215532
Si      -1.73858539      -1.45994675       8.20532075
22
Lattice="5.48190020609319 -0.6535523275054451 -1.368237869490847 -2.3948736526962744 10.212229433708591 -1.8292233191943246 -4.492590148483061 -4.688905637750334 10.953043574938974" Properties=species:S:1:pos:R:3 unique_starting_index=18 config_type=initial n_minim_iter=4 stress="-0.01328928938870766 0.0030624961854590167 0.002071921484474305 0.0030624961854590167 -0.005338086466766838 0.00034051401146916 0.002071921484474305 0.00034051401146916 -0.017874760037561544" pbc="T T T"
Si       0.49033048       8.64982813      -0.58483249
Si      -0.76780663      -0.25532271       5.70516954
Si      -3.94891194      -3.25377718       9.85922348
Si       0.03912189      -2.43346651       8.98585352
Si      -5.33391060       0.17246400       9.24699809
Si       3.83024891       1.80934440       0.07760357
Si       2.21503457       0.12181076       0.00698493
Si      -1.87545929       0.85765777       7.99234684
Si      -1.90648647      -3.23644392       9.35400384
Si      -2.68324566       1.28068142       6.02182756
Si       1.68845926      -0.25580449       2.99661095
Si      -2.80043704       3.56655163       5.34013347
Si      -2.97802090      -1.87680419       6.19745679
Si      -0.86502069       6.78109033      -0.79570856
Si       0.98876990       1.70669408       4.42877557
Si       1.10438691       6.87269634      -1.57936855
Si      -0.48199765      -1.11945236       2.89336666
Si       2.36498259      -4.23144523       6.26748885
Si       0.20524547       2.06910286       2.48840232
Si      -2.80712792       2.91999966       7.36078832
Si      -1.37696916       3.97762012       3.16832945
Si      -1.72526268      -1.45992431       8.17601301
22
Lattice="5.49340711345684 -0.659526939804782 -1.365972482878804 -2.414332027049746 10.21672338769415 -1.841629443924822 -4.489222483388456 -4.6923411737117 10.967685990337078" Properties=species:S:1:pos:R:3 unique_starting_index=18 config_type=initial n_minim_iter=5 stress="0.003767170912948632 -0.0007321137669147904 0.006998160805315233 -0.0007321137669147904 -0.0009450415027871933 -0.005151448601942264 0.006998160805315233 -0.005151448601942264 -0.005931007191408059" pbc="T T T"
Si       0.47946216       8.64900087      -0.59314937
Si      -0.76582658      -0.26023871       5.71134332
Si      -3.95063318      -3.25637103       9.87181716
Si       0.04697648      -2.44204684       8.99973971
Si      -5.34037798       0.17122139       9.25388380
Si       3.83902812       1.80534932       0.08070987
Si       2.21966570       0.12029623       0.00707343
Si      -1.87427157       0.85253170       8.00072536
Si      -1.89760612      -3.24408234       9.36731783
Si      -2.68544674       1.27837482       6.02689242
Si       1.69384689      -0.26078499       3.00155168
Si      -2.80759786       3.56631091       5.34052977
Si      -2.97803869      -1.87772657       6.20488372
Si      -0.87541933       6.78361920      -0.80182566
Si       0.99057608       1.70084525       4.43260130
Si       1.09673584       6.87416880      -1.58686877
Si      -0.48122638      -1.12193916       2.89912996
Si       2.37897781      -4.24080204       6.27941918
Si       0.20397399       2.06838616       2.49084036
Si      -2.81267766       2.91519593       7.36518249
Si      -1.38307030       3.97672302       3.16900610
Si      -1.72252520      -1.46257120       8.18417665
22
Lattice="5.491445323322872 -0.6642654108792302 -1.385089577664649 -2.4155862361069693 10.195788223817125 -1.8299653583034707 -4.511277182434716 -4.6695356814917455 10.998406437343448" Properties=species:S:1:pos:R:3 unique_starting_index=18 config_type=initial n_minim_iter=6 stress="0.009481774338485254 -0.0015069266462466402 0.001622957274003326 -0.0015069266462466402 -0.003913865653429272 -0.003975319954765282 0.001622957274003326 -0.003975319954765282 -0.00033286053172910756" pbc="T T T"
Si       0.47182028       8.62942005      -0.58965817
Si      -0.78173023      -0.25693011       5.72316337
Si      -3.98001975      -3.23653713       9.90031892
Si       0.02111035      -2.43126012       9.01680801
Si      -5.36235584       0.18340365       9.28568239
Si       3.83947905       1.80053298       0.07602208
Si       2.21688227       0.11973996      -0.00026265
Si      -1.89273213       0.85713509       8.02364172
Si      -1.91256991      -3.23023409       9.38597460
Si      -2.69977091       1.28119360       6.04683599
Si       1.68260753      -0.25991409       3.00234782
Si      -2.82334992       3.56666465       5.35951903
Si      -2.99069459      -1.86492257       6.22433798
Si      -0.87698312       6.77039171      -0.79286058
Si       0.97641534       1.69701166       4.43824052
Si       1.09423336       6.86067287      -1.58912509
Si      -0.49148062      -1.11834281       2.90908150
Si       2.36191902      -4.23115070       6.28052947
Si       0.19324403       2.06997094       2.49913793
Si      -2.83425094       2.91438194       7.38993696
Si      -1.39414798       3.97231503       3.18492247
Si      -1.74422426      -1.44838629       8.20047689
22
Lattice="5.475329779499934 -0.666035229144311 -1.3869283403278625 -2.4120762929155926 10.194202286385533 -1.8332868694101028 -4.496454086116559 -4.667821210798863 11.012804340572144" Properties=species:S:1:pos:R:3 unique_starting_index=18 config_type=initial n_minim_iter=7 stress="-0.011285223629743353 -0.002273403240181072 0.00554584889879594 -0.002273403240181072 -0.005840870667399979 -0.004366712534386092 0.00554584889879594 -0.004366712534386092 0.005358734144784534" pbc="T T T"
Si       0.46602188       8.62744780      -0.59189105
Si      -0.77989383      -0.25921761       5.72931086
Si      -3.96829007      -3.23437615       9.91191549
Si       0.02148307      -2.43178721       9.02929493
Si      -5.34692086       0.18589169       9.29614184
Si       3.83237867       1.80055087       0.07929217
Si       2.20995761       0.11927149      -0.00001459
Si      -1.88509927       0.85529691       8.03448194
Si      -1.90722327      -3.23038413       9.39597190
Si      -2.69057508       1.27895043       6.05363306
Si       1.67694078      -0.26127935       3.00609895
Si      -2.81674273       3.56668752       5.36478189
Si      -2.98130955      -1.86307518       6.23254425
Si      -0.87583130       6.76887697      -0.79299310
Si       0.97319832       1.69379473       4.44285508
Si       1.08918070       6.86070974      -1.59352919
Si      -0.49208371      -1.11950642       2.91594661
Si       2.35633284      -4.23326676       6.28836867
Si       0.19068615       2.07261679       2.50329477
Si      -2.82786675       2.91203155       7.39828446
Si      -1.39145831       3.97157134       3.19041775
Si      -1.74092767      -1.44714037       8.20882079
22
Lattice="5.477785921144982 -0.666338657436363 -1.39736447116304 -2.405453408196788 10.191791889287028 -1.8128229128376823 -4.522982467011176 -4.657570495464116 10.992198735239027" Properties=species:S:1:pos:R:3 unique_starting_index=18 config_type=initial n_minim_iter=8 stress="-0.0051313514366707206 0.0019593553377521013 -0.005376965547763488 0.0019593553377521013 -0.0015840791326246757 0.00039675962130578715 -0.005376965547763488 0.00039675962130578715 -0.006926251540731597" pbc="T T T"
Si       0.46571603       8.62847746      -0.58392999
Si      -0.79435358      -0.25808789       5.71469316
Si      -3.99346634      -3.22338244       9.89110834
Si       0.00008121      -2.42206474       9.00687048
Si      -5.36784910       0.19838948       9.28376092
Si       3.84193475       1.80560950       0.07800545
Si       2.20918605       0.12067792      -0.00449783
Si      -1.89816127       0.85988543       8.02217229
Si      -1.93351109      -3.22235846       9.37089424
Si      -2.70005128       1.27920684       6.04512932
Si       1.66810225      -0.25892503       2.99461128
Si      -2.82881971       3.57246921       5.36070994
Si      -2.99618314      -1.85533081       6.22300660
Si      -0.87080904       6.76714297      -0.77864769
Si       0.96322365       1.69407563       4.42988768
Si       1.09635932       6.86351458      -1.58953000
Si      -0.50410375      -1.11966758       2.91591674
Si       2.34055359      -4.23001064       6.26246609
Si       0.18296732       2.08314757       2.50192552
Si      -2.84621322       2.91538004       7.38750199
Si      -1.39788686       3.97479833       3.19421861
Si      -1.76620792      -1.43781097       8.18756326
22
Lattice="5.482813491560007 -0.6693230376540772 -1.3823481980153636 -2.415012229787737 10.155153039041217 -1.7824182872066454 -4.4972062020045005 -4.604034641631624 10.955414665116287" Properties=species:S:1:pos:R:3 unique_starting_index=18 config_type=initial n_minim_iter=9 stress="-0.001543511301438002 0.007029912335835325 0.003309074437704247 0.007029912335835325 -0.006309208180665061 0.01441944111302198 0.003309074437704247 0.01441944111302198 -0.0005660482774981699" pbc="T T T"
Si       0.45385963       8.60613270      -0.55350989
Si      -0.78042758      -0.24835002       5.70199139
Si      -3.97172805      -3.17468509       9.85319276
Si       0.02952302      -2.37752368       8.99781975
Si      -5.34889558       0.24094843       9.25639853
Si       3.85862217       1.81067254       0.09738553
Si       2.21117932       0.12045205       0.00802513
Si      -1.86274039       0.87837770       8.01917463
Si      -1.90818644      -3.17240688       9.34913414
Si      -2.68114509       1.28635031       6.03257500
Si       1.67610766      -0.25042795       2.99688676
Si      -2.81947956       3.58160675       5.36151946
Si      -2.98264498      -1.82238152       6.20439478
Si      -0.86766727       6.74209133      -0.74873590
Si       0.98913809       1.68940776       4.43843621
Si       1.09685714       6.84751543      -1.57102716
Si      -0.50647777      -1.11387284       2.92720960
Si       2.36028387      -4.20494464       6.24304296
Si       0.19091031       2.10714606       2.51500923
Si      -2.83273346       2.92670631       7.37748201
Si      -1.38978035       3.97548575       3.21307644
Si      -1.75672933      -1.40294362       8.16446167
22
Lattice="5.480971495260037 -0.7058309145909837 -1.3890819040649731 -2.477986039780511 10.216385764541965 -1.807745390076714 -4.487703153021253 -4.632808419754713 10.933922407782193" Properties=species:S:1:pos:R:3 unique_starting_index=18 config_type=initial n_minim_iter=10 stress="-0.008726277434195892 -0.004470363508246472 -0.0033922005035804557 -0.004470363508246472 0.005033956046797142 0.0017700430434239843 -0.0033922005035804557 0.0017700430434239843 0.001436652865481554" pbc="T T T"
Si       0.37455697       8.64409814      -0.59068771
Si      -0.79748906      -0.28758770       5.66670422
Si      -3.97175982      -3.19225883       9.81460241
Si       0.02353182      -2.41273293       8.97139354
Si      -5.37096187       0.25526389       9.21517224
Si       3.84757818       1.80532904       0.07289173
Si       2.20225160       0.10360445       0.01311008
Si      -1.86518503       0.84848361       7.98860151
Si      -1.90878196      -3.19434169       9.32295256
Si      -2.69133132       1.26556900       5.99789959
Si       1.65876892      -0.28168047       2.97804567
Si      -2.85872992       3.59510052       5.32480119
Si      -2.98269360      -1.82433451       6.19165770
Si      -0.89879080       6.77285225      -0.75622238
Si       0.97766065       1.64299600       4.41004521
Si       1.05465330       6.88820296      -1.61185879
Si      -0.52466024      -1.14036781       2.95122629
Si       2.36414597      -4.27952189       6.21262715
Si       0.17083927       2.13945471       2.50692387
Si      -2.87686084       2.91352569       7.32827862
Si      -1.42378078       3.98810710       3.20373978
Si      -1.78485566      -1.42525704       8.12178067
22
Lattice="5.486271677631779 -0.7247218999226118 -1.3957251888602598 -2.5103452475403514 10.182289314595058 -1.7804848768618606 -4.489363968101922 -4.57847019262204 10.907828766927121" Properties=species:S:1:pos:R:3 unique_starting_index=18 config_type=initial n_minim_iter=11 stress="-0.006440645125554402 -0.003751329987862477 -0.0014276022101616206 -0.003751329987862477 0.007931486508050183 0.008769099189744046 -0.0014276022101616206 0.008769099189744046 0.007893046029748316" pbc="T T T"
Si       0.33111409       8.61230742      -0.57774106
Si      -0.80875691      -0.29341348       5.64352334
Si      -3.97850568      -3.14165070       9.77868556
Si       0.02565631      -2.37229354       8.95089320
Si      -5.39466212       0.29478544       9.19307154
Si       3.84572229       1.80188944       0.06379931
Si       2.19948402       0.10020985       0.01643392
Si      -1.85933500       0.85506802       7.98020910
Si      -1.91948786      -3.14654074       9.29978968
Si      -2.69149740       1.26103809       5.98475285
Si       1.64736123      -0.28745206       2.96656390
Si      -2.88016872       3.60791260       5.31129722
Si      -2.98719237      -1.78732954       6.18035155
Si      -0.90603646       6.74930675      -0.72571703
Si       0.97671528       1.61279476       4.40454790
Si       1.03547353       6.87502965      -1.61109705
Si      -0.54480981      -1.14201869       2.97523811
Si       2.36900142      -4.27475679       6.18094330
Si       0.16677689       2.17124333       2.52125339
Si      -2.90391876       2.91112770       7.32186572
Si      -1.44108029       3.98524493       3.22395864
Si      -1.80282400      -1.39652270       8.09326526
22
Lattice="5.510100882625383 -0.7509613859905692 -1.4224314969345482 -2.559132084852384 10.180112990206004 -1.773684304673156 -4.528349913093996 -4.551809159531616 10.942130340999157" Properties=species:S:1:pos:R:3 unique_starting_index=18 config_type=initial n_minim_iter=12 stress="0.00857489565199636 -0.004625556313961825 0.001566982031606862 -0.004625556313961825 0.015464370705068791 0.004382576078722116 0.001566982031606862 0.004382576078722116 0.02701727806668451" pbc="T T T"
Si       0.26778051       8.59939207      -0.58387992
Si      -0.84135971      -0.33166112       5.62988036
Si      -4.03213182      -3.10659862       9.78552321
Si       0.01673351      -2.33740133       8.95905021
Si      -5.47234508       0.31899933       9.21221447
Si       3.85361264       1.81190220       0.04201190
Si       2.19689481       0.10868963       0.01242643
Si      -1.87217980       0.84265000       8.00091351
Si      -1.96714207      -3.12022251       9.31446105
Si      -2.70191210       1.23786112       6.00115805
Si       1.61985055      -0.31362417       2.95320141
Si      -2.94129575       3.61473540       5.32044135
Si      -3.01597713      -1.75830447       6.20565387
Si      -0.90738621       6.74312884      -0.69792219
Si       0.98171831       1.55076988       4.41008573
Si       1.00828519       6.89098333      -1.63285718
Si      -0.59479114      -1.16383853       3.04439354
Si       2.37026585      -4.30895844       6.17056258
Si       0.15549096       2.24048758       2.54981354
Si      -2.96056993       2.89563927       7.31551927
Si      -1.47610596       3.98812180       3.26513001
Si      -1.84511364      -1.38031565       8.08934363
22
Lattice="5.490561211887512 -0.7435532959985934 -1.422131824235899 -2.5340191315775167 10.203044387142775 -1.7737746198440416 -4.531248967115684 -4.580959314077796 10.903816177843325" Properties=species:S:1:pos:R:3 unique_starting_index=18 config_type=initial n_minim_iter=13 stress="0.016592210605999566 -0.0013934548284463204 0.007123482748292749 -0.0013934548284463204 0.019349990633937875 -0.0015249100402958244 0.007123482748292749 -0.0015249100402958244 0.031111062215306344" pbc="T T T"
Si       0.25807573       8.62394969      -0.58775351
Si      -0.85090186      -0.38192674       5.58232334
Si      -4.04629236      -3.11652548       9.72948357
Si       0.00706124      -2.32360034       8.92055580
Si      -5.47278850       0.31330741       9.16747156
Si       3.85143352       1.85223600       0.03230358
Si       2.18184815       0.13890892       0.01001207
Si      -1.85028888       0.82102322       7.96369042
Si      -1.97311974      -3.11983931       9.27987247
Si      -2.65800281       1.19434414       5.97842872
Si       1.58816282      -0.33628844       2.92611246
Si      -2.94516799       3.61403264       5.27502431
Si      -3.01537161      -1.76324432       6.19079415
Si      -0.86700987       6.74466598      -0.68177135
Si       0.99153196       1.50354700       4.38254772
Si       1.01500746       6.93400628      -1.64436893
Si      -0.63909047      -1.19420324       3.09499156
Si       2.34685864      -4.34783322       6.13189391
Si       0.16361738       2.31680966       2.56520560
Si      -2.94769909       2.86788975       7.27057157
Si      -1.46572016       3.99485065       3.27720307
Si      -1.86050431      -1.39532802       8.03686160
22
Lattice="5.473709550018522 -0.7359383930523845 -1.4511246706640644 -2.500459935561236 10.185337361846655 -1.7550998799534503 -4.576519563889006 -4.575359386602411 10.921818763422602" Properties=species:S:1:pos:R:3 unique_starting_index=18 config_type=initial n_minim_iter=14 stress="0.0008227484989617737 0.001439008066890977 0.0011931209243504094 0.001439008066890977 0.008793997511422279 -0.0041570468819909214 0.0011931209243504094 -0.0041570468819909214 0.02352458792276045" pbc="T T T"
Si       0.24753996       8.62145379      -0.58222256
Si      -0.88290311      -0.42323863       5.56134589
Si      -4.09101327      -3.09796578       9.72626609
Si      -0.04529245      -2.28904175       8.91445216
Si      -5.50529274       0.31323254       9.18250809
Si       3.84362599       1.88623500       0.00976452
Si       2.16831762       0.17078251      -0.00267955
Si      -1.86758158       0.81320854       7.96381926
Si      -2.02092575      -3.09697207       9.29205358
Si      -2.64286170       1.17006634       5.99985140
Si       1.54139178      -0.35599279       2.90317853
Si      -2.97662724       3.60061213       5.26426877
Si      -3.03614130      -1.75460510       6.21682344
Si      -0.83838339       6.72152766      -0.64723734
Si       0.98741127       1.46413572       4.36000349
Si       1.03804414       6.94287593      -1.65348700
Si      -0.69100796      -1.21362855       3.15963790
Si       2.29722328      -4.35700969       6.10254988
Si       0.16585372       2.38511275       2.59945578
Si      -2.95436448       2.83655121       7.27002754
Si      -1.46791440       3.99304343       3.31319668
Si      -1.90515336      -1.39045819       8.01660580
22
Lattice="5.4693375504993815 -0.7233296189171999 -1.4314380290101592 -2.479954173547847 10.195257309893176 -1.752951849929419 -4.563707685737223 -4.595552105953694 10.854146222313384" Properties=species:S:1:pos:R:3 unique_starting_index=18 config_type=initial n_minim_iter=15 stress="0.008461278361892666 0.0018217927048909737 0.0012328055113719279 0.0018217927048909737 0.00208060174308893 -0.004708494046568859 0.0012328055113719279 -0.004708494046568859 0.0042911714419877475" pbc="T T T"
Si       0.25577652       8.63707068      -0.58228070
Si      -0.87434708      -0.44937573       5.51949529
Si      -4.08300631      -3.10604248       9.65823374
Si      -0.03427323      -2.28292132       8.86525926
Si      -5.48600918       0.29786386       9.11584013
Si       3.85211418       1.91475727       0.01779527
Si       2.16709441       0.18822463       0.00518641
Si      -1.84188031       0.80455547       7.91364364
Si      -2.00676623      -3.09714474       9.23238345
Si      -2.60967340       1.15246719       5.96085393
Si       1.53420253      -0.36617261       2.88446901
Si      -2.96780347       3.59058346       5.21702133
Si      -3.02435102      -1.76461699       6.18699914
Si      -0.81558551       6.72511974      -0.63470450
Si       1.00897461       1.45006278       4.32467283
Si       1.05092835       6.96665907      -1.64027972
Si      -0.70205363      -1.22776397       3.17220507
Si       2.30208190      -4.36632350       6.07227278
Si       0.18672906       2.42146701       2.60566706
Si      -2.92121893       2.82592676       7.21842321
Si      -1.44861366       3.99761151       3.30445307
Si      -1.89404356      -1.39942749       7.95469967
22
Lattice="5.453728540218543 -0.6810111671508956 -1.4149636101011753 -2.4126587594560402 10.176725961999429 -1.7922886374368 -4.560149088263652 -4.6581531964832 10.858027089352998" Properties=species:S:1:pos:R:3 unique_starting_index=18 config_type=initial n_minim_iter=16 stress="0.014952259838162613 0.004695557009110425 0.005470923683772344 0.004695557009110425 -0.006945824110489324 -0.0061064540341799 0.005470923683772344 -0.0061064540341799 0.015281302611612022" pbc="T T T"
Si       0.30406050       8.63665945      -0.61460728
Si      -0.86567443      -0.49561913       5.51630809
Si      -4.07855892      -3.15128933       9.65997279
Si      -0.04160529      -2.30509619       8.86402352
Si      -5.44821529       0.23006430       9.10523885
Si       3.85936476       1.95018073       0.02088967
Si       2.16947137       0.22356273       0.00677880
Si      -1.81477390       0.76462157       7.91368424
Si      -1.99585856      -3.13472726       9.23832709
Si      -2.56862493       1.11225425       5.92854227
Si       1.51935400      -0.38187620       2.88172389
Si      -2.93878699       3.53284579       5.18752559
Si      -3.01771989      -1.81614164       6.19187424
Si      -0.77401551       6.70107774      -0.65183311
Si       1.01847690       1.43159933       4.28700785
Si       1.09000354       6.97531546      -1.63540626
Si      -0.70607228      -1.24621256       3.19842721
Si       2.29481805      -4.36033645       6.10002341
Si       0.21896169       2.43643728       2.62386764
Si      -2.85445004       2.79566012       7.19501167
Si      -1.40748942       3.97986238       3.29639179
Si      -1.86499255      -1.43608014       7.94732228
22
Lattice="5.436957232157923 -0.6816351510556512 -1.3444966496926665 -2.4246166288568527 10.277776813680603 -1.8232421294521153 -4.455347425194465 -4.735409369923532 10.69697762245448" Properties=species:S:1:pos:R:3 unique_starting_index=18 config_type=initial n_minim_iter=17 stress="0.004867242946322509 0.003143725094692019 0.01877528812730942 0.003143725094692019 -0.025607871518960507 -0.0030925933719624173 0.01877528812730942 -0.0030925933719624173 -0.015905002981573477" pbc="T T T"
Si       0.28866393       8.73574397      -0.63157803
Si      -0.81842939      -0.54212972       5.44566236
Si      -3.99399852      -3.19682648       9.51925644
Si       0.02491072      -2.35301189       8.74978851
Si      -5.35043486       0.19759189       8.94279802
Si       3.86586662       1.97976225       0.05514495
Si       2.17325890       0.24563131       0.02642893
Si      -1.74090622       0.74582813       7.80365069
Si      -1.90267348      -3.17947701       9.10524610
Si      -2.50247338       1.12258755       5.81303563
Si       1.52463133      -0.41080109       2.85456549
Si      -2.89109631       3.53508602       5.07404974
Si      -2.96104995      -1.87030854       6.09622967
Si      -0.77987720       6.75616192      -0.66020506
Si       1.05134332       1.40127836       4.21813945
Si       1.08402655       7.04130969      -1.61970925
Si      -0.67944995      -1.27089003       3.17765573
Si       2.36365874      -4.40861821       6.07040461
Si       0.24059227       2.48716693       2.59384256
Si      -2.76052045       2.80178153       7.06780857
Si      -1.36980550       4.01614553       3.24196002
Si      -1.76938585      -1.48150441       7.83971275
22
Lattice="5.430909284654358 -0.699395043728046 -1.3416582152443386 -2.454054919698389 10.3397218776451 -1.8478891458842057 -4.441508396813251 -4.778197522269915 10.672139132632168" Properties=species:S:1:pos:R:3 unique_starting_index=18 config_type=initial n_minim_iter=18 stress="-0.000288465514456835 -0.004030271163687786 0.007292161000502524 -0.004030271163687786 -0.014837563051778439 -0.01378176095169185 0.007292161000502524 -0.01378176095169185 -0.021773873134413348" pbc="T T T"
Si       0.24674957       8.78602182      -0.66308275
Si      -0.82666178      -0.58567212       5.42616042
Si      -3.99228069      -3.21742871       9.49468596
Si       0.02243504      -2.38878103       8.70788249
Si      -5.34204881       0.18831349       8.90611624
Si       3.85923860       1.98537379       0.04925309
Si       2.17141799       0.25561460       0.02432142
Si      -1.74622734       0.72391457       7.77157370
Si      -1.89879233      -3.21126007       9.08308569
Si      -2.49535346       1.11972532       5.77444346
Si       1.50186035      -0.44243071       2.83610830
Si      -2.91261814       3.52871820       5.03416569
Si      -2.95370624      -1.89937468       6.08732871
Si      -0.79568348       6.78315185      -0.66820011
Si       1.04614373       1.35979193       4.18173096
Si       1.06370481       7.08256802      -1.63760480
Si      -0.68615163      -1.29179448       3.19180321
Si       2.37450513      -4.45819934       6.05608321
Si       0.22411202       2.52866763       2.57926301
Si      -2.76105797       2.79996328       7.03110853