16
Lattice="9.156112682436452 1.2322962173788956 -0.22532065527259051 2.3605810103926763 6.768187277331123 -0.46404100429645134 1.1646127131052486 0.8894525964637691 6.577679798407173" Properties=species:S:1:pos:R:3 unique_starting_index=30 config_type=initial n_minim_iter=1 energy=-2606.9235373469783 free_energy=-2606.9235373469783 pbc="T T T"
Si       6.63596080       6.49009224       2.26014126
Si       6.04534561       2.39984385       3.62817688
Si       4.78479954       3.47161486       2.25067874
Si       7.89650686       5.41832123       3.63763940
Si       7.14134155       3.80287997       4.83014891
Si       5.53996485       5.08705612       1.05816922
Si       6.52354200       4.73329478      -0.78959141
Si       6.15776440       4.15664131       6.67790955
Si       2.70429736       3.45108183       2.74749377
Si       9.97700904       5.43885426       3.14082437
Si      10.95761322       6.29388769       1.44753441
Si       1.72369318       2.59604840       4.44078373
Si       3.85156915       1.95626340       3.74173806
Si       8.82973725       6.93367269       2.14658008
Si       7.15850046       6.54246431       0.19899440
Si       5.52280595       2.34747178       5.68932373
16
Lattice="9.15499442258929 1.2324704547462741 -0.22462943358574147 2.360461092777075 6.767684112405504 -0.46376051693131853 1.1649581933880937 0.8894422326255815 6.57657565600593" Properties=species:S:1:pos:R:3 unique_starting_index=30 config_type=initial n_minim_iter=2 stress="-0.00012706992430040339 -0.0002629136298463148 0.00015058186872048948 -0.0002629136298463148 -0.0001909948578785351 8.421113284402193e-05 0.00015058186872048948 8.421113284402193e-05 -0.0008416622344941117" pbc="T T T"
Si       6.63550808       6.48973809       2.26023789
Si       6.04490563       2.39985871       3.62794781
Si       4.78447659       3.47150995       2.25059801
Si       7.89593712       5.41808685       3.63758770
Si       7.14090361       3.80281554       4.82981044
Si       5.53951009       5.08678126       1.05837527
Si       6.52280788       4.73310314      -0.78891191
Si       6.15760583       4.15649366       6.67709762
Si       2.70424722       3.45086232       2.74720612
Si       9.97616649       5.43873448       3.14097958
Si      10.95651476       6.29369809       1.44812203
Si       1.72389895       2.59589871       4.44006368
Si       3.85138236       1.95620778       3.74134731
Si       8.82903135       6.93338902       2.14683839
Si       7.15782160       6.54211518       0.19946404
Si       5.52259211       2.34748162       5.68872167
16
Lattice="9.152667286925626 1.2362575256749369 -0.22405475254853327 2.3625579176170146 6.76813500968905 -0.4642803713091193 1.1655138786532981 0.8893121665823682 6.578747498041822" Properties=species:S:1:pos:R:3 unique_starting_index=30 config_type=initial n_minim_iter=3 stress="-0.001172582803119652 0.0010277212018872006 0.00020906239409927455 0.0010277212018872006 -9.504128500086008e-05 0.0006648621083754174 0.00020906239409927455 0.0006648621083754174 0.0009543507252230526" pbc="T T T"
Si       6.63657934       6.49154946       2.26131686
Si       6.04415974       2.40215524       3.62909551
Si       4.78480731       3.47354464       2.25105815
Si       7.89593177       5.42016006       3.63935423
Si       7.14076044       3.80524027       4.83162595
Si       5.53997864       5.08846443       1.05878642
Si       6.52272792       4.73571346      -0.78838996
Si       6.15801116       4.15799124       6.67880233
Si       2.70490518       3.45116875       2.74799541
Si       9.97583391       5.44253595       3.14241696
Si      10.95549976       6.29777340       1.44965342
Si       1.72523932       2.59593130       4.44075895
Si       3.85087431       1.95690906       3.74285874
Si       8.82986478       6.93679565       2.14755364
Si       7.15843072       6.54435763       0.19892428
Si       5.52230837       2.34934708       5.69148810
16
Lattice="9.155400888801733 1.235301833333089 -0.22487072909715153 2.3625590869419217 6.767888155319984 -0.46719498089321854 1.165548785688302 0.8863417105383302 6.577384192030263" Properties=species:S:1:pos:R:3 unique_starting_index=30 config_type=initial n_minim_iter=4 stress="0.0004932673842722258 -0.0003300582747922995 0.0008252621568791002 -0.0003300582747922995 -0.0005164889746874906 -0.0010019465279785186 0.0008252621568791002 -0.0010019465279785186 0.00026870496677769407" pbc="T T T"
Si       6.63813941       6.48931883       2.25808557
Si       6.04536935       2.40021287       3.62723291
Si       4.78605021       3.47261132       2.24853795
Si       7.89745855       5.41692038       3.63678054
Si       7.14253800       3.80243124       4.82886112
Si       5.54097076       5.08710046       1.05645737
Si       6.52432406       4.73533059      -0.78992260
Si       6.15918471       4.15420111       6.67524108
Si       2.70504894       3.44921705       2.74588033
Si       9.97845983       5.44031465       3.13943815
Si      10.95765179       6.29593234       1.44721547
Si       1.72585697       2.59359936       4.43810301
Si       3.85120236       1.95417793       3.74156046
Si       8.83230641       6.93535377       2.14375802
Si       7.15991749       6.54303881       0.19529230
Si       5.52359127       2.34649289       5.69002618
16
Lattice="9.15585301061869 1.2365270295110409 -0.2304883754205534 2.363547725170144 6.770228681988172 -0.46732874768610766 1.1613900381573636 0.8878831698054966 6.573639978755973" Properties=species:S:1:pos:R:3 unique_starting_index=30 config_type=initial n_minim_iter=5 stress="0.0011852449780075237 7.0859767442034e-05 -0.0005173689686192736 7.0859767442034e-05 -0.0011281500515402407 0.0008511332568327961 -0.0005173689686192736 0.0008511332568327961 -0.0006158593106878893" pbc="T T T"
Si       6.63812524       6.49181659       2.25363577
Si       6.04266553       2.40282229       3.62218709
Si       4.78520415       3.47555759       2.24422736
Si       7.89558662       5.41908130       3.63159550
Si       7.14031003       3.80528330       4.82189867
Si       5.54048075       5.08935558       1.05392418
Si       6.52566911       4.73741487      -0.79231008
Si       6.15512167       4.15722401       6.66813293
Si       2.70355246       3.45040031       2.74303226
Si       9.97723831       5.44423857       3.13279059
Si      10.95671049       6.29955128       1.44190355
Si       1.72408028       2.59508760       4.43391930
Si       3.84817031       1.95482358       3.73790076
Si       8.83262046       6.93981530       2.13792210
Si       7.16047364       6.54553878       0.19123956
Si       5.52031714       2.34910011       5.68458329
16
Lattice="9.14934684622987 1.2381807494622887 -0.2332845013073348 2.362237928145038 6.777077160288291 -0.47036961644427516 1.1588850635704702 0.8863927681617114 6.572423184510731" Properties=species:S:1:pos:R:3 unique_starting_index=30 config_type=initial n_minim_iter=6 stress="2.865996955183073e-05 -3.510646012349526e-05 0.00026620120208760515 -3.510646012349526e-05 0.002030008841597175 8.444805624497235e-05 0.00026620120208760515 8.444805624497235e-05 -0.00048142352252547756" pbc="T T T"
Si       6.63384449       6.49697368       2.24891486
Si       6.03662535       2.40467700       3.61985421
Si       4.78110358       3.47915371       2.24100204
Si       7.88936626       5.42249696       3.62776703
Si       7.13446869       3.80757110       4.81768742
Si       5.53600115       5.09407958       1.05108164
Si       6.52153933       4.74243792      -0.79499285
Si       6.14893051       4.15921276       6.66376191
Si       2.70118404       3.45226737       2.74019623
Si       9.96928580       5.44938330       3.12857284
Si      10.94789858       6.30597914       1.43797358
Si       1.72257125       2.59567154       4.43079549
Si       3.84369528       1.95445087       3.73615101
Si       8.82677456       6.94719981       2.13261806
Si       7.15542486       6.55187179       0.18677160
Si       5.51504498       2.34977889       5.68199747
16
Lattice="9.145935961077958 1.238146639850816 -0.23607395271418352 2.361655254308579 6.775287561263065 -0.4728204893485783 1.156721743530067 0.8844905335301726 6.573306808168903" Properties=species:S:1:pos:R:3 unique_starting_index=30 config_type=initial n_minim_iter=7 stress="-0.0013579800069951048 -0.0005535834583472569 -0.0008402217946572449 -0.0005535834583472569 -0.0002722971063906668 -0.0006150822295884044 -0.0008402217946572449 -0.0006150822295884044 0.0002925578184785851" pbc="T T T"
Si       6.63149257       6.49435477       2.24568293
Si       6.03282039       2.40356997       3.61872943
Si       4.77855777       3.47812972       2.23912733
Si       7.88575519       5.41979502       3.62528504
Si       7.13088628       3.80559081       4.81566244
Si       5.53342668       5.09233392       1.04874993
Si       6.51943325       4.74114256      -0.79774134
Si       6.14487971       4.15678217       6.66215370
Si       2.69966221       3.45031736       2.73867002
Si       9.96465075       5.44760738       3.12574235
Si      10.94309008       6.30435509       1.43457143
Si       1.72122288       2.59356965       4.42984093
Si       3.84079050       1.95241511       3.73557037
Si       8.82352246       6.94550962       2.12884199
Si       7.15277648       6.55003304       0.18320515
Si       5.51153647       2.34789170       5.68120722
16
Lattice="9.152394509408902 1.2448962877704683 -0.23462157576960163 2.368312620418111 6.774623675171061 -0.4733413262763869 1.1593472240294311 0.8843765430312344 6.576947199619652" Properties=species:S:1:pos:R:3 unique_starting_index=30 config_type=initial n_minim_iter=8 stress="4.6489039928424365e-05 0.000319547356273516 0.0002144764760364739 0.000319547356273516 1.2918653246646123e-05 -7.035437304344037e-06 0.0002144764760364739 -7.035437304344037e-06 -2.6371250025114597e-05" pbc="T T T"
Si       6.64349636       6.49583316       2.24618878
Si       6.03655799       2.40806335       3.62279552
Si       4.78375231       3.48159237       2.24033358
Si       7.89630204       5.42230413       3.62865072
Si       7.14024801       3.80990753       4.81905150
Si       5.53980635       5.09398898       1.04993280
Si       6.52686673       4.74319095      -0.79590240
Si       6.15318763       4.16070556       6.66488670
Si       2.70477655       3.44982528       2.73812966
Si       9.97527780       5.45407123       3.13085464
Si      10.95356650       6.31140590       1.43956949
Si       1.72648785       2.59249060       4.42941481
Si       3.84359172       1.95207027       3.73843553
Si       8.83646264       6.95182624       2.13054877
Si       7.16214026       6.55309724       0.18418678
Si       5.51791409       2.35079927       5.68479752
16
Lattice="9.153811687155498 1.2424877288735083 -0.23803730370274742 2.3674138041749266 6.7720846063894005 -0.4732852758139653 1.1567951547046211 0.8849080369688256 6.578044853201716" Properties=species:S:1:pos:R:3 unique_starting_index=30 config_type=initial n_minim_iter=9 stress="-3.2136473847532554e-06 0.0002792461983164287 -0.0002636102394801634 0.0002792461983164287 7.726076877026784e-06 -6.879032172656767e-05 -0.0002636102394801634 -6.879032172656767e-05 -0.0002624638912330942" pbc="T T T"
Si       6.64492165       6.49153322       2.24447530
Si       6.03309900       2.40794715       3.62224698
Si       4.78211248       3.47984224       2.23972436
Si       7.89590817       5.41963813       3.62699791
Si       7.13881615       3.80690189       4.81830330
Si       5.53920450       5.09257848       1.04841897
Si       6.52729446       4.73953943      -0.79601619
Si       6.15072619       4.15994094       6.66273846
Si       2.70242748       3.44802015       2.73614279
Si       9.97559317       5.45146022       3.13057948
Si      10.95256465       6.30842508       1.43909356
Si       1.72545600       2.59105529       4.42762872
Si       3.84137144       1.94965121       3.73791643
Si       8.83664921       6.94982917       2.12880585
Si       7.16199481       6.54981570       0.18229235
Si       5.51602584       2.34966467       5.68442993
16
Lattice="9.152517080430815 1.2383629576306292 -0.23501002908656574 2.3642589056551433 6.7697372354078444 -0.47062788463749883 1.1582843181237545 0.8863109148962153 6.580830971879973" Properties=species:S:1:pos:R:3 unique_starting_index=30 config_type=initial n_minim_iter=10 stress="-0.0004066050501573887 -0.0008038002713820241 0.0005482875257308581 -0.0008038002713820241 -0.00021162923662278274 0.0007124247122988155 0.0005482875257308581 0.0007124247122988155 0.0005120906425765341" pbc="T T T"
Si       6.64352122       6.48780306       2.24903264
Si       6.03153908       2.40660805       3.62616042
Si       4.78031331       3.47799282       2.24242392
Si       7.89474699       5.41641829       3.63276914
Si       7.13825183       3.80418551       4.82325424
Si       5.53680848       5.09022560       1.05193882
Si       6.52481605       4.73523625      -0.79263895
Si       6.15024425       4.15917485       6.66783201
Si       2.70095581       3.44652959       2.73801902
Si       9.97410449       5.44788151       3.13717404
Si      10.94910120       6.30397168       1.44576301
Si       1.72595910       2.59043943       4.42943004
Si       3.84083465       1.94847086       3.74042728
Si       8.83422566       6.94594024       2.13476578
Si       7.15901088       6.54593737       0.18617460
Si       5.51604942       2.34847374       5.68901846
16
Lattice="9.160586414187678 1.2429358564805661 -0.2354392925493833 2.3701163584406792 6.766132364498099 -0.47510381138546354 1.1600240468896275 0.8818093884669904 6.579679150263354" Properties=species:S:1:pos:R:3 unique_starting_index=30 config_type=initial n_minim_iter=11 stress="0.000773237086401622 0.00018831584734714483 -0.00023101179549073347 0.00018831584734714483 7.417867736789574e-05 -0.000640909569892518 -0.00023101179549073347 -0.000640909569892518 0.00046056594535408345" pbc="T T T"
Si       6.66490398       6.48002823       2.24291007
Si       6.02582284       2.41084938       3.62622598
Si       4.77944039       3.47668170       2.23297865
Si       7.91128643       5.41419591       3.63615740
Si       7.14747117       3.79602298       4.82245744
Si       5.54325565       5.09485463       1.04667860
Si       6.53555565       4.73072936      -0.79437026
Si       6.15517117       4.16014825       6.66350631
Si       2.69846315       3.43660328       2.72568629
Si       9.99226367       5.45427433       3.14344976
Si      10.95829097       6.31434541       1.45030221
Si       1.73243585       2.57653220       4.41883383
Si       3.83911716       1.94400638       3.73240173
Si       8.85160966       6.94687123       2.13673432
Si       7.17164611       6.54745918       0.17810635
Si       5.51908071       2.34341843       5.69102969
16
Lattice="9.159726735203062 1.238455651583849 -0.23845205046754445 2.3671907201293068 6.763444865162263 -0.47130968454824146 1.156752739277888 0.8856568848733622 6.577867838313039" Properties=species:S:1:pos:R:3 unique_starting_index=30 config_type=initial n_minim_iter=12 stress="0.0003636684798324 -0.0001846491652087501 -0.00021192989830885837 -0.0001846491652087501 0.0002922671325600473 -0.00027253218567269095 -0.00021192989830885837 -0.00027253218567269095 0.0008385387285651953" pbc="T T T"
Si       6.66661742       6.47530011       2.24328318
Si       6.01705278       2.41225730       3.62482293
Si       4.77326414       3.47737706       2.22853636
Si       7.91040606       5.41018034       3.63956974
Si       7.14389157       3.79409872       4.82141756
Si       5.53977862       5.09345869       1.04668855
Si       6.53514287       4.72611630      -0.79117706
Si       6.14852732       4.16144111       6.65928316
Si       2.69268224       3.43485929       2.71775946
Si       9.99098796       5.45269812       3.15034664
Si      10.95518445       6.31501195       1.45084947
Si       1.72848574       2.57254545       4.41725664
Si       3.83490516       1.94330607       3.72677131
Si       8.84876503       6.94425133       2.14133479
Si       7.16992337       6.54282120       0.17743352
Si       5.51374683       2.34473621       5.69067258
16
Lattice="9.156394763923764 1.2380334511910345 -0.23987679695414083 2.36585553039551 6.765288479523404 -0.4708281041355198 1.1551281159874873 0.8867248714060451 6.578171189911555" Properties=species:S:1:pos:R:3 unique_starting_index=30 config_type=initial n_minim_iter=13 stress="-0.0001149623437904446 3.8914423973201646e-05 2.1388065073882852e-05 3.8914423973201646e-05 -7.533765347042323e-05 -5.392177216914977e-06 2.1388065073882852e-05 -5.392177216914977e-06 0.0003380853923123625" pbc="T T T"
Si       6.66257000       6.47689239       2.24252501
Si       6.01480841       2.41315441       3.62494127
Si       4.76990208       3.47921377       2.22955618
Si       7.90747633       5.41083303       3.63791011
Si       7.14057147       3.79653920       4.82083408
Si       5.53680694       5.09350760       1.04663221
Si       6.53317470       4.72688961      -0.79103600
Si       6.14420371       4.16315719       6.65850229
Si       2.68800243       3.43539771       2.71719910
Si       9.98937598       5.45464909       3.15026719
Si      10.95119593       6.31694425       1.44960253
Si       1.72618248       2.57310255       4.41786376
Si       3.83288877       1.94468791       3.72416710
Si       8.84448964       6.94535889       2.14329919
Si       7.16725005       6.54263107       0.17762187
Si       5.51012837       2.34741574       5.68984442
16
Lattice="9.157274478183552 1.230893055220982 -0.24575495179148765 2.360550806433195 6.769964794586061 -0.4676541806301451 1.149605147233342 0.8910624081334133 6.572700513017193" Properties=species:S:1:pos:R:3 unique_starting_index=30 config_type=initial n_minim_iter=14 stress="-0.0001600601254874757 -0.00039418412602803307 9.746653752651834e-05 -0.00039418412602803307 -8.973909500113462e-05 0.00043739233543159617 9.746653752651834e-05 0.00043739233543159617 -0.000700002490733048" pbc="T T T"
Si       6.65597758       6.47773798       2.24003883
Si       6.01145285       2.41418227       3.61925256
Si       4.76211473       3.48154122       2.22860408
Si       7.90531570       5.41037904       3.63068730
Si       7.13535805       3.79912908       4.81494762
Si       5.53207239       5.09279117       1.04434376
Si       6.53204249       4.72419122      -0.79030520
Si       6.13538794       4.16772904       6.64959658
Si       2.67909251       3.43428619       2.71157078
Si       9.98833792       5.45763406       3.14772060
Si      10.94703240       6.31786998       1.44535981
Si       1.72039804       2.57405028       4.41393157
Si       3.82821294       1.94643286       3.71331900
Si       8.83921750       6.94548739       2.14597238
Si       7.16466577       6.54045060       0.17598729
Si       5.50276466       2.35146966       5.68330409
16
Lattice="9.159542627796068 1.2336414522847976 -0.2482362272686912 2.3628330904394446 6.773673236616796 -0.4660585962746242 1.1478539796693068 0.893592296122484 6.5652384126668375" Properties=species:S:1:pos:R:3 unique_starting_index=30 config_type=initial n_minim_iter=15 stress="-0.0003587579923901791 3.482408804598009e-05 0.00011237428513339233 3.482408804598009e-05 3.074830073984445e-05 0.00034411071556697276 0.00011237428513339233 0.00034411071556697276 -0.0006615620009197495" pbc="T T T"
Si       6.66134902       6.47892997       2.23657897
Si       6.00888068       2.42197701       3.61436462
Si       4.75535377       3.48734535       2.22478919
Si       7.91487593       5.41356164       3.62615440
Si       7.13734699       3.80394850       4.80842069
Si       5.53288271       5.09695848       1.04252290
Si       6.53837212       4.72461280      -0.78889465
Si       6.13185758       4.17629419       6.63983824
Si       2.66982070       3.43097399       2.69690432
Si      10.00040900       5.46993300       3.15403927
Si      10.95002930       6.33132728       1.44699850
Si       1.72020040       2.56957971       4.40394509
Si       3.82572223       1.94650172       3.69842214
Si       8.84450747       6.95440527       2.15252144
Si       7.17223238       6.54283934       0.17299725
Si       5.49799732       2.35806764       5.67794634
16
Lattice="9.1668023427117 1.2383271157619966 -0.24483656312011653 2.3686932388558537 6.768638887999257 -0.46526257098068374 1.151690572588705 0.8933140296570976 6.564355388216431" Properties=species:S:1:pos:R:3 unique_starting_index=30 config_type=initial n_minim_iter=16 stress="0.00044516919483176566 0.0003137327061890831 0.0003553312991573736 0.0003137327061890831 -0.0003280267567445317 2.2093695112022575e-05 0.0003553312991573736 2.2093695112022575e-05 -0.00014117272262595764" pbc="T T T"
Si       6.67387281       6.47367121       2.23721901
Si       6.01331335       2.42660882       3.61703725
Si       4.75574919       3.48881167       2.22483616
Si       7.93143696       5.41146836       3.62942010
Si       7.14696471       3.80304308       4.80947339
Si       5.54022144       5.09723695       1.04478286
Si       6.54920053       4.72301386      -0.78452561
Si       6.13798563       4.17726617       6.63878186
Si       2.66817414       3.42156146       2.68595224
Si      10.01901201       5.47871857       3.16830402
Si      10.96130140       6.33925308       1.45544989
Si       1.72588476       2.56102695       4.39880636
Si       3.82854125       1.94372149       3.69084179
Si       8.85864491       6.95655854       2.16341446
Si       7.18592610       6.53942741       0.17441320
Si       5.50126006       2.36085262       5.67984306
16
Lattice="9.161866648466683 1.2388246841489219 -0.2484440692260679 2.3675105609941944 6.772002751974598 -0.46559106101754344 1.1482915786860342 0.8940656387249197 6.5592038970699855" Properties=species:S:1:pos:R:3 unique_starting_index=30 config_type=initial n_minim_iter=17 stress="0.00021175314718070286 0.00012653456491498486 -0.0004214243269236253 0.00012653456491498486 0.00044197139223706275 -0.00019484936972234476 -0.0004214243269236253 -0.00019484936972234476 0.0005671000938026879" pbc="T T T"
Si       6.67124160       6.47548206       2.23405984
Si       6.00642718       2.42941101       3.61110893
Si       4.74957837       3.49169490       2.22093430
Si       7.92809042       5.41319817       3.62423447
Si       7.14137275       3.80566537       4.80342153
Si       5.53629604       5.09922770       1.04174724
Si       6.54766215       4.72346208      -0.78587251
Si       6.13000664       4.18143099       6.63104128
Si       2.66007608       3.41633385       2.67337493
Si      10.01759270       5.48855923       3.17179384
Si      10.95343194       6.34733965       1.45367609
Si       1.72423684       2.55755343       4.39149268
Si       3.82455691       1.94134149       3.68111781
Si       8.85311187       6.96355158       2.16405096
Si       7.18635510       6.54243374       0.17116111
Si       5.49131369       2.36245934       5.67400766
16
Lattice="9.15804382409513 1.239012057946023 -0.24570623716039128 2.366596949014897 6.771338127122034 -0.46629129381601986 1.1500220302140323 0.8926525882418428 6.560889403882827" Properties=species:S:1:pos:R:3 unique_starting_index=30 config_type=initial n_minim_iter=18 stress="0.00012571282332789132 -8.009483873372064e-05 -8.479998147258696e-05 -8.009483873372064e-05 -9.17185127670875e-05 -0.00016812655786714695 -8.479998147258696e-05 -0.00016812655786714695 9.744430621036621e-05" pbc="T T T"
Si       6.66462560       6.47814196       2.23682035
Si       6.01003720       2.42486082       3.61207153
Si       4.75278543       3.48934200       2.22429289
Si       7.92187737       5.41366077       3.62459898
Si       7.13888030       3.80564353       4.80570978
Si       5.53578251       5.09735925       1.04318210
Si       6.54340297       4.72541959      -0.78700526
Si       6.13125983       4.17758318       6.63589713
Si       2.66345042       3.41676634       2.67800116
Si      10.01121239       5.48623643       3.17089071
Si      10.95044264       6.34126426       1.45359794
Si       1.72422017       2.56173852       4.39529393
Si       3.82737159       1.94136049       3.68669294
Si       8.84729121       6.96164228       2.16219893
Si       7.18291864       6.54303497       0.17441304
Si       5.49174416       2.35996780       5.67447883
16
Lattice="9.151188939477676 1.239388769745908 -0.24539596714412595 2.3650977342888924 6.770993446205555 -0.4679595629789525 1.1496935953453256 0.8910225321128147 6.563514387359976" Properties=species:S:1:pos:R:3 unique_starting_index=30 config_type=initial n_minim_iter=19 stress="-2.9787923507152676e-05 -1.4003771535388859e-05 -6.873842178217e-05 -1.4003771535388859e-05 -1.5106559264581808e-05 -0.0001079332513425816 -6.873842178217e-05 -0.0001079332513425816 3.3596937619843245e-05" pbc="T T T"
Si       6.65797178       6.47994071       2.23696431
Si       6.00800849       2.42146404       3.61319455
Si       4.75127199       3.48831587       2.22567455
Si       7.91470828       5.41308888       3.62448431
Si       7.13302457       3.80524768       4.80708424
Si       5.53295570       5.09615707       1.04307461
Si       6.53880793       4.72688350      -0.78859746
Si       6.12717234       4.17452124       6.63875631
Si       2.66069695       3.41190252       2.67589640
Si      10.00528332       5.48950223       3.17426245
Si      10.94262347       6.33916871       1.45392419
Si       1.72335679       2.56223604       4.39623467
Si       3.82605225       1.93982571       3.68738483
Si       8.83992802       6.96157904       2.16277402
Si       7.17902998       6.54322995       0.17547117
Si       5.48695029       2.35817480       5.67468769
16
Lattice="9.146386913919091 1.2386068663394512 -0.24516978829711294 2.3632528475489107 6.770985243730291 -0.46871183961634877 1.1493190048052941 0.8902194051236739 6.565204203372856" Properties=species:S:1:pos:R:3 unique_starting_index=30 config_type=initial n_minim_iter=20 stress="7.574759000612248e-05 -5.73457120696034e-06 -7.527787276833234e-06 -5.73457120696034e-06 2.109283725564455e-05 -1.0397984469765962e-05 -7.527787276833234e-06 -1.0397984469765962e-05 3.2323367822159614e-05" pbc="T T T"
Si       6.65360647       6.48049670       2.23723423
Si       6.00535230       2.41931481       3.61408834
Si       4.74876872       3.48756167       2.22631969
Si       7.91019005       5.41224984       3.62500288
Si       7.12849549       3.80465685       4.80816097
Si       5.53046328       5.09515466       1.04316161
Si       6.53549458       4.72706510      -0.78920406
Si       6.12346418       4.17274642       6.64052663
Si       2.65686945       3.40746607       2.67258264
Si      10.00208932       5.49234545       3.17873994
Si      10.93666802       6.33757512       1.45515998
Si       1.72229074       2.56223640       4.39616260
Si       3.82381901       1.93853655       3.68647478
Si       8.83513976       6.96127496       2.16484779
Si       7.17537321       6.54291034       0.17606620
Si       5.48358556       2.35690117       5.67525637
16
Lattice="9.137804463681611 1.2360087374803095 -0.24462297886261625 2.3588843849044667 6.772343844657489 -0.46971487103447196 1.1485780204852556 0.8890933858854733 6.5675887187479" Properties=species:S:1:pos:R:3 unique_starting_index=30 config_type=initial n_minim_iter=21 stress="5.395554138999009e-05 -3.023666893771685e-06 8.42341113145657e-05 -3.023666893771685e-06 4.002633375579447e-05 6.909661864348002e-05 8.42341113145657e-05 6.909661864348002e-05 -1.4987746612411666e-06" pbc="T T T"
Si       6.64589539       6.48120536       2.23800145
Si       5.99937148       2.41624061       3.61524942
Si       4.74341618       3.48603606       2.22697759
Si       7.90185069       5.41140991       3.62627328
Si       7.11989224       3.80383879       4.80954214
Si       5.52537463       5.09360717       1.04370872
Si       6.52842444       4.72717445      -0.79005714
Si       6.11684243       4.17027152       6.64330800
Si       2.64969771       3.40129544       2.66719382
Si       9.99556915       5.49615052       3.18605705
Si      10.92554216       6.33418032       1.45683773
Si       1.71972471       2.56326565       4.39641314
Si       3.81811589       1.93673330       3.68522942
Si       8.82715098       6.96071267       2.16802144
Si       7.16564159       6.54333717       0.17645565
Si       5.47962528       2.35410880       5.67679522
