22
Lattice="5.572891014739052 -0.7463294697488009 -1.345028671693546 -2.642506452640222 10.442717970257652 -2.0338886728448644 -4.527442737780092 -4.9393343281686795 10.751968879847281" Properties=species:S:1:pos:R:3 unique_starting_index=18 config_type=initial n_minim_iter=1 energy=-3583.7962736672985 free_energy=-3583.7962736672985 pbc="T T T"
Si      -0.26484596       9.09351194      -0.95276210
Si      -1.54401823      -1.22624359       5.70319791
Si      -3.76893440      -3.45897816       9.54356650
Si       0.26872147      -2.75029488       8.69338462
Si      -5.63068639      -0.23802030       8.89516333
Si       4.23183223       2.02261303       0.21753670
Si       2.17544578       0.69027583       0.40507631
Si      -1.46568755       0.48691650       6.95936297
Si      -1.65513862      -3.31378318       9.38449821
Si      -2.67095464       1.09828910       5.31810016
Si       1.17812759      -0.28758190       2.53754744
Si      -2.98155268       3.58032971       5.06103805
Si      -3.45088058      -2.68543311       6.28857055
Si      -0.72245360       6.66282531      -1.08264087
Si       1.05313018       1.38566613       3.88056398
Si       1.02502917       7.64198208      -1.80806301
Si      -0.89963629      -1.25100279       3.28120677
Si       2.76744800      -4.84850878       6.38963392
Si       0.22418383       3.16489856       3.03950368
Si      -2.82524055       2.51260756       6.89034239
Si      -1.41178863       4.46622624       3.42489024
Si      -1.81668747      -2.17322040       7.58697384
22
Lattice="5.572939006289102 -0.7462931570357751 -1.3449483454293785 -2.6424881064247683 10.442866712731506 -2.03396137032395 -4.527378166565416 -4.939471809063222 10.7519654810479" Properties=species:S:1:pos:R:3 unique_starting_index=18 config_type=initial n_minim_iter=2 stress="0.000206626021278787 1.9858196403428594e-05 6.118102117304519e-05 1.9858196403428594e-05 0.00016122822573539925 1.880586226004368e-07 6.118102117304519e-05 1.880586226004368e-07 0.0001856555278621733" pbc="T T T"
Si      -0.26479591       9.09366530      -0.95279929
Si      -1.54397222      -1.22628687       5.70319933
Si      -3.76886045      -3.45909051       9.54354404
Si       0.26883830      -2.75034379       8.69344091
Si      -5.63063989      -0.23805274       8.89510705
Si       4.23192113       2.02267780       0.21760072
Si       2.17549283       0.69029968       0.40509623
Si      -1.46558923       0.48688449       6.95936932
Si      -1.65502369      -3.31388547       9.38453314
Si      -2.67086839       1.09824096       5.31810044
Si       1.17819214      -0.28759113       2.53758676
Si      -2.98151710       3.58032443       5.06100625
Si      -3.45085262      -2.68552063       6.28856176
Si      -0.72244561       6.66293373      -1.08265889
Si       1.05324341       1.38571196       3.88060516
Si       1.02507582       7.64212337      -1.80808182
Si      -0.89960367      -1.25103006       3.28123354
Si       2.76753848      -4.84858820       6.38973942
Si       0.22424713       3.16496312       3.03950487
Si      -2.82514793       2.51261169       6.89033775
Si      -1.41171897       4.46629096       3.42487583
Si      -1.81664229      -2.17328802       7.58698806
22
Lattice="5.572880576674244 -0.7462705723656267 -1.3449077344508378 -2.6424388156796415 10.4428210038119 -2.033960509302515 -4.527308391415073 -4.939481087526652 10.751821352241336" Properties=species:S:1:pos:R:3 unique_starting_index=18 config_type=initial n_minim_iter=3 stress="-7.233435040740286e-07 1.2379400906086352e-05 6.42068665941064e-05 1.2379400906086352e-05 -2.4492724894312872e-05 1.435497973072922e-05 6.42068665941064e-05 1.435497973072922e-05 8.819123374137376e-06" pbc="T T T"
Si      -0.26477202       9.09363742      -0.95280676
Si      -1.54394631      -1.22629399       5.70312096
Si      -3.76879283      -3.45910612       9.54340139
Si       0.26886387      -2.75033504       8.69333936
Si      -5.63056341      -0.23805997       8.89496479
Si       4.23189773       2.02268219       0.21761314
Si       2.17548112       0.69030054       0.40508990
Si      -1.46554149       0.48686031       6.95927232
Si      -1.65496630      -3.31390081       9.38441872
Si      -2.67079953       1.09820148       5.31803561
Si       1.17819950      -0.28759533       2.53756648
Si      -2.98147773       3.58027661       5.06092477
Si      -3.45080359      -2.68553296       6.28847928
Si      -0.72243524       6.66291186      -1.08264873
Si       1.05327496       1.38571876       3.88056549
Si       1.02508216       7.64210503      -1.80807068
Si      -0.89958313      -1.25102783       3.28120537
Si       2.76751905      -4.84857676       6.38969051
Si       0.22425987       3.16496029       3.03945679
Si      -2.82508262       2.51258428       6.89024135
Si      -1.41167638       4.46627495       3.42482258
Si      -1.81661946      -2.17329570       7.58688884
22
Lattice="5.5729139784780415 -0.7462781753158125 -1.3449976573398224 -2.642417691680673 10.442971412860654 -2.033967770233484 -4.527506356523482 -4.93960848098928 10.751875149508447" Properties=species:S:1:pos:R:3 unique_starting_index=18 config_type=initial n_minim_iter=4 stress="4.0784283912788435e-05 -2.930661382737807e-05 -5.273753477990677e-05 -2.930661382737807e-05 3.954383223273521e-05 -3.577376253648538e-05 -5.273753477990677e-05 -3.577376253648538e-05 3.7928902098982984e-06" pbc="T T T"
Si      -0.26477419       9.09377270      -0.95286287
Si      -1.54406274      -1.22634589       5.70311833
Si      -3.76896204      -3.45921251       9.54342131
Si       0.26871229      -2.75040958       8.69329809
Si      -5.63074892      -0.23810748       8.89501234
Si       4.23190546       2.02269905       0.21751870
Si       2.17547843       0.69029595       0.40503740
Si      -1.46567510       0.48682292       6.95924908
Si      -1.65511933      -3.31401282       9.38441480
Si      -2.67088660       1.09816398       5.31806310
Si       1.17816628      -0.28762379       2.53754133
Si      -2.98158828       3.58028644       5.06092096
Si      -3.45091908      -2.68561138       6.28853448
Si      -0.72244050       6.66301292      -1.08266181
Si       1.05321945       1.38570794       3.88052289
Si       1.02510640       7.64221661      -1.80813435
Si      -0.89964021      -1.25105852       3.28122911
Si       2.76740212      -4.84869459       6.38964312
Si       0.22419407       3.16499291       3.03940387
Si      -2.82521131       2.51257273       6.89023839
Si      -1.41174580       4.46633093       3.42480333
Si      -1.81677363      -2.17336660       7.58689326
22
Lattice="5.572847836636868 -0.746201534833183 -1.3449933990266314 -2.6422127719620176 10.443011173233296 -2.033859321490569 -4.527528463685679 -4.939621656276688 10.751815631533482" Properties=species:S:1:pos:R:3 unique_starting_index=18 config_type=initial n_minim_iter=5 stress="-2.7994278795509712e-05 0.00012135488259448925 -6.406169809939776e-05 0.00012135488259448925 7.748566330468973e-05 7.988078622506018e-05 -6.406169809939776e-05 7.988078622506018e-05 1.6772904119199454e-05" pbc="T T T"
Si      -0.26462904       9.09387910      -0.95278612
Si      -1.54408637      -1.22633099       5.70309176
Si      -3.76894684      -3.45921885       9.54333911
Si       0.26868927      -2.75028820       8.69325728
Si      -5.63071862      -0.23812665       8.89499535
Si       4.23193249       2.02279325       0.21755435
Si       2.17547954       0.69032575       0.40503453
Si      -1.46564820       0.48688936       6.95924572
Si      -1.65510567      -3.31399998       9.38436088
Si      -2.67081728       1.09815017       5.31809896
Si       1.17818583      -0.28759413       2.53756690
Si      -2.98148650       3.58032857       5.06093954
Si      -3.45091850      -2.68565461       6.28852764
Si      -0.72235070       6.66308133      -1.08256720
Si       1.05327548       1.38575384       3.88056203
Si       1.02521320       7.64230316      -1.80805431
Si      -0.89963941      -1.25103770       3.28125952
Si       2.76729221      -4.84864451       6.38961814
Si       0.22424314       3.16508752       3.03941628
Si      -2.82511135       2.51261820       6.89026027
Si      -1.41165162       4.46643329       3.42485503
Si      -1.81679743      -2.17331843       7.58687088
22
Lattice="5.572844144230558 -0.7462503990530585 -1.3448832352337978 -2.64237626452564 10.443013184691262 -2.033999131520807 -4.5272812559001645 -4.9396404821769835 10.751777833693874" Properties=species:S:1:pos:R:3 unique_starting_index=18 config_type=initial n_minim_iter=6 stress="-6.110947028480573e-05 -2.3116498492442254e-05 2.115852633513664e-05 -2.3116498492442254e-05 7.496668899492688e-05 -1.0545113854824314e-05 2.115852633513664e-05 -1.0545113854824314e-05 3.87430070957611e-05" pbc="T T T"
Si      -0.26477066       9.09388008      -0.95289616
Si      -1.54400266      -1.22636186       5.70306488
Si      -3.76871459      -3.45925067       9.54325839
Si       0.26889422      -2.75029947       8.69327212
Si      -5.63060054      -0.23816075       8.89489242
Si       4.23195531       2.02272836       0.21761957
Si       2.17549303       0.69027154       0.40505021
Si      -1.46554166       0.48685701       6.95920861
Si      -1.65485657      -3.31407818       9.38434036
Si      -2.67072313       1.09809287       5.31806979
Si       1.17827295      -0.28764630       2.53762149
Si      -2.98144011       3.58030511       5.06083646
Si      -3.45077633      -2.68568307       6.28851868
Si      -0.72248381       6.66309591      -1.08261451
Si       1.05336421       1.38567285       3.88059110
Si       1.02507289       7.64228217      -1.80810487
Si      -0.89955835      -1.25103525       3.28130439
Si       2.76746189      -4.84873177       6.38973565
Si       0.22425335       3.16506771       3.03936723
Si      -2.82500131       2.51256843       6.89017926
Si      -1.41165199       4.46644989       3.42479557
Si      -1.81665367      -2.17333085       7.58686249
22
Lattice="5.572944104374259 -0.7462271431373758 -1.3448654225842713 -2.6424097671123215 10.442834332183049 -2.0339959375847583 -4.527357222109477 -4.939571608484281 10.751704346520027" Properties=species:S:1:pos:R:3 unique_starting_index=18 config_type=initial n_minim_iter=7 stress="7.340116038156394e-05 2.1385645068419893e-05 1.1334151573803801e-05 2.1385645068419893e-05 1.1811275049958291e-06 -6.731080835627146e-06 1.1334151573803801e-05 -6.731080835627146e-06 -5.557346401866909e-05" pbc="T T T"
Si      -0.26476905       9.09373933      -0.95290689
Si      -1.54403900      -1.22634618       5.70302477
Si      -3.76876744      -3.45920506       9.54317862
Si       0.26891923      -2.75023731       8.69321081
Si      -5.63070398      -0.23817378       8.89482455
Si       4.23204791       2.02269815       0.21762083
Si       2.17553892       0.69025497       0.40504181
Si      -1.46555879       0.48684298       6.95916258
Si      -1.65486419      -3.31404288       9.38427254
Si      -2.67076058       1.09805145       5.31803430
Si       1.17831265      -0.28764835       2.53762013
Si      -2.98147714       3.58023807       5.06079375
Si      -3.45083482      -2.68565938       6.28848758
Si      -0.72250114       6.66299246      -1.08260446
Si       1.05339624       1.38564077       3.88057258
Si       1.02509300       7.64216012      -1.80809378
Si      -0.89957044      -1.25101239       3.28130122
Si       2.76751676      -4.84865495       6.38970839
Si       0.22426625       3.16501672       3.03933782
Si      -2.82503169       2.51251628       6.89012091
Si      -1.41167280       4.46638813       3.42476806
Si      -1.81669125      -2.17329775       7.58681694
22
Lattice="5.57295710068055 -0.7462553886636055 -1.3449141456264082 -2.642491545412237 10.442561266748749 -2.0340121001606346 -4.527348316363524 -4.939371631582447 10.751959788409032" Properties=species:S:1:pos:R:3 unique_starting_index=18 config_type=initial n_minim_iter=8 stress="2.1677303023077245e-05 -1.3084862956775114e-05 -2.1782931386102353e-05 -1.3084862956775114e-05 -7.15674119906297e-05 2.388468240994173e-05 -2.1782931386102353e-05 2.388468240994173e-05 7.834330161125761e-05" pbc="T T T"
Si      -0.26486260       9.09351313      -0.95293281
Si      -1.54407961      -1.22628104       5.70315609
Si      -3.76874200      -3.45904967       9.54338120
Si       0.26894841      -2.75010797       8.69339957
Si      -5.63075502      -0.23809042       8.89504156
Si       4.23204847       2.02259581       0.21760200
Si       2.17554039       0.69020066       0.40502755
Si      -1.46557945       0.48685748       6.95934809
Si      -1.65482728      -3.31393792       9.38447895
Si      -2.67079537       1.09801669       5.31815315
Si       1.17834282      -0.28766286       2.53770730
Si      -2.98151062       3.58017731       5.06092530
Si      -3.45083251      -2.68556710       6.28866884
Si      -0.72258312       6.66283086      -1.08259835
Si       1.05338116       1.38559182       3.88067405
Si       1.02501132       7.64193951      -1.80810965
Si      -0.89956854      -1.25095197       3.28141751
Si       2.76755837      -4.84854233       6.38985307
Si       0.22423054       3.16493318       3.03940311
Si      -2.82505771       2.51249586       6.89028541
Si      -1.41173998       4.46631882       3.42485813
Si      -1.81672740      -2.17320221       7.58701498
22
Lattice="5.572862813389405 -0.7462680249607828 -1.3447939070861075 -2.6425346618441443 10.442731807597902 -2.0341906900487934 -4.527101241496975 -4.939590028597003 10.7517797336456" Properties=species:S:1:pos:R:3 unique_starting_index=18 config_type=initial n_minim_iter=9 stress="-1.4176788325725693e-05 1.4472591535498096e-05 4.328878899935553e-06 1.4472591535498096e-05 -5.309128285546013e-06 -3.3248120725257445e-05 4.328878899935553e-06 -3.3248120725257445e-05 -7.737983761343477e-06" pbc="T T T"
Si      -0.26496851       9.09369270      -0.95312922
Si      -1.54405053      -1.22638178       5.70305452
Si      -3.76846051      -3.45921231       9.54315929
Si       0.26916042      -2.75023477       8.69328396
Si      -5.63057400      -0.23818367       8.89477477
Si       4.23200654       2.02256377       0.21757064
Si       2.17552980       0.69016220       0.40498520
Si      -1.46546612       0.48677202       6.95922711
Si      -1.65456286      -3.31417671       9.38432384
Si      -2.67072030       1.09787774       5.31796108
Si       1.17844503      -0.28776203       2.53775367
Si      -2.98136510       3.58016502       5.06072305
Si      -3.45068676      -2.68574215       6.28860762
Si      -0.72268808       6.66297841      -1.08267280
Si       1.05341244       1.38550967       3.88061448
Si       1.02488216       7.64206366      -1.80815842
Si      -0.89950476      -1.25099733       3.28144704
Si       2.76769751      -4.84875956       6.38989055
Si       0.22424714       3.16491129       3.03927553
Si      -2.82489418       2.51244163       6.89003023
Si      -1.41173467       4.46638271       3.42467658
Si      -1.81666162      -2.17334443       7.58692254
22
Lattice="5.572853436214185 -0.7463419419283569 -1.344770012857854 -2.642642681526269 10.442780937247438 -2.034073916197194 -4.526997486431199 -4.939447807113235 10.75163669309005" Properties=species:S:1:pos:R:3 unique_starting_index=18 config_type=initial n_minim_iter=10 stress="2.181782312295586e-05 -8.839709318236277e-05 3.3559801183663623e-06 -8.839709318236277e-05 4.640256610319139e-05 0.00011527317892882875 3.3559801183663623e-06 0.00011527317892882875 -8.676069079894236e-05" pbc="T T T"
Si      -0.26509619       9.09375264      -0.95304678
Si      -1.54405523      -1.22631402       5.70301526
Si      -3.76834595      -3.45906663       9.54302981
Si       0.26927029      -2.75013196       8.69319453
Si      -5.63052944      -0.23802099       8.89468143
Si       4.23199720       2.02251801       0.21758866
Si       2.17552474       0.69013576       0.40497577
Si      -1.46545991       0.48688955       6.95918926
Si      -1.65445337      -3.31409178       9.38419750
Si      -2.67071821       1.09793500       5.31792104
Si       1.17849454      -0.28777476       2.53777125
Si      -2.98136094       3.58026523       5.06071410
Si      -3.45063689      -2.68567878       6.28854976
Si      -0.72279480       6.66302303      -1.08258100
Si       1.05341158       1.38556176       3.88061371
Si       1.02478427       7.64206504      -1.80804622
Si      -0.89948193      -1.25094971       3.28144260
Si       2.76780059      -4.84876493       6.38980738
Si       0.22421456       3.16494978       3.03929016
Si      -2.82486854       2.51255957       6.88997678
Si      -1.41176943       4.46647196       3.42468253
Si      -1.81663623      -2.17324268       7.58685593
22
Lattice="5.572621916961618 -0.7462490725042003 -1.3446656589757613 -2.6425001680594216 10.44261605096636 -2.034410031437512 -4.526658196983731 -4.939644581776753 10.751879212178725" Properties=species:S:1:pos:R:3 unique_starting_index=18 config_type=initial n_minim_iter=11 stress="-5.52286746096831e-05 2.0443682815169958e-06 -2.2977619633572906e-05 2.0443682815169958e-06 -3.973294514383861e-05 -5.663119302804523e-06 -2.2977619633572906e-05 -5.663119302804523e-06 -3.1293821273644937e-05" pbc="T T T"
Si      -0.26521229       9.09375869      -0.95340931
Si      -1.54414558      -1.22645452       5.70324218
Si      -3.76786673      -3.45914365       9.54316320
Si       0.26969763      -2.75016079       8.69342041
Si      -5.63018463      -0.23820890       8.89470056
Si       4.23198553       2.02243366       0.21752804
Si       2.17547897       0.69006273       0.40489546
Si      -1.46538891       0.48684338       6.95932603
Si      -1.65404421      -3.31437129       9.38428370
Si      -2.67059983       1.09760978       5.31794026
Si       1.17872054      -0.28797771       2.53803775
Si      -2.98104951       3.58006265       5.06064111
Si      -3.45047811      -2.68596873       6.28881691
Si      -0.72295109       6.66303209      -1.08268658
Si       1.05346642       1.38555230       3.88070669
Si       1.02472073       7.64197811      -1.80816550
Si      -0.89942868      -1.25096797       3.28170854
Si       2.76798394      -4.84896869       6.39009114
Si       0.22420663       3.16479103       3.03929044
Si      -2.82450928       2.51232001       6.88986524
Si      -1.41162356       4.46638654       3.42453233
Si      -1.81660580      -2.17333188       7.58711286
22
Lattice="5.572461555413479 -0.7462411723439628 -1.344498724172819 -2.6425161116562452 10.44258379456777 -2.0345821517780505 -4.526244753279304 -4.939713326778141 10.751785161489646" Properties=species:S:1:pos:R:3 unique_starting_index=18 config_type=initial n_minim_iter=12 stress="-6.518624589028727e-05 -8.99758361284343e-07 -1.1130819464509047e-05 -8.99758361284343e-07 -6.048024421878845e-05 1.5024938682454062e-06 -1.1130819464509047e-05 1.5024938682454062e-06 -4.511447689532173e-05" pbc="T T T"
Si      -0.26540299       9.09380410      -0.95361840
Si      -1.54417279      -1.22647668       5.70333327
Si      -3.76737838      -3.45910445       9.54304296
Si       0.27017686      -2.75011784       8.69342969
Si      -5.62992058      -0.23821175       8.89447658
Si       4.23200399       2.02234287       0.21753380
Si       2.17546628       0.69004728       0.40479175
Si      -1.46525118       0.48682787       6.95928573
Si      -1.65351296      -3.31454543       9.38416083
Si      -2.67046444       1.09739833       5.31783391
Si       1.17894568      -0.28814911       2.53823389
Si      -2.98075088       3.58005422       5.06044219
Si      -3.45030803      -2.68616686       6.28885819
Si      -0.72317442       6.66309987      -1.08269018
Si       1.05349730       1.38559347       3.88073719
Si       1.02461083       7.64196742      -1.80815060
Si      -0.89936251      -1.25096497       3.28182995
Si       2.76826016      -4.84919943       6.39013174
Si       0.22420540       3.16470055       3.03927773
Si      -2.82418179       2.51222914       6.88971847
Si      -1.41148301       4.46641287       3.42437543
Si      -1.81643056      -2.17329463       7.58717902
22
Lattice="5.5724127028209836 -0.7463251016586656 -1.344352964099131 -2.642665395884035 10.442967612056979 -2.0346376021947115 -4.525937011978813 -4.939863763566524 10.751505869377203" Properties=species:S:1:pos:R:3 unique_starting_index=18 config_type=initial n_minim_iter=13 stress="-3.981671375104237e-05 -2.1601658125331722e-06 -5.862487682698416e-06 -2.1601658125331722e-06 -3.916847520145097e-05 9.736598049296523e-06 -5.862487682698416e-06 9.736598049296523e-06 -4.399948902784768e-05" pbc="T T T"
Si      -0.26565516       9.09411567      -0.95375344
Si      -1.54423940      -1.22645539       5.70325724
Si      -3.76698847      -3.45911895       9.54276736
Si       0.27061028      -2.75007711       8.69324792
Si      -5.62981116      -0.23811091       8.89416674
Si       4.23209662       2.02230006       0.21754555
Si       2.17547042       0.69009164       0.40466570
Si      -1.46519111       0.48687077       6.95913447
Si      -1.65304489      -3.31477430       9.38383452
Si      -2.67050617       1.09737293       5.31769831
Si       1.17913631      -0.28831792       2.53837473
Si      -2.98059818       3.58018576       5.06023942
Si      -3.45023357      -2.68639860       6.28879118
Si      -0.72344688       6.66341638      -1.08263932
Si       1.05361652       1.38568424       3.88070459
Si       1.02448086       7.64224060      -1.80807271
Si      -0.89934727      -1.25100180       3.28183891
Si       2.76859951      -4.84958379       6.38999324
Si       0.22418770       3.16472945       3.03922181
Si      -2.82400553       2.51230599       6.88947399
Si      -1.41147258       4.46663577       3.42419145
Si      -1.81631968      -2.17333195       7.58720667
22
Lattice="5.572244961335055 -0.7464907927957645 -1.3441773560830612 -2.6429194192541874 10.443592493843031 -2.034814429085917 -4.525436223176954 -4.940169281109483 10.751173446979037" Properties=species:S:1:pos:R:3 unique_starting_index=18 config_type=initial n_minim_iter=14 stress="-1.6905394811958735e-05 -1.2437865159917963e-06 -3.622242755765032e-06 -1.2437865159917963e-06 6.658744997379847e-06 2.1665064180073464e-06 -3.622242755765032e-06 2.1665064180073464e-06 -3.490083378558639e-05" pbc="T T T"
Si      -0.26603193       9.09448743      -0.95405604
Si      -1.54431688      -1.22651974       5.70317640
Si      -3.76631016      -3.45925181       9.54237561
Si       0.27115568      -2.75004346       8.69295094
Si      -5.62959399      -0.23798107       8.89381266
Si       4.23213402       2.02221585       0.21754640
Si       2.17536869       0.69010954       0.40459985
Si      -1.46511810       0.48685004       6.95891058
Si      -1.65243868      -3.31521218       9.38335707
Si      -2.67046438       1.09727284       5.31751832
Si       1.17928589      -0.28855899       2.53855298
Si      -2.98036105       3.58034951       5.05995970
Si      -3.45005616      -2.68674405       6.28874522
Si      -0.72378995       6.66388543      -1.08268913
Si       1.05360898       1.38575328       3.88061106
Si       1.02417276       7.64265969      -1.80805180
Si      -0.89934589      -1.25111528       3.28177958
Si       2.76902201      -4.85016191       6.38984330
Si       0.22409959       3.16476050       3.03910168
Si      -2.82383089       2.51242355       6.88917656
Si      -1.41148727       4.46686102       3.42386622
Si      -1.81620307      -2.17344715       7.58711323
22
Lattice="5.572061686302869 -0.7467857570060247 -1.343857021666633 -2.6435141817542256 10.444111746021296 -2.0351524387210764 -4.52444306306863 -4.940271123564754 10.751084126452998" Properties=species:S:1:pos:R:3 unique_starting_index=18 config_type=initial n_minim_iter=15 stress="6.215334713476482e-05 -3.7071481519893794e-08 9.04537328647153e-06 -3.7071481519893794e-08 4.920808363643658e-05 -4.462156107210601e-06 9.04537328647153e-06 -4.462156107210601e-06 4.782369603562807e-05" pbc="T T T"
Si      -0.26683046       9.09474661      -0.95445689
Si      -1.54436148      -1.22653978       5.70328812
Si      -3.76508238      -3.45914593       9.54211697
Si       0.27228737      -2.74971082       8.69290514
Si      -5.62917002      -0.23754114       8.89364768
Si       4.23224369       2.02193991       0.21762860
Si       2.17526088       0.69008304       0.40459077
Si      -1.46486357       0.48690701       6.95898012
Si      -1.65111447      -3.31571698       9.38321332
Si      -2.67042750       1.09725481       5.31754955
Si       1.17956392      -0.28890279       2.53901589
Si      -2.97992031       3.58052094       5.05979167
Si      -3.44970147      -2.68706672       6.28892368
Si      -0.72440523       6.66431466      -1.08279290
Si       1.05371959       1.38578310       3.88070568
Si       1.02366870       7.64282546      -1.80810090
Si      -0.89929722      -1.25120561       3.28180889
Si       2.76991750      -4.85083220       6.38993378
Si       0.22399586       3.16470689       3.03913486
Si      -2.82350234       2.51256163       6.88902300
Si      -1.41144277       4.46702039       3.42354838
Si      -1.81592954      -2.17338898       7.58720344
22
Lattice="5.571801117793963 -0.7469170303937411 -1.3435106893968523 -2.6438192459240737 10.44405048290274 -2.035351444606074 -4.523479957218813 -4.940114706000065 10.750860100714883" Properties=species:S:1:pos:R:3 unique_starting_index=18 config_type=initial n_minim_iter=16 stress="7.35241196481925e-05 1.3240033891272667e-05 2.4043617278127728e-05 1.3240033891272667e-05 4.172952346965069e-05 -6.85290779795523e-06 2.4043617278127728e-05 -6.85290779795523e-06 8.152200636063577e-05" pbc="T T T"
Si      -0.26729493       9.09462640      -0.95466046
Si      -1.54422146      -1.22642976       5.70320572
Si      -3.76399730      -3.45887122       9.54175743
Si       0.27327110      -2.74936539       8.69286587
Si      -5.62855554      -0.23721645       8.89338452
Si       4.23225829       2.02172453       0.21779187
Si       2.17518835       0.69002155       0.40467546
Si      -1.46458832       0.48704089       6.95892700
Si      -1.64996664      -3.31588323       9.38304436
Si      -2.67014926       1.09718565       5.31754947
Si       1.17974354      -0.28907329       2.53933679
Si      -2.97937504       3.58052882       5.05965990
Si      -3.44931239      -2.68713756       6.28890245
Si      -0.72475127       6.66436157      -1.08281387
Si       1.05381190       1.38578881       3.88078319
Si       1.02333835       7.64265706      -1.80807750
Si      -0.89918192      -1.25120409       3.28178532
Si       2.77053429      -4.85104294       6.39003172
Si       0.22407950       3.16456045       3.03920234
Si      -2.82306701       2.51264811       6.88890299
Si      -1.41120711       4.46698911       3.42336801
Si      -1.81556669      -2.17331061       7.58731053
22
Lattice="5.571572488658004 -0.7471267623815434 -1.343107145652835 -2.6442732991694937 10.444223347792834 -2.0355392638979937 -4.522422390835148 -4.940011308306436 10.750418921975742" Properties=species:S:1:pos:R:3 unique_starting_index=18 config_type=initial n_minim_iter=17 stress="6.377045537730351e-05 1.6775478251652467e-05 2.0370887634531134e-05 1.6775478251652467e-05 5.1257743408772964e-05 -2.1622734706511674e-05 2.0370887634531134e-05 -2.1622734706511674e-05 7.367548728364979e-05" pbc="T T T"
Si      -0.26786611       9.09470217      -0.95489073
Si      -1.54407615      -1.22633047       5.70310679
Si      -3.76278494      -3.45856843       9.54112649
Si       0.27451588      -2.74912626       8.69268196
Si      -5.62804530      -0.23679956       8.89286313
Si       4.23229707       2.02149593       0.21795994
Si       2.17513711       0.68989252       0.40481144
Si      -1.46432622       0.48717639       6.95873112
Si      -1.64877679      -3.31617422       9.38268785
Si      -2.66993676       1.09718595       5.31743778
Si       1.17989849      -0.28926518       2.53961788
Si      -2.97885208       3.58061040       5.05940520
Si      -3.44892942      -2.68720640       6.28874563
Si      -0.72522592       6.66456944      -1.08278119
Si       1.05398767       1.38577320       3.88079745
Si       1.02293573       7.64266881      -1.80804349
Si      -0.89905796      -1.25122634       3.28168644
Si       2.77127941      -4.85138695       6.39007328
Si       0.22424956       3.16442339       3.03919979
Si      -2.82266234       2.51282958       6.88868870
Si      -1.41103997       4.46707101       3.42312840
Si      -1.81512142      -2.17322561       7.58722778
22
Lattice="5.571508398130338 -0.7473336708401487 -1.3428508801448302 -2.644705927004142 10.444320975884121 -2.035517931961854 -4.521739483342475 -4.939742139528333 10.750074963081685" Properties=species:S:1:pos:R:3 unique_starting_index=18 config_type=initial n_minim_iter=18 stress="5.771064213528614e-05 1.7407107427715515e-05 1.732734418965034e-05 1.7407107427715515e-05 3.7766962155323835e-05 -1.9391655644637433e-05 1.732734418965034e-05 -1.9391655644637433e-05 4.820487846009393e-05" pbc="T T T"
Si      -0.26829805       9.09471339      -0.95493689
Si      -1.54399916      -1.22617517       5.70307219
Si      -3.76201046      -3.45816121       9.54065395
Si       0.27534033      -2.74887084       8.69257260
Si      -5.62780250      -0.23634600       8.89251082
Si       4.23236267       2.02130732       0.21807962
Si       2.17512984       0.68975948       0.40495288
Si      -1.46418651       0.48738073       6.95865104
Si      -1.64783935      -3.31619121       9.38236630
Si      -2.66984490       1.09731289       5.31739906
Si       1.17998656      -0.28936543       2.53978793
Si      -2.97858058       3.58075396       5.05927227
Si      -3.44870077      -2.68713731       6.28865190
Si      -0.72564183       6.66470193      -1.08263262
Si       1.05410690       1.38580548       3.88085029
Si       1.02260588       7.64269313      -1.80788840