24
Lattice="9.370670516419455 -7.684362423304054e-12 -1.2384506573629434e-15 4.685335258216381 8.11523871770925 2.309404228628794e-15 4.685335258211948 2.705079572567184 12.10844120854706" Properties=species:S:1:pos:R:3 unique_starting_index=24 config_type=initial n_minim_iter=1 energy=-3908.417063849704 free_energy=-3908.417063849704 pbc="T T T"
Si      10.42072347       4.65747951      11.56711209
Si       9.49748279       6.69587150      11.56711209
Si       8.19380388       4.87712562      11.56711209
Si      10.36338661       4.67652173       9.42986369
Si       9.50966018       6.63669521       9.42986369
Si       8.23896336       4.91725969       9.42986369
Si      11.10595481       4.32996302       1.83448793
Si       9.43850473       7.45305749       1.83448793
Si       7.56755062       4.44745612       1.83448793
Si      10.51050052       5.94082283       3.10679352
Si       8.34118635       6.13194904       3.10679352
Si       9.26032328       4.15770476       3.10679352
Si      10.90884038       8.15113458       9.97625604
Si       6.22783029       5.37176561       9.97625604
Si      10.97533947       2.70757644       9.97625604
Si      12.40375672       4.28391853       9.88406359
Si       8.82947946       8.60000916       9.88406359
Si       6.87877396       3.34654894       9.88406359
Si      10.27628163       9.97883789       9.07023421
Si       4.96127217       3.91010201       9.07023421
Si      12.87445635       2.34153673       9.07023421
Si       5.11144074       1.53193781       1.48777564
Si       5.48825215       3.66066863       1.48777564
Si       3.45631148       2.92263147       1.48777564
24
Lattice="9.37128416906878 -7.715139602468112e-12 -1.2351118202215904e-15 4.685642084541071 8.115770156492648 2.3124700977704853e-15 4.68564208453662 2.705256718828307 12.106924597722685" Properties=species:S:1:pos:R:3 unique_starting_index=24 config_type=initial n_minim_iter=2 stress="0.00017170270106029302 -2.489817996817112e-16 -4.634799215382556e-16 -2.489817996817112e-16 0.00017170270105951364 2.1513112643200638e-16 -4.634799215382556e-16 2.1513112643200638e-16 -6.637845855363539e-05" pbc="T T T"
Si      10.42142385       4.65774866      11.56566573
Si       9.49812682       6.69634347      11.56566573
Si       8.19430044       4.87744738      11.56566573
Si      10.36406472       4.67679487       9.42868507
Si       9.51031188       6.63714590       9.42868507
Si       8.23947451       4.91759874       9.42868507
Si      11.10667774       4.33025299       1.83424108
Si       9.43911944       7.45353858       1.83424108
Si       7.56805392       4.44774794       1.83424108
Si      10.51117319       5.94119339       3.10640293
Si       8.34175640       6.13234631       3.10640293
Si       9.26092151       4.15799980       3.10640293
Si      10.90953613       8.15165919       9.97501056
Si       6.22825540       5.37210584       9.97501056
Si      10.97605958       2.70777448       9.97501056
Si      12.40458083       4.28416163       9.88284646
Si       8.83008419       8.60060130       9.88284646
Si       6.87918609       3.34677657       9.88284646
Si      10.27697176       9.97949653       9.06910185
Si       4.96158401       3.91037036       9.06910185
Si      12.87529533       2.34167262       9.06910185
Si       5.11175979       1.53207101       1.48757424
Si       5.48859093       3.66087834       1.48757424
Si       3.45657413       2.92282001       1.48757424
24
Lattice="9.370817560834142 -7.78563096631007e-12 -1.2420304191439075e-15 4.685408780423814 8.115366061907796 2.3164712864517156e-15 4.68540878041932 2.7051220206333344 12.105700068637764" Properties=species:S:1:pos:R:3 unique_starting_index=24 config_type=initial n_minim_iter=3 stress="-0.000163602265224047 1.198729263274864e-16 -6.75340430014008e-16 1.198729263274864e-16 -0.00016360226522561382 2.788794186441774e-16 -6.75340430014008e-16 2.788794186441774e-16 -0.00034857159403659996" pbc="T T T"
Si      10.42093734       4.65744632      11.56450936
Si       9.49769868       6.69607331      11.56450936
Si       8.19381525       4.87721168      11.56450936
Si      10.36354113       4.67649250       9.42772139
Si       9.50990231       6.63684364       9.42772139
Si       8.23900784       4.91739517       9.42772139
Si      11.10611472       4.33005193       1.83401732
Si       9.43864186       7.45315152       1.83401732
Si       7.56769471       4.44752787       1.83401732
Si      10.51061392       5.94085548       3.10608574
Si       8.34139547       6.13203093       3.10608574
Si       9.26044190       4.15784491       3.10608574
Si      10.90894032       8.15123544       9.97400737
Si       6.22798706       5.37180173       9.97400737
Si      10.97552389       2.70769415       9.97400737
Si      12.40398221       4.28385620       9.88189076
Si       8.82971479       8.60023560       9.88189076
Si       6.87875428       3.34663952       9.88189076
Si      10.27649184       9.97901525       9.06819625
Si       4.96130755       3.91019537       9.06819625
Si      12.87465189       2.34152070       9.06819625
Si       5.11146571       1.53206858       1.48740038
Si       5.48827346       3.66062487       1.48740038
Si       3.45648576       2.92267181       1.48740038
24
Lattice="9.37155220661263 -8.196198685229176e-12 -1.2438459391129082e-15 4.685776103313414 8.11600228381454 2.3236934215594635e-15 4.685776103308681 2.705334094602113 12.107987510423143" Properties=species:S:1:pos:R:3 unique_starting_index=24 config_type=initial n_minim_iter=4 stress="6.683329089480766e-06 7.233289152036254e-17 -9.188688319470054e-16 7.233289152036254e-17 6.68332908718926e-06 2.3408732018277327e-16 -9.188688319470054e-16 2.3408732018277327e-16 1.2277789951034181e-05" pbc="T T T"
Si      10.42194526       4.65738073      11.56681021
Si       9.49872082       6.69697899      11.56681021
Si       8.19398914       4.87764404      11.56681021
Si      10.36428205       4.67643546       9.42936575
Si       9.51105055       6.63751382       9.42936575
Si       8.23932262       4.91805449       9.42936575
Si      11.10692637       4.33047410       1.83410969
Si       9.43933972       7.45364334       1.83410969
Si       7.56838913       4.44788632       1.83410969
Si      10.51120187       5.94105153       3.10666151
Si       8.34240100       6.13244208       3.10666151
Si       9.26105235       4.15851016       3.10666151
Si      10.90950854       8.15176557       9.97593536
Si       6.22871314       5.37202876       9.97593536
Si      10.97643353       2.70820943       9.97593536
Si      12.40509048       4.28362066       9.88405294
Si       8.83083393       8.60131316       9.88405294
Si       6.87873081       3.34706994       9.88405294
Si      10.27750169       9.97990635       9.06997067
Si       4.96150021       3.91062437       9.06997067
Si      12.87565332       2.34147303       9.06997067
Si       5.11160074       1.53264252       1.48756893
Si       5.48844355       3.66045483       1.48756893
Si       3.45728262       2.92290413       1.48756893
24
Lattice="9.371389130618503 -8.444158854420082e-12 -1.243836852221102e-15 4.6856945653165685 8.11586105586076 2.3231157655863557e-15 4.685694565311692 2.7052870186174363 12.108057780038207" Properties=species:S:1:pos:R:3 unique_starting_index=24 config_type=initial n_minim_iter=5 stress="-6.030481820494987e-07 2.923539144357264e-16 -5.601139325642824e-16 2.923539144357264e-16 -6.030481833611731e-07 3.455804106103133e-16 -5.601139325642824e-16 3.455804106103133e-16 -5.685725883635649e-06" pbc="T T T"
Si      10.42174336       4.65700354      11.56675800
Si       9.49882228       6.69699273      11.56675800
Si       8.19360035       4.87772503      11.56675800
Si      10.36373379       4.67636753       9.42937730
Si       9.51105736       6.63707297       9.42937730
Si       8.23937485       4.91828080       9.42937730
Si      11.10668245       4.33049769       1.83376371
Si       9.43911510       7.45342031       1.83376371
Si       7.56836844       4.44780331       1.83376371
Si      10.51073584       5.94059143       3.10664247
Si       8.34270631       6.13226854       3.10664247
Si       9.26072383       4.15886134       3.10664247
Si      10.90962306       8.15167253       9.97612101
Si       6.22841031       5.37217445       9.97612101
Si      10.97613263       2.70787433       9.97612101
Si      12.40498467       4.28322365       9.88450086
Si       8.83090450       8.60142003       9.88450086
Si       6.87827682       3.34707762       9.88450086
Si      10.27741596       9.97991149       9.07006366
Si       4.96121247       3.91054756       9.07006366
Si      12.87553756       2.34126225       9.07006366
Si       5.11122587       1.53277427       1.48757511
Si       5.48835380       3.66006432       1.48757511
Si       3.45750262       2.92302166       1.48757511
24
Lattice="9.37092607544615 -9.033254669004142e-12 -1.2417170459294039e-15 4.6854630377309014 8.115460038317853 2.3211697827147325e-15 4.685463037725686 2.7051533461029376 12.109255761250166" Properties=species:S:1:pos:R:3 unique_starting_index=24 config_type=initial n_minim_iter=6 stress="-4.815856075823408e-06 6.299171275895454e-16 -1.4720168665776745e-16 6.299171275895454e-16 -4.815856076741581e-06 2.851505236423296e-16 -1.4720168665776745e-16 2.851505236423296e-16 3.540510064370297e-06" pbc="T T T"
Si      10.42083122       4.65613848      11.56750578
Si       9.49910140       6.69663533      11.56750578
Si       8.19284421       4.87814546      11.56750578
Si      10.36323485       4.67557988       9.43037895
Si       9.51106284       6.63703471       9.43037895
Si       8.23847914       4.91830468       9.43037895
Si      11.10602061       4.33051822       1.83283443
Si       9.43850212       7.45283688       1.83283443
Si       7.56825409       4.44756417       1.83283443
Si      10.50942553       5.93925830       3.10682976
Si       8.34358988       6.13180034       3.10682976
Si       9.25976141       4.15986063       3.10682976
Si      10.91000055       8.15142552       9.97736118
Si       6.22750937       5.37262488       9.97736118
Si      10.97526691       2.70686888       9.97736118
Si      12.40392799       4.28230900       9.88664455
Si       8.83129884       8.60096225       9.88664455
Si       6.87754999       3.34764803       9.88664455
Si      10.27717100       9.97966962       9.07106503
Si       4.96061831       3.91045636       9.07106503
Si      12.87498752       2.34079330       9.07106503
Si       5.11023962       1.53260505       1.48775823
Si       5.48853043       3.65929481       1.48775823
Si       3.45761766       2.92355938       1.48775823
24
Lattice="9.370175466583454 -1.0032476166437555e-11 -1.2385305742329179e-15 4.68508773330042 8.114809991973953 2.3181947717075054e-15 4.685087733294626 2.704936663987971 12.109069171236241" Properties=species:S:1:pos:R:3 unique_starting_index=24 config_type=initial n_minim_iter=7 stress="-4.993860883173146e-05 1.1957866597856103e-15 -6.873030110696763e-18 1.1957866597856103e-15 -4.9938608833953984e-05 3.607135013359538e-16 -6.873030110696763e-18 3.607135013359538e-16 -0.00012277182650715404" pbc="T T T"
Si      10.41885864       4.65466086      11.56758867
Si       9.49986613       6.69566583      11.56758867
Si       8.19180023       4.87929249      11.56758867
Si      10.36201676       4.67432181       9.43000169
Si       9.51126018       6.63660885       9.43000169
Si       8.23724805       4.91868852       9.43000169
Si      11.10490825       4.33046033       1.83078518
Si       9.43760722       7.45190249       1.83078518
Si       7.56800953       4.44725636       1.83078518
Si      10.50744407       5.93705510       3.10650098
Si       8.34498742       6.13118594       3.10650098
Si       9.25809351       4.16137813       3.10650098
Si      10.91059098       8.15107321       9.97736524
Si       6.22601805       5.37331235       9.97736524
Si      10.97391598       2.70523362       9.97736524
Si      12.40222511       4.28069567       9.88860025
Si       8.83204624       8.60029417       9.88860025
Si       6.87625364       3.34862933       9.88860025
Si      10.27715713       9.97895709       9.07140447
Si       4.95974109       3.91080061       9.07140447
Si      12.87362678       2.33986148       9.07140447
Si       5.10880482       1.53167792       1.48726299
Si       5.48930013       3.65851580       1.48726299
Si       3.45715684       2.92461547       1.48726299
24
Lattice="9.370131200420344 -1.0055682407590666e-11 -1.237002937765737e-15 4.685065600218885 8.114771656352161 2.3171268467392068e-15 4.685065600213076 2.7049238854473647 12.1106846511001" Properties=species:S:1:pos:R:3 unique_starting_index=24 config_type=initial n_minim_iter=8 stress="-4.258312886467669e-06 1.012862619080445e-15 -5.775041001541878e-17 1.012862619080445e-15 -4.258312887555643e-06 2.2871091398590694e-16 -5.775041001541878e-17 2.2871091398590694e-16 -2.2240341221955002e-05" pbc="T T T"
Si      10.41856580       4.65451765      11.56904525
Si       9.50004804       6.69548383      11.56904525
Si       8.19177836       4.87954102      11.56904525
Si      10.36189892       4.67404667       9.43154785
Si       9.51146886       6.63664437       9.43154785
Si       8.23702442       4.91885148       9.43154785
Si      11.10478491       4.33036288       1.83099174
Si       9.43766475       7.45184439       1.83099174
Si       7.56794254       4.44733523       1.83099174
Si      10.50772403       5.93712223       3.10680368
Si       8.34470078       6.13139483       3.10680368
Si       9.25796739       4.16102545       3.10680368
Si      10.91059487       8.15064421       9.97849455
Si       6.22629909       5.37353022       9.97849455
Si      10.97349824       2.70536807       9.97849455
Si      12.40233190       4.28079216       9.88997352
Si       8.83182076       8.60033841       9.88997352
Si       6.87623954       3.34841193       9.88997352
Si      10.27701958       9.97932277       9.07285653
Si       4.95940465       3.91049865       9.07285653
Si      12.87396797       2.33972109       9.07285653
Si       5.10868683       1.53148426       1.48731530
Si       5.48948258       3.65851045       1.48731530
Si       3.45702599       2.92477614       1.48731530
24
Lattice="9.370609125626931 -1.0035219633832886e-11 -1.2364872793993745e-15 4.68530456282216 8.115185551722185 2.3216937027793776e-15 4.685304562816363 2.705061850570712 12.113663525097378" Properties=species:S:1:pos:R:3 unique_starting_index=24 config_type=initial n_minim_iter=9 stress="5.2557037168261055e-05 1.1858217372768664e-15 -1.0726510277227475e-16 1.1858217372768664e-15 5.2557037166224706e-05 4.61993208091935e-16 -1.0726510277227475e-16 4.61993208091935e-16 0.00010582336818275702" pbc="T T T"
Si      10.41890764       4.65450138      11.57163718
Si       9.50084706       6.69578801      11.57163718
Si       8.19207127       4.88008091      11.57163718
Si      10.36219165       4.67434847       9.43438642
Si       9.51201697       6.63674698       9.43438642
Si       8.23761735       4.91927485       9.43438642
Si      11.10520314       4.33043502       1.83158192
Si       9.43834901       7.45217052       1.83158192
Si       7.56827382       4.44776475       1.83158192
Si      10.50898920       5.93776259       3.10735573
Si       8.34446947       6.13217032       3.10735573
Si       9.25836730       4.16043738       3.10735573
Si      10.91094896       8.15098162       9.98048132
Si       6.22678569       5.37366817       9.98048132
Si      10.97409133       2.70572051       9.98048132
Si      12.40276708       4.28113206       9.89239558
Si       8.83226466       8.60054534       9.89239558
Si       6.87679424       3.34869290       9.89239558
Si      10.27757703       9.97979772       9.07559968
Si       4.95967045       3.91074394       9.07559968
Si      12.87457849       2.33982864       9.07559968
Si       5.10876110       1.53158418       1.48745524
Si       5.48983684       3.65852481       1.48745524
Si       3.45731435       2.92507576       1.48745524
24
Lattice="9.370867481262405 -1.1139778620917444e-11 -1.238664154464753e-15 4.685433740640854 8.115409294265158 2.3248236464204217e-15 4.6854337406344175 2.7051364314180026 12.124282118404306" Properties=species:S:1:pos:R:3 unique_starting_index=24 config_type=initial n_minim_iter=10 stress="7.547960408870126e-05 1.8384258729393e-15 -2.7694390278755494e-16 1.8384258729393e-15 7.547960408480189e-05 -3.813999182954697e-17 -2.7694390278755494e-16 -3.813999182954697e-17 0.00016248848512778334" pbc="T T T"
Si      10.41713404       4.65180269      11.58176532
Si       9.50458770       6.69560137      11.58176532
Si       8.19087930       4.88341372      11.58176532
Si      10.36173806       4.67384166       9.44428893
Si       9.51319939       6.63660756       9.44428893
Si       8.23766359       4.92036856       9.44428893
Si      11.10437335       4.33030992       1.83164240
Si       9.43938896       7.45151445       1.83164240
Si       7.56883874       4.44899341       1.83164240
Si      10.51141121       5.93752096       3.10853721
Si       8.34398444       6.13438865       3.10853721
Si       9.25720540       4.15890816       3.10853721
Si      10.91290055       8.15122902       9.98757403
Si       6.22611235       5.37523460       9.98757403
Si      10.97358814       2.70435416       9.98757403
Si      12.40173017       4.28062485       9.90324745
Si       8.83373908       8.59990095       9.90324745
Si       6.87713179       3.35029197       9.90324745
Si      10.27835579       9.98103151       9.08669320
Si       4.95872929       3.91080147       9.08669320
Si      12.87551596       2.33898481       9.08669320
Si       5.10676587       1.53154885       1.48656688
Si       5.49112340       3.65681455       1.48656688
Si       3.45841055       2.92704509       1.48656688
24
Lattice="9.37046919083357 -1.2065403435233602e-11 -1.226929205885754e-15 4.6852345954272385 8.115064364635236 2.3263737388498153e-15 4.685234595420268 2.7050214548743883 12.128348006449936" Properties=species:S:1:pos:R:3 unique_starting_index=24 config_type=initial n_minim_iter=11 stress="1.5531538884563103e-05 2.0344263799173906e-15 -4.417955511418239e-17 2.0344263799173906e-15 1.5531538879493648e-05 -1.2363052616421066e-16 -4.417955511418239e-17 -1.2363052616421066e-16 1.9195440587192562e-05" pbc="T T T"
Si      10.41543982       4.65007443      11.58530526
Si       9.50613495       6.69499826      11.58530526
Si       8.18983140       4.88505523      11.58530526
Si      10.36092912       4.67296935       9.44805500
Si       9.51356272       6.63634315       9.44805500
Si       8.23691433       4.92081542       9.44805500
Si      11.10348009       4.33005421       1.83069660
Si       9.43926046       7.45086872       1.83069660
Si       7.56866562       4.44920499       1.83069660
Si      10.51100306       5.93636671       3.10882245
Si       8.34439154       6.13461232       3.10882245
Si       9.25601157       4.15914889       3.10882245
Si      10.91357280       8.15083595       9.99061996
Si       6.22532005       5.37601332       9.99061996
Si      10.97251332       2.70327865       9.99061996
Si      12.40079350       4.27937018       9.90830919
Si       8.83449741       8.59971710       9.90830919
Si       6.87611527       3.35104064       9.90830919
Si      10.27865842       9.98111384       9.09123635
Si       4.95771010       3.91102239       9.09123635
Si      12.87503766       2.33799170       9.09123635
Si       5.10527269       1.53072910       1.48619455
Si       5.49218163       3.65593130       1.48619455
Si       3.45824807       2.92840317       1.48619455
24
Lattice="9.370303713752579 -1.2441110583115983e-11 -1.2247019576938361e-15 4.685151856887069 8.114921057279165 2.337531346825117e-15 4.685151856879881 2.7049736857555726 12.129903634763565" Properties=species:S:1:pos:R:3 unique_starting_index=24 config_type=initial n_minim_iter=12 stress="-1.2441925206577053e-05 2.027255910178726e-15 -2.75163698531562e-16 2.027255910178726e-15 -1.2441925211638333e-05 -1.717967579742659e-16 -2.75163698531562e-16 -1.717967579742659e-16 -3.46384848722217e-05" pbc="T T T"
Si      10.41478171       4.64937851      11.58671072
Si       9.50673574       6.69477628      11.58671072
Si       8.18939229       4.88568651      11.58671072
Si      10.36075939       4.67284340       9.44937892
Si       9.51342571       6.63625913       9.44937892
Si       8.23672464       4.92073878       9.44937892
Si      11.10313371       4.32993999       1.83042244
Si       9.43920161       7.45062586       1.83042244
Si       7.56857442       4.44927546       1.83042244
Si      10.51063410       5.93598484       3.10875608
Si       8.34457578       6.13448372       3.10875608
Si       9.25569986       4.15937275       3.10875608
Si      10.91378282       8.15049607       9.99212078
Si       6.22517843       5.37636514       9.99212078
Si      10.97194849       2.70298010       9.99212078
Si      12.40033197       4.27888727       9.91027730
Si       8.83481543       8.59955887       9.91027730
Si       6.87576233       3.35139517       9.91027730
Si      10.27861596       9.98113659       9.09296139
Si       4.95738066       3.91097424       9.09296139
Si      12.87491311       2.33773047       9.09296139
Si       5.10469394       1.53043611       1.48585213
Si       5.49255926       3.65557658       1.48585213
Si       3.45820097       2.92890756       1.48585213
24
Lattice="9.369894615083137 -1.3010305488486046e-11 -1.2085804315818003e-15 4.684947307552839 8.114566767438488 2.3362212749342817e-15 4.684947307545324 2.704855589141823 12.133678462975315" Properties=species:S:1:pos:R:3 unique_starting_index=24 config_type=initial n_minim_iter=13 stress="-3.497545274900893e-05 2.0631455207790933e-15 -5.169898015204727e-16 2.0631455207790933e-15 -3.497545275503951e-05 8.120085395156865e-17 -5.169898015204727e-16 8.120085395156865e-17 -6.236057103301466e-05" pbc="T T T"
Si      10.41353722       4.64821998      11.59002450
Si       9.50754310       6.69427778      11.59002450
Si       8.18860212       4.88663497      11.59002450
Si      10.36056057       4.67276466       9.45256406
Si       9.51277511       6.63612632       9.45256406
Si       8.23634676       4.92024175       9.45256406
Si      11.10241116       4.32961403       1.83043868
Si       9.43902698       7.45016310       1.83043868
Si       7.56824430       4.44935560       1.83043868
Si      10.50990747       5.93559783       3.10867837
Si       8.34445605       6.13404795       3.10867837
Si       9.25531892       4.15948695       3.10867837
Si      10.91384684       8.14976221       9.99573722
Si       6.22496377       5.37678752       9.99573722
Si      10.97087183       2.70258300       9.99573722
Si      12.39970134       4.27826285       9.91435471
Si       8.83485331       8.59932493       9.91435471
Si       6.87512779       3.35154494       9.91435471
Si      10.27842025       9.98074252       9.09700323
Si       4.95700160       3.91100179       9.09700323
Si      12.87426059       2.33738842       9.09700323
Si       5.10363878       1.53006845       1.48524826
Si       5.49299614       3.65484661       1.48524826
Si       3.45820560       2.92965090       1.48524826
24
Lattice="9.369829572182601 -1.369099928652659e-11 -1.1815322770947705e-15 4.68491478610316 8.114510438633943 2.346117614828834e-15 4.684914786095251 2.704836812873415 12.139631705382183" Properties=species:S:1:pos:R:3 unique_starting_index=24 config_type=initial n_minim_iter=14 stress="-4.2329945370009097e-05 1.9961260414035672e-15 -1.262990264220395e-16 1.9961260414035672e-15 -4.232994537685282e-05 7.748144559024452e-16 -1.262990264220395e-16 7.748144559024452e-16 -6.648903127524358e-05" pbc="T T T"
Si      10.41253565       4.64700004      11.59513030
Si       9.50897030       6.69402038      11.59513030
Si       8.18798136       4.88799966      11.59513030
Si      10.36084193       4.67318309       9.45765697
Si       9.51214197       6.63616077       9.45765697
Si       8.23650341       4.91967621       9.45765697
Si      11.10214029       4.32925369       1.83084666
Si       9.43934439       7.45010869       1.83084666
Si       7.56800263       4.44965769       1.83084666
Si      10.50953684       5.93582543       3.10857913
Si       8.34431418       6.13361317       3.10857913
Si       9.25563630       4.15958147       3.10857913
Si      10.91398366       8.14916102      10.00144550
Si       6.22528592       5.37720660      10.00144550
Si      10.97021773       2.70265245      10.00144550
Si      12.39949238       4.27782009       9.92049148
Si       8.83521116       8.59936535       9.92049148
Si       6.87478378       3.35183464       9.92049148
Si      10.27828376       9.98061287       9.10321915
Si       4.95705203       3.91094841       9.10321915
Si      12.87415152       2.33745879       9.10321915
Si       5.10255801       1.52964981       1.48438816
Si       5.49383404       3.65411996       1.48438816
Si       3.45835091       2.93073986       1.48438816
24
Lattice="9.369778002653687 -1.4226853221581048e-11 -1.1680210265254696e-15 4.684889001339167 8.114465778111573 2.3860617963964448e-15 4.68488900133095 2.7048219260324458 12.145679477579208" Properties=species:S:1:pos:R:3 unique_starting_index=24 config_type=initial n_minim_iter=15 stress="-2.000844175843364e-05 2.5634633845129145e-15 -6.444125195098593e-17 2.5634633845129145e-15 -2.0008441765689533e-05 9.159434290831835e-16 -6.444125195098593e-17 9.159434290831835e-16 -2.7344534379040043e-05" pbc="T T T"
Si      10.41175991       4.64615204      11.60029097
Si       9.50998942       6.69377256      11.60029097
Si       8.18758328       4.88900615      11.60029097
Si      10.36119948       4.67368109       9.46285450
Si       9.51142878       6.63622142       9.46285450
Si       8.23670435       4.91902824       9.46285450
Si      11.10204855       4.32893503       1.83153541
Si       9.43956309       7.45018856       1.83153541
Si       7.56772097       4.44980716       1.83153541
Si      10.50923250       5.93639737       3.10839701
Si       8.34386789       6.13306364       3.10839701
Si       9.25623221       4.15946974       3.10839701
Si      10.91375255       8.14867621      10.00723291
Si       6.22571819       5.37724885      10.00723291
Si      10.96986187       2.70300568      10.00723291
Si      12.39959103       4.27788927       9.92653955
Si       8.83499877       8.59941619       9.92653955
Si       6.87474280       3.35162528       9.92653955
Si      10.27808465       9.98027186       9.10945206
Si       4.95734378       3.91094648       9.10945206
Si      12.87390418       2.33771241       9.10945206
Si       5.10164258       1.52941996       1.48360320
Si       5.49443924       3.65344210       1.48360320
Si       3.45858378       2.93160291       1.48360320
24
Lattice="9.369913526692017 -1.4565830689728344e-11 -1.1426506022847727e-15 4.684956763358625 8.114583145371416 2.421884984162424e-15 4.684956763350211 2.70486104845228 12.149863867994574" Properties=species:S:1:pos:R:3 unique_starting_index=24 config_type=initial n_minim_iter=16 stress="4.715540825364952e-06 2.188141548547099e-15 -2.0394772383613045e-16 2.188141548547099e-15 4.715540816450381e-06 1.050294723355865e-15 -2.0394772383613045e-16 1.050294723355865e-15 1.1746879733313648e-05" pbc="T T T"
Si      10.41161076       4.64590398      11.60388480
Si       9.51054987       6.69376743      11.60388480
Si       8.18757855       4.88949408      11.60388480
Si      10.36160712       4.67413264       9.46651227
Si       9.51110495       6.63634867       9.46651227
Si       8.23702711       4.91868418       9.46651227
Si      11.10238557       4.32889284       1.83199636
Si       9.43970216       7.45050153       1.83199636
Si       7.56765144       4.44977111       1.83199636
Si      10.50920967       5.93708785       3.10812059
Si       8.34355238       6.13269862       3.10812059
Si       9.25697713       4.15937901       3.10812059
Si      10.91343157       8.14869441      10.01124909
Si       6.22613396       5.37696178      10.01124909
Si      10.97017364       2.70350929      10.01124909
Si      12.39997853       4.27833376       9.93079533
Si       8.83469114       8.59952954       9.93079533
Si       6.87506951       3.35130219       9.93079533
Si      10.27800315       9.98024766       9.11373441
Si       4.95767654       3.91088800       9.11373441
Si      12.87405949       2.33802983       9.11373441
Si       5.10119194       1.52931755       1.48308827
Si       5.49488877       3.65310303       1.48308827
Si       3.45878818       2.93216175       1.48308827
24
Lattice="9.370119865654194 -1.5267146125692113e-11 -1.1262065866283667e-15 4.685059932840322 8.114761840154097 2.397137290926207e-15 4.685059932831504 2.704920613379606 12.15715546736842" Properties=species:S:1:pos:R:3 unique_starting_index=24 config_type=initial n_minim_iter=17 stress="3.79881122995797e-05 2.495400019951356e-15 -2.1726806738662958e-16 2.495400019951356e-15 3.79881122904787e-05 1.22701210250893e-15 -2.1726806738662958e-16 1.22701210250893e-15 5.8299086476162614e-05" pbc="T T T"
Si      10.41154588       4.64581109      11.61035928
Si       9.51107543       6.69375768      11.61035928
Si       8.18773688       4.88995410      11.61035928
Si      10.36218341       4.67471791       9.47305288
Si       9.51072263       6.63655512       9.47305288
Si       8.23745216       4.91824985       9.47305288
Si      11.10326474       4.32923267       1.83227999
Si       9.43938096       7.45109300       1.83227999
Si       7.56771249       4.44919721       1.83227999
Si      10.50904774       5.93824082       3.10728103
Si       8.34304752       6.13198190       3.10728103
Si       9.25826293       4.15930015       3.10728103
Si      10.91260685       8.14906138      10.01827703
Si       6.22664120       5.37606407      10.01827703