10
Lattice="5.395456985662021 -0.06474701927208017 5.469644277957079e-18 -2.8300697103962045 5.473452021142638 -4.623816797235361e-16 2.0402792417793977e-31 5.788468915002312e-16 6.852111204121308" Properties=species:S:1:pos:R:3 unique_starting_index=14 config_type=initial n_minim_iter=1 energy=-1627.7678314087555 free_energy=-1627.7678314087555 pbc="T T T"
Si       0.27653057       2.37270220       0.67112249
Si       2.28885670       3.03600280       0.67112249
Si       1.70086798       0.80623459       0.47742486
Si       0.86451929       4.60247041       0.47742486
Si       1.19521062       0.17407764       5.06786718
Si       1.37017665       5.23462736       5.06786718
Si       0.71373499       3.60011129       2.34458330
Si       1.85165228       1.80859371       2.34458330
Si      -0.68046171       3.76027387       4.00674918
Si       3.24584898       1.64843113       4.00674918
10
Lattice="5.395217056479098 -0.06567986088606836 5.548448087824369e-18 -2.8308636574540706 5.4756627839896135 -4.625684386893051e-16 1.98913854644596e-31 5.792023048836217e-16 6.856318416878578" Properties=species:S:1:pos:R:3 unique_starting_index=14 config_type=initial n_minim_iter=2 stress="-0.00012926549080091127 -0.0013860966014168133 -1.2766527174900324e-15 -0.0013860966014168133 0.003491800021994 -3.024914021479947e-15 -1.2766527174900324e-15 -3.024914021479947e-15 0.002552671454848498" pbc="T T T"
Si       0.27625461       2.37358049       0.67165685
Si       2.28809879       3.03640243       0.67165685
Si       1.70072965       0.80607850       0.47754245
Si       0.86362374       4.60390442       0.47754245
Si       1.19509246       0.17394233       5.07099701
Si       1.36926093       5.23604059       5.07099701
Si       0.71299558       3.60097876       2.34604427
Si       1.85135781       1.80900416       2.34604427
Si      -0.68108140       3.76155910       4.00922305
Si       3.24543480       1.64842382       4.00922305
10
Lattice="5.395055049144485 -0.0654600943982344 5.5298828391661e-18 -2.83057109610308 5.474382861090602 -4.624603144383433e-16 1.983452591400783e-31 5.793503532091518e-16 6.858070941777672" Properties=species:S:1:pos:R:3 unique_starting_index=14 config_type=initial n_minim_iter=3 stress="-0.005692773086374594 -0.002641065458266236 -1.4228067965881313e-15 -0.002641065458266236 -0.0010823784872316022 -3.2537845679679733e-15 -1.4228067965881313e-15 -3.2537845679679733e-15 -0.000652206391554216" pbc="T T T"
Si       0.27656735       2.37346465       0.67229836
Si       2.28791660       3.03545812       0.67229836
Si       1.70083621       0.80586417       0.47741168
Si       0.86364774       4.60305859       0.47741168
Si       1.19497819       0.17398139       5.07234134
Si       1.36950576       5.23494138       5.07234134
Si       0.71288231       3.59973311       2.34634695
Si       1.85160164       1.80918965       2.34634695
Si      -0.68095291       3.76067575       4.01027968
Si       3.24543686       1.64824701       4.01027968
10
Lattice="5.397434549442362 -0.06428483089940011 5.430599917052293e-18 -2.830634438297488 5.4737595622899455 -4.624076599261079e-16 1.9584238185055433e-31 5.795241920271661e-16 6.860128762127263" Properties=species:S:1:pos:R:3 unique_starting_index=14 config_type=initial n_minim_iter=4 stress="0.0015674171687709289 -0.0009506738586703184 -5.043233792113137e-16 -0.0009506738586703184 -0.00032446380665448685 1.7086365853060902e-16 -5.043233792113137e-16 1.7086365853060902e-16 0.00033249882114635477" pbc="T T T"
Si       0.27719469       2.37373325       0.67286122
Si       2.28960542       3.03574148       0.67286122
Si       1.70188186       0.80618421       0.47737757
Si       0.86491825       4.60329052       0.47737757
Si       1.19546232       0.17427168       5.07391147
Si       1.37133779       5.23520305       5.07391147
Si       0.71374038       3.59956433       2.34679209
Si       1.85305972       1.80991040       2.34679209
Si      -0.68046570       3.76047093       4.01151000
Si       3.24726581       1.64900380       4.01151000
10
Lattice="5.397546086393252 -0.05784640617774282 4.886700084538194e-18 -2.8241608427539413 5.473809832378391 -4.624119066003905e-16 1.9475389172357193e-31 5.800786939229937e-16 6.866692688977175" Properties=species:S:1:pos:R:3 unique_starting_index=14 config_type=initial n_minim_iter=5 stress="-0.0013903262284453864 0.002971365263786427 -6.955553396893714e-16 0.002971365263786427 -0.0022301645279456743 4.55632769986392e-16 -6.955553396893714e-16 4.55632769986392e-16 0.003227332299330039" pbc="T T T"
Si       0.28082536       2.37595541       0.67443871
Si       2.29255988       3.04000801       0.67443871
Si       1.70334433       0.80929106       0.47781964
Si       0.87004091       4.60667237       0.47781964
Si       1.19523004       0.17597694       5.07904516
Si       1.37815520       5.23998648       5.07904516
Si       0.71651981       3.60290836       2.34777913
Si       1.85686543       1.81305506       2.34777913
Si      -0.67606081       3.76171452       4.01540889
Si       3.24944605       1.65424890       4.01540889
10
Lattice="5.3987610968241375 -0.05620117447891602 4.747715583806399e-18 -2.82309710995063 5.476478558097996 -4.6263735296882205e-16 1.962746314522003e-31 5.801619223110902e-16 6.8676779066209965" Properties=species:S:1:pos:R:3 unique_starting_index=14 config_type=initial n_minim_iter=6 stress="0.00110280823902204 -0.0010115456481888212 -1.2080099956770098e-15 -0.0010115456481888212 0.0005885406442848824 1.5776967861629205e-16 -1.2080099956770098e-15 1.5776967861629205e-16 -0.0014971596150663384" pbc="T T T"
Si       0.28202137       2.37798494       0.67510322
Si       2.29364261       3.04229244       0.67510322
Si       1.70443748       0.81062860       0.47800037
Si       0.87122651       4.60964879       0.47800037
Si       1.19523633       0.17656803       5.07996340
Si       1.38042765       5.24370936       5.07996340
Si       0.71680795       3.60569149       2.34722225
Si       1.85885603       1.81458590       2.34722225
Si      -0.67508700       3.76372861       4.01600930
Si       3.25075098       1.65654877       4.01600930
10
Lattice="5.3943431813145475 -0.043964691719555 3.714012277314221e-18 -2.808373164363347 5.475916446010137 -4.625898673362864e-16 1.9580252808126806e-31 5.81445935441541e-16 6.882877436732662" Properties=species:S:1:pos:R:3 unique_starting_index=14 config_type=initial n_minim_iter=7 stress="-0.00012724526316196475 0.00021277866892100724 -1.6508307196702894e-15 0.00021277866892100724 0.0007001092654107901 -3.4327189188294344e-16 -1.6508307196702894e-15 -3.4327189188294344e-16 -0.0006632144892903187" pbc="T T T"
Si       0.28732779       2.38359465       0.67636198
Si       2.29864223       3.04835710       0.67636198
Si       1.71009579       0.81598247       0.48147027
Si       0.87587422       4.61596928       0.48147027
Si       1.19258830       0.18003317       5.09252789
Si       1.39338171       5.25191858       5.09252789
Si       0.72231903       3.61100917       2.34910650
Si       1.86365099       1.82094259       2.34910650
Si      -0.66605094       3.76462642       4.02471002
Si       3.25202095       1.66732533       4.02471002
10
Lattice="5.389811321785191 -0.029664653060982406 2.5059856298673368e-18 -2.7917113060671186 5.457418078690449 -4.610271778086573e-16 1.8940388866646363e-31 5.835846371645565e-16 6.908194359486737" Properties=species:S:1:pos:R:3 unique_starting_index=14 config_type=initial n_minim_iter=8 stress="-0.001334687190231981 0.0010335581848491932 -1.899193605041895e-15 0.0010335581848491932 -0.0010529037372725334 8.700813400090959e-16 -1.899193605041895e-15 8.700813400090959e-16 0.0005005996425220221" pbc="T T T"
Si       0.29278516       2.38315038       0.67747874
Si       2.30531485       3.04460304       0.67747874
Si       1.72018791       0.81952245       0.48555766
Si       0.87791211       4.60823098       0.48555766
Si       1.18815843       0.18367460       5.11463328
Si       1.40994158       5.24407883       5.11463328
Si       0.72400848       3.60595436       2.35465780
Si       1.87409154       1.82179907       2.35465780
Si      -0.65505175       3.75146453       4.03828401
Si       3.25315176       1.67628889       4.03828401
10
Lattice="5.394400814032342 -0.0003360324581619112 2.838706758461246e-20 -2.7646050602090977 5.437500078362574 -4.593445617168818e-16 1.8875309726682186e-31 5.848375598300236e-16 6.923025855621569" Properties=species:S:1:pos:R:3 unique_starting_index=14 config_type=initial n_minim_iter=9 stress="0.00017547269613902512 -0.00042322222924724083 -1.6338134653488432e-15 -0.00042322222924724083 0.002023901602227983 2.2334570420647617e-15 -1.6338134653488432e-15 2.2334570420647617e-15 7.816493531695269e-05" pbc="T T T"
Si       0.30909373       2.38606044       0.67305766
Si       2.32070202       3.05110360       0.67305766
Si       1.74446204       0.82814780       0.48797925
Si       0.88533371       4.60901624       0.48797925
Si       1.18374783       0.19123471       5.13562446
Si       1.44604792       5.24592934       5.13562446
Si       0.72956790       3.60399515       2.35624420
Si       1.90022786       1.83316889       2.35624420
Si      -0.63412713       3.73535962       4.04490900
Si       3.26392288       1.70180443       4.04490900
10
Lattice="5.407784698567618 -0.001498994607351603 1.2663080662171196e-19 -2.772935347432608 5.426643012758505 -4.584273876535143e-16 1.8974469586750642e-31 5.854402381439282e-16 6.9301600717464655" Properties=species:S:1:pos:R:3 unique_starting_index=14 config_type=initial n_minim_iter=10 stress="0.0019266801869283817 -0.0015151158029906005 -1.0619337958008179e-15 -0.0015151158029906005 0.0005988939641778347 5.357169359587468e-15 -1.0619337958008179e-15 5.357169359587468e-15 0.0013534484775887064" pbc="T T T"
Si       0.31192629       2.37955066       0.67122368
Si       2.32292306       3.04559336       0.67122368
Si       1.75155529       0.82569440       0.48832194
Si       0.88329406       4.59944962       0.48832194
Si       1.18602998       0.19003870       5.14403457
Si       1.44881937       5.23510532       5.14403457
Si       0.72827435       3.59567012       2.35689833
Si       1.90657500       1.82947389       2.35689833
Si      -0.63796806       3.72545800       4.05042122
Si       3.27281741       1.69968602       4.05042122
10
Lattice="5.414795262311841 -0.00040959964558211215 3.460181461454737e-20 -2.775403114932177 5.435336843946364 -4.59161817817942e-16 1.834743492736312e-31 5.831423255482957e-16 6.902958487227605" Properties=species:S:1:pos:R:3 unique_starting_index=14 config_type=initial n_minim_iter=11 stress="0.00010554977069630169 0.0020942036180387055 -1.5551775701631747e-15 0.0020942036180387055 -0.0023300459941689644 4.394609656669479e-15 -1.5551775701631747e-15 4.394609656669479e-15 -0.000685301435922414" pbc="T T T"
Si       0.31743999       2.37467876       0.66289476
Si       2.32195215       3.06024848       0.66289476
Si       1.75687922       0.82249262       0.48193283
Si       0.88251293       4.61243462       0.48193283
Si       1.18825277       0.18703521       5.13207794
Si       1.45113937       5.24789203       5.13207794
Si       0.72723921       3.59794374       2.34468610
Si       1.91215294       1.83698351       2.34468610
Si      -0.64231182       3.72790086       4.03941652
Si       3.28170397       1.70702639       4.03941652
10
Lattice="5.4219745195839195 0.11918533171347946 -1.0068438284141944e-17 -2.6592326967899034 5.319704862633668 -4.493935564825729e-16 1.7175114931367037e-31 5.883256885931371e-16 6.964316646900083" Properties=species:S:1:pos:R:3 unique_starting_index=14 config_type=initial n_minim_iter=12 stress="0.028165847184938402 -0.01829262064402517 -7.225865279399234e-16 -0.01829262064402517 0.029869227735522072 4.981022510075753e-15 -7.225865279399234e-16 4.981022510075753e-15 0.012426941041785463" pbc="T T T"
Si       0.39086602       2.34018644       0.61664033
Si       2.37187580       3.09870375       0.61664033
Si       1.88613086       0.83002763       0.48466109
Si       0.87661096       4.60886256       0.48466109
Si       1.16044798       0.19215513       5.26152509
Si       1.60229384       5.24673507       5.26152509
Si       0.71807785       3.55389806       2.32531330
Si       2.04466397       1.88499214       2.32531330
Si      -0.57470442       3.62359929       4.08540794
Si       3.33744624       1.81529090       4.08540794
10
Lattice="5.422701521025977 0.12714902979633075 -1.0741188877759305e-17 -2.6516179176337897 5.312812789151653 -4.488113336913467e-16 1.8596005064500772e-31 5.886333651776677e-16 6.967958774383301" Properties=species:S:1:pos:R:3 unique_starting_index=14 config_type=initial n_minim_iter=13 stress="0.029539174655280453 -0.018467192563022043 -1.2223156176834454e-15 -0.018467192563022043 0.030954928018330947 3.751268044475949e-15 -1.2223156176834454e-15 3.751268044475949e-15 0.013378548562703362" pbc="T T T"
Si       0.39573644       2.33853351       0.61390869
Si       2.37534716       3.10142831       0.61390869
Si       1.89411772       0.83091256       0.48482625
Si       0.87696588       4.60904925       0.48482625
Si       1.15891756       0.19262449       5.26930785
Si       1.61216604       5.24733733       5.26930785
Si       0.71812621       3.55160440       2.32405818
Si       2.05295739       1.88835742       2.32405818
Si      -0.57020482       3.61762128       4.08812697
Si       3.34128842       1.82234053       4.08812697
10
Lattice="5.418720781436107 0.1798656729957107 -1.5194541156679436e-17 -2.59620719936525 5.299813876576238 -4.4771322247963195e-16 1.8725369280723715e-31 5.881335025318297e-16 6.962041640705361" Properties=species:S:1:pos:R:3 unique_starting_index=14 config_type=initial n_minim_iter=14 stress="-0.005506920283651477 0.004674059668350829 -2.2791738563525434e-15 0.004674059668350829 -0.003141667304178274 3.222739538867089e-15 -2.2791738563525434e-15 3.222739538867089e-15 -0.004031676763797442" pbc="T T T"
Si       0.42483077       2.35296624       0.61010572
Si       2.39768281       3.12671331       0.61010572
Si       1.91222387       0.84201797       0.48408548
Si       0.91028971       4.63766157       0.48408548
Si       1.16250118       0.19854224       5.27731385
Si       1.66001240       5.28113731       5.27731385
Si       0.74837115       3.56842835       2.31483109
Si       2.07414243       1.91125120       2.31483109
Si      -0.53327550       3.62172420       4.08303891
Si       3.35578908       1.85795535       4.08303891
10
Lattice="5.434264777169287 0.15223335406447577 -1.286024134136589e-17 -2.6322994214011435 5.307547543697065 -4.48366540710967e-16 1.8657382145428488e-31 5.859398172229982e-16 6.93607384869735" Properties=species:S:1:pos:R:3 unique_starting_index=14 config_type=initial n_minim_iter=15 stress="-0.009246573951919714 0.0035720796402955624 -1.7514008624091215e-15 0.0035720796402955624 -0.007860439727045036 5.4345562349072785e-15 -1.7514008624091215e-15 5.4345562349072785e-15 -0.0042012561613385254" pbc="T T T"
Si       0.41422027       2.34572427       0.61233867
Si       2.38774508       3.11405663       0.61233867
Si       1.89454029       0.82976736       0.47980965
Si       0.90742506       4.63001354       0.47980965
Si       1.17414850       0.19180640       5.25033636
Si       1.62781685       5.26797450       5.25033636
Si       0.74776137       3.56507415       2.31291855
Si       2.05420398       1.89470675       2.31291855
Si      -0.55292683       3.63115604       4.06634320
Si       3.35489218       1.82862486       4.06634320
10
Lattice="5.449124812195042 0.15363667688371907 -1.2978790067078605e-17 -2.6388595301254862 5.291780492883653 -4.470345850436421e-16 1.8082515203118893e-31 5.852561295984932e-16 6.927980683301147" Properties=species:S:1:pos:R:3 unique_starting_index=14 config_type=initial n_minim_iter=16 stress="0.0006701845004163436 -0.0013049842375182177 -1.0226405515227923e-15 -0.0013049842375182177 0.00044123843565430044 6.3761583583558034e-15 -1.0226405515227923e-15 6.3761583583558034e-15 0.0007427128923846919" pbc="T T T"
Si       0.42011651       2.33351351       0.60460756
Si       2.39014877       3.11190366       0.60460756
Si       1.90725418       0.82243346       0.47646767
Si       0.90301109       4.62298370       0.47646767
Si       1.17739669       0.18755793       5.25737647
Si       1.63286859       5.25785924       5.25737647
Si       0.74461613       3.55393141       2.30718908
Si       2.06564915       1.89148576       2.30718908
Si      -0.55584547       3.61801725       4.06126165
Si       3.36611075       1.82739991       4.06126165
10
Lattice="5.45262978413616 0.15956910665945628 -1.3479944883810629e-17 -2.6348325206067256 5.279054066403596 -4.459594926832821e-16 2.0324476112599683e-31 5.845998879869079e-16 6.920212410610418" Properties=species:S:1:pos:R:3 unique_starting_index=14 config_type=initial n_minim_iter=17 stress="0.0012483778599023615 0.0006359723952874345 -6.824017650395796e-16 0.0006359723952874345 0.000416326633235573 8.773854692060507e-15 -6.824017650395796e-16 8.773854692060507e-15 0.002049208851358428" pbc="T T T"
Si       0.42579765       2.32481114       0.59860150
Si       2.39199961       3.11381203       0.59860150
Si       1.91548279       0.81583221       0.47252186
Si       0.90231447       4.62279096       0.47252186
Si       1.17854943       0.18284126       5.26848779
Si       1.63924783       5.25578191       5.26848779
Si       0.74600486       3.54853028       2.30000404
Si       2.07179240       1.89009289       2.30000404
Si      -0.55345510       3.61097306       4.05303911
Si       3.37125236       1.82765012       4.05303911
10
Lattice="5.460706152676737 0.15786015703785888 -1.3335577673950246e-17 -2.641080044803601 5.255922370907621 -4.4400539275201984e-16 1.9167117688365825e-31 5.832610125110619e-16 6.904363446430631" Properties=species:S:1:pos:R:3 unique_starting_index=14 config_type=initial n_minim_iter=18 stress="-0.0011223214261351908 0.0021318800621796486 -3.1864075315112436e-16 0.0021318800621796486 -0.003088667875711739 1.0662592134907989e-14 -3.1864075315112436e-16 1.0662592134907989e-14 -0.0030983429428581397" pbc="T T T"
Si       0.43024776       2.30320999       0.59244596
Si       2.38937834       3.11057254       0.59244596
Si       1.91783372       0.79279889       0.45845276
Si       0.90179239       4.62098363       0.45845276
Si       1.18180153       0.16289960       5.31266233
Si       1.63782457       5.25088292       5.31266233
Si       0.75459869       3.54167444       2.28215411
Si       2.06502742       1.87210808       2.28215411
Si      -0.55575312       3.61023608       4.01786990
Si       3.37537923       1.80354645       4.01786990
10
Lattice="5.458111734888337 0.15932175907772178 -1.345904966268215e-17 -2.638132751417446 5.264565283850549 -4.447355214877462e-16 2.0567402079899007e-31 5.853805851610382e-16 6.929453928414927" Properties=species:S:1:pos:R:3 unique_starting_index=14 config_type=initial n_minim_iter=19 stress="0.00013204312017589447 -0.0013941326923818706 -1.2440222915114116e-15 -0.0013941326923818706 -0.0008214945182749842 9.496059722724325e-15 -1.2440222915114116e-15 9.496059722724325e-15 -0.0015891246568562293" pbc="T T T"
Si       0.42776159       2.31549709       0.60147368
Si       2.39221739       3.10838995       0.60147368
Si       1.91267175       0.80296414       0.46288476
Si       0.90730723       4.62092290       0.46288476
Si       1.17793343       0.16651813       5.32564903
Si       1.64204555       5.25736891       5.32564903
Si       0.75913198       3.55042651       2.29200667
Si       2.06084700       1.87346054       2.29200667
Si      -0.55276457       3.61907308       4.02759043
Si       3.37274355       1.80481396       4.02759043
10
Lattice="5.459812428745499 0.172256563935689 -1.455174523652122e-17 -2.6259110568750264 5.263896149951237 -4.446789949565685e-16 1.8351623491926482e-31 5.868658825773239e-16 6.947036165129037" Properties=species:S:1:pos:R:3 unique_starting_index=14 config_type=initial n_minim_iter=20 stress="-0.0002812526997143351 -0.0013896420069401717 -9.379168672298657e-16 -0.0013896420069401717 0.0005270501877333385 9.039476615613334e-15 -9.379168672298657e-16 9.039476615613334e-15 0.0010808548336639298" pbc="T T T"
Si       0.43337515       2.32513446       0.60446699
Si       2.40052622       3.11101825       0.60446699
Si       1.91836580       0.81332786       0.46223017
Si       0.91553557       4.62282485       0.46223017
Si       1.17240145       0.16643272       5.35205214
Si       1.66149992       5.26972000       5.35205214
Si       0.76828571       3.55855412       2.29524834
Si       2.06561566       1.87759859       2.29524834
Si      -0.54586289       3.62312437       4.02785525
Si       3.37976426       1.81302835       4.02785525
10
Lattice="5.4730573048937 0.21114143853437445 -1.78366289923901e-17 -2.5933379380912283 5.2700167193996315 -4.451960432784467e-16 2.030561275456199e-31 5.862334455911533e-16 6.939549680149203" Properties=species:S:1:pos:R:3 unique_starting_index=14 config_type=initial n_minim_iter=21 stress="0.00184436323240946 -0.0004371774818882476 -1.2057111144784032e-15 -0.0004371774818882476 0.008098861795322801 1.035564319170012e-14 -1.2057111144784032e-15 1.035564319170012e-14 0.007238292440105833" pbc="T T T"
Si       0.45298907       2.35484266       0.60064502
Si       2.42673029       3.12631550       0.60064502
Si       1.93824598       0.84597549       0.44132786
Si       0.94147338       4.63518267       0.44132786
Si       1.15444868       0.15204902       5.41309851
Si       1.72527069       5.32910914       5.41309851
Si       0.80413266       3.59076001       2.28700220
Si       2.07558670       1.89039814       2.28700220
Si      -0.54169092       3.64236129       3.98604802
Si       3.42141029       1.83879687       3.98604802
