22
Lattice="5.579268878222556 -0.7290227444901252 -1.3590163052378552 -2.6130770246813717 10.417274168357824 -2.0408462122423083 -4.569570765012422 -4.952137040931191 10.781424100036052" Properties=species:S:1:pos:R:3 unique_starting_index=18 config_type=initial n_minim_iter=1 energy=-3583.7940931426742 free_energy=-3583.7940931426742 pbc="T T T"
Si      -0.23093498       9.07434811      -0.96110179
Si      -1.53750330      -1.24685258       5.70653192
Si      -3.83030320      -3.49166711       9.58449809
Si       0.21041499      -2.77190169       8.71261857
Si      -5.63767536      -0.27310164       8.91784639
Si       4.22190960       2.03301634       0.21318867
Si       2.17407503       0.69554849       0.40174155
Si      -1.46485812       0.46774801       6.96110443
Si      -1.72063873      -3.29454736       9.41618623
Si      -2.67618182       1.08651616       5.32695399
Si       1.17804091      -0.28392846       2.53421827
Si      -2.99516210       3.56709507       5.07752526
Si      -3.45327610      -2.68702762       6.29162306
Si      -0.68836121       6.64435637      -1.09997071
Si       1.05037825       1.38502539       3.88250664
Si       1.05807325       7.62635466      -1.82380431
Si      -0.89899594      -1.25837490       3.28450923
Si       2.72842750      -4.82440732       6.40533532
Si       0.20899310       3.15955989       3.04390839
Si      -2.83199026       2.49527210       6.90391775
Si      -1.42242552       4.46511409       3.43482965
Si      -1.82250676      -2.18293511       7.59350297
22
Lattice="5.579241686313665 -0.7290424666888234 -1.3589560331472508 -2.613062871808315 10.41767154991907 -2.040811874498094 -4.569562197541059 -4.9523869774444504 10.78095189692771" Properties=species:S:1:pos:R:3 unique_starting_index=18 config_type=initial n_minim_iter=2 stress="-0.00014888927259395119 7.072474473037056e-05 -5.711717703334469e-05 7.072474473037056e-05 -0.0001248833403759579 2.2808870575142072e-05 -5.711717703334469e-05 2.2808870575142072e-05 -0.00012427272645926634" pbc="T T T"
Si      -0.23091886       9.07469021      -0.96118377
Si      -1.53751962      -1.24685605       5.70620386
Si      -3.83031101      -3.49185547       9.58403396
Si       0.21039494      -2.77207898       8.71224038
Si      -5.63767987      -0.27305252       8.91738592
Si       4.22195291       2.03309605       0.21319617
Si       2.17410480       0.69557397       0.40163411
Si      -1.46482957       0.46765421       6.96075060
Si      -1.72064061      -3.29478811       9.41571456
Si      -2.67618164       1.08645799       5.32668344
Si       1.17803995      -0.28396184       2.53415353
Si      -2.99517826       3.56714697       5.07729208
Si      -3.45325701      -2.68717974       6.29138059
Si      -0.68841600       6.64461030      -1.09992838
Si       1.05044713       1.38502902       3.88233269
Si       1.05805845       7.62668897      -1.82377251
Si      -0.89898609      -1.25842548       3.28440830
Si       2.72837727      -4.82467225       6.40509196
Si       0.20899647       3.15965934       3.04370831
Si      -2.83198182       2.49537573       6.90358565
Si      -1.42243509       4.46534535       3.43466708
Si      -1.82260301      -2.18312828       7.59325904
22
Lattice="5.579312209395708 -0.7290854568683419 -1.3589355475734615 -2.61317425615188 10.417846073918806 -2.0408668734917597 -4.569535526949195 -4.95245842785861 10.781017675884488" Properties=species:S:1:pos:R:3 unique_starting_index=18 config_type=initial n_minim_iter=3 stress="9.43641280449556e-05 1.2813330652933396e-05 -1.9261447228290795e-05 1.2813330652933396e-05 0.00010384152941439664 -1.0204866514473946e-05 -1.9261447228290795e-05 -1.0204866514473946e-05 8.514089530264879e-05" pbc="T T T"
Si      -0.23098455       9.07482971      -0.96122584
Si      -1.53750672      -1.24687289       5.70623373
Si      -3.83029322      -3.49190657       9.58408561
Si       0.21045962      -2.77214334       8.71230993
Si      -5.63771079      -0.27303913       8.91741752
Si       4.22200520       2.03309879       0.21321803
Si       2.17413576       0.69556644       0.40163804
Si      -1.46481642       0.46764942       6.96078737
Si      -1.72059109      -3.29485853       9.41577397
Si      -2.67619550       1.08646865       5.32670523
Si       1.17807146      -0.28398177       2.53418645
Si      -2.99521552       3.56720317       5.07730222
Si      -3.45325214      -2.68721608       6.29141943
Si      -0.68848138       6.64471628      -1.09995221
Si       1.05047762       1.38502891       3.88236465
Si       1.05801251       7.62680260      -1.82380095
Si      -0.89897141      -1.25844404       3.28443760
Si       2.72847439      -4.82478348       6.40516880
Si       0.20899445       3.15969688       3.04371794
Si      -2.83199789       2.49541490       6.90361494
Si      -1.42246760       4.46542092       3.43467418
Si      -1.82258120      -2.18316852       7.59331554
22
Lattice="5.579284139890586 -0.7292138165107804 -1.3587843032590607 -2.6134647111871203 10.417893748058113 -2.0409278043838315 -4.569158640858379 -4.952373223473142 10.780757254929604" Properties=species:S:1:pos:R:3 unique_starting_index=18 config_type=initial n_minim_iter=4 stress="-6.81999224677907e-05 -0.00023598772866261744 0.00010293163104663854 -0.00023598772866261744 -2.6614475187798588e-05 -4.524628738479007e-05 0.00010293163104663854 -4.524628738479007e-05 -7.545370874262928e-05" pbc="T T T"
Si      -0.23122323       9.07483701      -0.96129551
Si      -1.53736619      -1.24683640       5.70610467
Si      -3.82999426      -3.49183324       9.58382986
Si       0.21072571      -2.77215671       8.71217541
Si      -5.63751954      -0.27294214       8.91714168
Si       4.22198760       2.03299330       0.21331645
Si       2.17414414       0.69549057       0.40165009
Si      -1.46467240       0.46766042       6.96062282
Si      -1.72026675      -3.29487888       9.41556937
Si      -2.67609177       1.08648850       5.32657704
Si       1.17814126      -0.28402608       2.53421449
Si      -2.99517729       3.56725155       5.07712849
Si      -3.45302965      -2.68716598       6.29127776
Si      -0.68870014       6.64473258      -1.09994940
Si       1.05055521       1.38497132       3.88233473
Si       1.05777322       7.62678377      -1.82377334
Si      -0.89885551      -1.25841705       3.28440512
Si       2.72872455      -4.82488393       6.40516622
Si       0.20898131       3.15968030       3.04364740
Si      -2.83187935       2.49544929       6.90342891
Si      -1.42250073       4.46547179       3.43457570
Si      -1.82235909      -2.18311420       7.59316198
22
Lattice="5.579344897338876 -0.7290672512906456 -1.3586889452482682 -2.6132431956600715 10.417850407239197 -2.0408585955198237 -4.569216477165995 -4.952436127507765 10.78053542206517" Properties=species:S:1:pos:R:3 unique_starting_index=18 config_type=initial n_minim_iter=5 stress="0.00012095003977505623 0.00010695917545125825 0.00017905142980742574 0.00010695917545125825 -4.467851103368094e-05 -1.6561238937645244e-06 0.00017905142980742574 -1.6561238937645244e-06 -9.550539586682756e-05" pbc="T T T"
Si      -0.23098008       9.07491688      -0.96134223
Si      -1.53740486      -1.24680596       5.70599511
Si      -3.83005036      -3.49186206       9.58357649
Si       0.21080662      -2.77204106       8.71203482
Si      -5.63758007      -0.27305384       8.91694843
Si       4.22221850       2.03312764       0.21341998
Si       2.17426188       0.69549546       0.40162692
Si      -1.46459013       0.46768141       6.96049311
Si      -1.72017580      -3.29495721       9.41535734
Si      -2.67602895       1.08640014       5.32654927
Si       1.17821753      -0.28399490       2.53431266
Si      -2.99503093       3.56724483       5.07702341
Si      -3.45305690      -2.68727742       6.29121875
Si      -0.68863328       6.64476165      -1.09983108
Si       1.05073044       1.38498618       3.88235844
Si       1.05795851       7.62687728      -1.82367366
Si      -0.89883508      -1.25838521       3.28444362
Si       2.72873113      -4.82482811       6.40515825
Si       0.20910350       3.15974155       3.04361068
Si      -2.83171195       2.49542125       6.90333108
Si      -1.42236204       4.46556620       3.43455953
Si      -1.82236123      -2.18302825       7.59303825
22
Lattice="5.579287905655848 -0.7291430450334304 -1.35892986505678 -2.613218943966019 10.418017112515853 -2.040738850785591 -4.569477979676605 -4.952399102829439 10.780885458666296" Properties=species:S:1:pos:R:3 unique_starting_index=18 config_type=initial n_minim_iter=6 stress="-5.758957897251459e-05 -3.8055983089118647e-06 -3.435932335202294e-05 -3.8055983089118647e-06 1.610717010553934e-05 1.782863624277431e-05 -3.435932335202294e-05 1.782863624277431e-05 5.9930673044941195e-05" pbc="T T T"
Si      -0.23104416       9.07509213      -0.96138255
Si      -1.53762088      -1.24675820       5.70613662
Si      -3.83030945      -3.49180498       9.58384022
Si       0.21052332      -2.77199838       8.71215176
Si      -5.63785038      -0.27296035       8.91732311
Si       4.22214670       2.03310997       0.21326971
Si       2.17422380       0.69543486       0.40152804
Si      -1.46483551       0.46775121       6.96066422
Si      -1.72040993      -3.29498949       9.41555056
Si      -2.67618551       1.08642664       5.32679018
Si       1.17811680      -0.28401546       2.53438669
Si      -2.99519173       3.56736299       5.07722840
Si      -3.45318399      -2.68728122       6.29151112
Si      -0.68870763       6.64487748      -1.09974967
Si       1.05058219       1.38499921       3.88242119
Si       1.05791457       7.62698170      -1.82370523
Si      -0.89891470      -1.25835210       3.28459642
Si       2.72848136      -4.82492810       6.40518251
Si       0.20893388       3.15981005       3.04365855
Si      -2.83191277       2.49551727       6.90358142
Si      -1.42251420       4.46571820       3.43470408
Si      -1.82261358      -2.18294632       7.59324017
22
Lattice="5.57945029092076 -0.7291696819830163 -1.3589524431918862 -2.6133281993843274 10.418066793042987 -2.0407315311376286 -4.569695059555462 -4.952466173198934 10.780658304951045" Properties=species:S:1:pos:R:3 unique_starting_index=18 config_type=initial n_minim_iter=7 stress="0.00024481333712231745 -5.060374198710879e-05 -0.00016067822813905632 -5.060374198710879e-05 -3.251957487804209e-05 -3.423643057583127e-05 -0.00016067822813905632 -3.423643057583127e-05 -0.00023011593204754686" pbc="T T T"
Si      -0.23113391       9.07519440      -0.96153408
Si      -1.53779468      -1.24678268       5.70597383
Si      -3.83048286      -3.49183861       9.58356883
Si       0.21049547      -2.77202419       8.71186785
Si      -5.63811126      -0.27298027       8.91712587
Si       4.22226546       2.03306420       0.21313822
Si       2.17430643       0.69534641       0.40144683
Si      -1.46496328       0.46772740       6.96047489
Si      -1.72048820      -3.29513287       9.41530605
Si      -2.67632196       1.08634707       5.32668875
Si       1.17814656      -0.28408197       2.53439311
Si      -2.99535308       3.56733554       5.07706482
Si      -3.45332552      -2.68736678       6.29146178
Si      -0.68882623       6.64492825      -1.09972340
Si       1.05056124       1.38499496       3.88229739
Si       1.05788958       7.62699724      -1.82371754
Si      -0.89895832      -1.25834539       3.28460296
Si       2.72853937      -4.82504617       6.40505513
Si       0.20883863       3.15979456       3.04352882
Si      -2.83204612       2.49546061       6.90334380
Si      -1.42263146       4.46573390       3.43455356
Si      -1.82282257      -2.18295997       7.59305552
22
Lattice="5.579107364045002 -0.729132579103586 -1.3587671960817733 -2.6131959323664447 10.418214926893341 -2.040933577303748 -4.569062738700292 -4.952608868647106 10.780843290631376" Properties=species:S:1:pos:R:3 unique_starting_index=18 config_type=initial n_minim_iter=8 stress="-1.674123741550063e-05 2.3033278019187405e-05 -1.959055414808672e-06 2.3033278019187405e-05 -3.582404687094085e-05 -7.003569898771061e-05 -1.959055414808672e-06 -7.003569898771061e-05 6.15273946127551e-05" pbc="T T T"
Si      -0.23116611       9.07550043      -0.96182570
Si      -1.53764830      -1.24680137       5.70605888
Si      -3.82986062      -3.49188860       9.58361940
Si       0.21093214      -2.77198568       8.71209343
Si      -5.63747622      -0.27300336       8.91719070
Si       4.22213585       2.03308763       0.21319168
Si       2.17429362       0.69522306       0.40147650
Si      -1.46458766       0.46775446       6.96068347
Si      -1.71991450      -3.29536354       9.41552877
Si      -2.67597639       1.08621414       5.32679231
Si       1.17825473      -0.28416762       2.53472407
Si      -2.99496287       3.56733447       5.07706163
Si      -3.45291163      -2.68756217       6.29168765
Si      -0.68892106       6.64509249      -1.09972804
Si       1.05070634       1.38509370       3.88250219
Si       1.05775907       7.62711619      -1.82372483
Si      -0.89876660      -1.25831860       3.28485387
Si       2.72871631      -4.82520274       6.40551934
Si       0.20888192       3.15985181       3.04362150
Si      -2.83151449       2.49542676       6.90337905
Si      -1.42239593       4.46582540       3.43453137
Si      -1.82261195      -2.18294650       7.59325774
22
Lattice="5.579054557368581 -0.7292138179444483 -1.3587019284383344 -2.61326457964558 10.418355020898654 -2.040671352897223 -4.568874353508864 -4.952392184373332 10.780509075369789" Properties=species:S:1:pos:R:3 unique_starting_index=18 config_type=initial n_minim_iter=9 stress="1.3633867164808866e-05 -1.5840007708777543e-05 1.5686681277779483e-05 -1.5840007708777543e-05 5.938897439870173e-05 0.00021747681929047366 1.5686681277779483e-05 0.00021747681929047366 -3.714289895322492e-05" pbc="T T T"
Si      -0.23126266       9.07567502      -0.96164735
Si      -1.53761413      -1.24665515       5.70593691
Si      -3.82967133      -3.49165984       9.58332163
Si       0.21108466      -2.77178510       8.71187668
Si      -5.63733382      -0.27273164       8.91699022
Si       4.22211211       2.03308724       0.21324905
Si       2.17429474       0.69519316       0.40149289
Si      -1.46449377       0.46795340       6.96059101
Si      -1.71973887      -3.29520015       9.41526171
Si      -2.67591983       1.08634371       5.32669793
Si       1.17829985      -0.28414537       2.53475018
Si      -2.99487771       3.56755331       5.07703633
Si      -3.45280657      -2.68746704       6.29153027
Si      -0.68900589       6.64520015      -1.09953376
Si       1.05071477       1.38522076       3.88250163
Si       1.05766676       7.62718069      -1.82347880
Si      -0.89871481      -1.25823650       3.28480780
Si       2.72882033      -4.82517730       6.40534973
Si       0.20887445       3.15997054       3.04366161
Si      -2.83140675       2.49566801       6.90329596
Si      -1.42236949       4.46601624       3.43456313
Si      -1.82253421      -2.18275291       7.59308772
22
Lattice="5.5788095232296415 -0.7292683912707135 -1.3584385832922048 -2.613385880004702 10.41875408540014 -2.0410407636595496 -4.5682628376366115 -4.952829485445594 10.780142209108705" Properties=species:S:1:pos:R:3 unique_starting_index=18 config_type=initial n_minim_iter=10 stress="-5.405895582936081e-05 9.165365593480956e-06 6.291959854393308e-06 9.165365593480956e-06 8.008303823023752e-05 -4.2353550902620864e-05 6.291959854393308e-06 -4.2353550902620864e-05 -6.29950118741429e-05" pbc="T T T"
Si      -0.23154166       9.07612597      -0.96217140
Si      -1.53754818      -1.24677368       5.70579192
Si      -3.82902342      -3.49192946       9.58288303
Si       0.21158189      -2.77204826       8.71158478
Si      -5.63682673      -0.27288445       8.91649933
Si       4.22200762       2.03302076       0.21315909
Si       2.17427182       0.69501820       0.40146708
Si      -1.46418197       0.46775817       6.96033129
Si      -1.71916993      -3.29568064       9.41483972
Si      -2.67575793       1.08610199       5.32632492
Si       1.17844563      -0.28437828       2.53493766
Si      -2.99450615       3.56760408       5.07659916
Si      -3.45248041      -2.68786892       6.29143730
Si      -0.68925617       6.64550595      -1.09967290
Si       1.05069223       1.38514462       3.88238840
Si       1.05739183       7.62740119      -1.82355757
Si      -0.89856411      -1.25831629       3.28486567
Si       2.72908255      -4.82574648       6.40540698
Si       0.20884924       3.15989767       3.04347327
Si      -2.83100592       2.49556345       6.90281945
Si      -1.42222601       4.46614026       3.43419582
Si      -1.82229955      -2.18293384       7.59292988
22
Lattice="5.57890153693936 -0.7293575335607924 -1.3583749046785134 -2.613680616807491 10.418257548914644 -2.0410285582398005 -4.568036427369397 -4.952363589436279 10.780301167577809" Properties=species:S:1:pos:R:3 unique_starting_index=18 config_type=initial n_minim_iter=11 stress="8.105019037093258e-05 -2.4216742382205e-05 -5.405441003495135e-07 -2.4216742382205e-05 -0.00019191069728818 2.6629318900077906e-05 -5.405441003495135e-07 2.6629318900077906e-05 9.098672163792887e-05" pbc="T T T"
Si      -0.23185214       9.07575652      -0.96228108
Si      -1.53761052      -1.24653354       5.70596878
Si      -3.82875472      -3.49147680       9.58300631
Si       0.21199825      -2.77170835       8.71172055
Si      -5.63675755      -0.27260191       8.91665340
Si       4.22213461       2.03279616       0.21316363
Si       2.17434162       0.69486288       0.40146185
Si      -1.46409192       0.46787406       6.96052653
Si      -1.71886540      -3.29544526       9.41490522
Si      -2.67586153       1.08610035       5.32641584
Si       1.17861020      -0.28446978       2.53520352
Si      -2.99446546       3.56755324       5.07671285
Si      -3.45244029      -2.68774321       6.29163537
Si      -0.68954878       6.64521927      -1.09958158
Si       1.05077452       1.38517394       3.88255447
Si       1.05719726       7.62695210      -1.82341979
Si      -0.89852108      -1.25816349       3.28503256
Si       2.72944890      -4.82562638       6.40555249
Si       0.20881416       3.15969033       3.04362571
Si      -2.83089593       2.49558354       6.90292864
Si      -1.42226939       4.46604973       3.43426801
Si      -1.82220874      -2.18261035       7.59320695
22
Lattice="5.578549442868048 -0.7294764915448684 -1.3581128020685462 -2.61367954260843 10.419579354525753 -2.0411047552533015 -4.567386419173198 -4.953038705723372 10.779635164691728" Properties=species:S:1:pos:R:3 unique_starting_index=18 config_type=initial n_minim_iter=12 stress="-1.0219043562887462e-05 1.7714466502672236e-06 1.1091382386868708e-06 1.7714466502672236e-06 6.256517839150531e-05 2.273208093495794e-06 1.1091382386868708e-06 2.273208093495794e-06 -3.191459136938669e-05" pbc="T T T"
Si      -0.23212747       9.07697748      -0.96262691
Si      -1.53763635      -1.24661512       5.70574024
Si      -3.82805467      -3.49180847       9.58238951
Si       0.21261190      -2.77197857       8.71118124
Si      -5.63615777      -0.27257145       8.91601963
Si       4.22202866       2.03293525       0.21306193
Si       2.17428326       0.69486333       0.40133642
Si      -1.46387033       0.46800163       6.96010372
Si      -1.71823046      -3.29605573       9.41421045
Si      -2.67579839       1.08612896       5.32608652
Si       1.17878857      -0.28474985       2.53540111
Si      -2.99403889       3.56798552       5.07628723
Si      -3.45217263      -2.68837123       6.29141044
Si      -0.68983117       6.64613397      -1.09949829
Si       1.05090028       1.38542376       3.88241122
Si       1.05700216       7.62788439      -1.82320689
Si      -0.89843359      -1.25829851       3.28499326
Si       2.72975566      -4.82655441       6.40526464
Si       0.20881343       3.15990470       3.04349207
Si      -2.83040287       2.49584033       6.90234945
Si      -1.42212925       4.46665567       3.43388699
Si      -1.82194055      -2.18276635       7.59298495
22
Lattice="5.5781978757481765 -0.7295932395480191 -1.35785207319501 -2.6137930387802424 10.42031224102846 -2.041353379982559 -4.5666044657684814 -4.953446841061654 10.779388351417074" Properties=species:S:1:pos:R:3 unique_starting_index=18 config_type=initial n_minim_iter=13 stress="8.673528629679132e-06 8.089857019785745e-06 -6.240293727006489e-07 8.089857019785745e-06 1.0122078771816236e-05 4.5219330326857674e-06 -6.240293727006489e-07 4.5219330326857674e-06 2.090474913111445e-06" pbc="T T T"
Si      -0.23255641       9.07758693      -0.96317022
Si      -1.53773968      -1.24660355       5.70580452
Si      -3.82722492      -3.49190880       9.58217157
Si       0.21341363      -2.77207643       8.71098483
Si      -5.63562966      -0.27235039       8.91565929
Si       4.22200435       2.03288958       0.21294021
Si       2.17422827       0.69486688       0.40113460
Si      -1.46359528       0.46804689       6.95990775
Si      -1.71730286      -3.29657956       9.41383500
Si      -2.67559434       1.08591790       5.32601250
Si       1.17906090      -0.28513162       2.53580502
Si      -2.99356884       3.56820921       5.07596053
Si      -3.45190205      -2.68895082       6.29149948
Si      -0.69029218       6.64666571      -1.09946696
Si       1.05092446       1.38571440       3.88241392
Si       1.05674383       7.62839365      -1.82303678
Si      -0.89838000      -1.25837542       3.28509220
Si       2.73031816      -4.82732696       6.40520088
Si       0.20875242       3.15986833       3.04349425
Si      -2.82984671       2.49593702       6.90209403
Si      -1.42199898       4.46692185       3.43350809
Si      -1.82162883      -2.18274559       7.59309170
22
Lattice="5.57781524220258 -0.7298927261722327 -1.3575902220960445 -2.6142820467671037 10.420999269826634 -2.041776322289632 -4.5655782433445715 -4.953754369052787 10.779311139771368" Properties=species:S:1:pos:R:3 unique_starting_index=18 config_type=initial n_minim_iter=14 stress="-1.4243145233540145e-05 -1.5322394797841766e-06 -5.056648218833679e-06 -1.5322394797841766e-06 3.442135586148674e-05 5.233492254853775e-06 -5.056648218833679e-06 5.233492254853775e-06 6.195860586353635e-06" pbc="T T T"
Si      -0.23344244       9.07804085      -0.96373221
Si      -1.53781007      -1.24669360       5.70587348
Si      -3.82612155      -3.49201568       9.58205914
Si       0.21433317      -2.77205718       8.71083877
Si      -5.63507069      -0.27200115       8.91543325
Si       4.22201682       2.03268201       0.21294779
Si       2.17407034       0.69486041       0.40095464
Si      -1.46330366       0.46810635       6.95984423
Si      -1.71630346      -3.29720146       9.41348880
Si      -2.67544346       1.08578252       5.32605374
Si       1.17934160      -0.28556471       2.53622737
Si      -2.99310024       3.56839191       5.07573963
Si      -3.45146730      -2.68939021       6.29170199
Si      -0.69096627       6.64714496      -1.09955174
Si       1.05091232       1.38566248       3.88243804
Si       1.05628899       7.62864713      -1.82309226
Si      -0.89832630      -1.25847193       3.28517479
Si       2.73106871      -4.82818603       6.40524897
Si       0.20849785       3.15983995       3.04345258
Si      -2.82941684       2.49606029       6.90184665
Si      -1.42191586       4.46703938       3.43307945
Si      -1.82137560      -2.18281959       7.59316688
22
Lattice="5.5776492416661085 -0.7301842758146573 -1.357194961986624 -2.615045397977867 10.421122815374094 -2.0424672365161864 -4.564450598870346 -4.953918102584863 10.779272130186834" Properties=species:S:1:pos:R:3 unique_starting_index=18 config_type=initial n_minim_iter=15 stress="1.882034461734111e-05 -7.74541072726467e-06 -1.1750801417443405e-05 -7.74541072726467e-06 -7.199672515599208e-06 -4.2576122714066504e-07 -1.1750801417443405e-05 -4.2576122714066504e-07 1.6527573654127597e-05" pbc="T T T"
Si      -0.23443734       9.07780548      -0.96453956
Si      -1.53788783      -1.24678805       5.70590224
Si      -3.82491871      -3.49209756       9.58189511
Si       0.21553457      -2.77181451       8.71070840
Si      -5.63458724      -0.27179006       8.91517197
Si       4.22217004       2.03226318       0.21287500
Si       2.17397066       0.69479944       0.40085606
Si      -1.46296272       0.46808404       6.95980331
Si      -1.71477072      -3.29779390       9.41329715
Si      -2.67538276       1.08546569       5.32599543
Si       1.17976016      -0.28606279       2.53673072
Si      -2.99261133       3.56823711       5.07550380
Si      -3.45107318      -2.68975429       6.29192458
Si      -0.69173975       6.64735456      -1.09974880
Si       1.05105218       1.38536202       3.88245491
Si       1.05564602       7.62851731      -1.82325176
Si      -0.89828152      -1.25854945       3.28526896
Si       2.73216291      -4.82895078       6.40544840
Si       0.20841425       3.15946122       3.04335181
Si      -2.82903037       2.49608721       6.90161116
Si      -1.42192509       4.46688093       3.43254269
Si      -1.82113404      -2.18292817       7.59326274
22
Lattice="5.577339578496335 -0.7303770434210634 -1.356706959716871 -2.6155315881354113 10.421564882367539 -2.0430853200728865 -4.563199913474145 -4.954295439988045 10.77899398698493" Properties=species:S:1:pos:R:3 unique_starting_index=18 config_type=initial n_minim_iter=16 stress="-9.88707726675681e-09 -8.03722257209765e-06 -1.729965135099512e-05 -8.03722257209765e-06 1.412427721737907e-05 -1.509335487998586e-05 -1.729965135099512e-05 -1.509335487998586e-05 1.699483528253092e-05" pbc="T T T"
Si      -0.23518157       9.07795167      -0.96516687
Si      -1.53778537      -1.24691422       5.70580691
Si      -3.82345500      -3.49237220       9.58143275
Si       0.21687519      -2.77168694       8.71048920
Si      -5.63400995      -0.27168346       8.91460887
Si       4.22222338       2.03204283       0.21289097
Si       2.17385069       0.69478117       0.40087720
Si      -1.46246050       0.46801241       6.95963499
Si      -1.71343639      -3.29847742       9.41307040
Si      -2.67506033       1.08523606       5.32591577
Si       1.18011904      -0.28648208       2.53709016
Si      -2.99197013       3.56818096       5.07514624
Si      -3.45060701      -2.69018253       6.29190894
Si      -0.69225884       6.64785587      -1.09987638
Si       1.05123907       1.38522342       3.88243540
Si       1.05513610       7.62866524      -1.82342440
Si      -0.89815551      -1.25866155       3.28529553
Si       2.73304770      -4.82970770       6.40565196
Si       0.20861882       3.15916688       3.04323085
Si      -2.82846859       2.49612153       6.90132743
Si      -1.42179855       4.46693038       3.43205186
Si      -1.82066616      -2.18312080       7.59322755
22
Lattice="5.577110379271925 -0.7304964067670725 -1.3561434962445038 -2.615908575637213 10.421790849801782 -2.043433794382295 -4.561970301113286 -4.954401533577248 10.77842320519019" Properties=species:S:1:pos:R:3 unique_starting_index=18 config_type=initial n_minim_iter=17 stress="-4.7146797768663185e-06 8.676877244557784e-06 -2.8562542656434986e-06 8.676877244557784e-06 2.9873766989616564e-05 -1.8074044803881378e-06 -2.8562542656434986e-06 -1.8074044803881378e-06 -2.573544159883629e-06" pbc="T T T"
Si      -0.23576408       9.07805597      -0.96546442
Si      -1.53758162      -1.24689648       5.70562647
Si      -3.82203906      -3.49241932       9.58070865
Si       0.21818305      -2.77144339       8.71023857
Si      -5.63334491      -0.27143948       8.91383654
Si       4.22236956       2.03190288       0.21305831
Si       2.17377459       0.69471068       0.40109031
Si      -1.46194012       0.46812400       6.95935329
Si      -1.71195379      -3.29876345       9.41252373
Si      -2.67463145       1.08515443       5.32582730
Si       1.18047906      -0.28677322       2.53735258
Si      -2.99130826       3.56814754       5.07478521
Si      -3.45015114      -2.69045858       6.29170535
Si      -0.69267266       6.64822835      -1.09980664
Si       1.05155160       1.38522658       3.88244607
Si       1.05480900       7.62868959      -1.82342770
Si      -0.89798432      -1.25867801       3.28524188
Si       2.73388406      -4.83010220       6.40568830
Si       0.20894250       3.15898021       3.04317824
Si      -2.82783240       2.49621545       6.90099794
Si      -1.42148920       4.46697036       3.43167859
Si      -1.82014320      -2.18320191       7.59307515
22
Lattice="5.577063588789597 -0.7306477927089083 -1.3556674844918575 -2.61645896622648 10.421507202225989 -2.0437559119613 -4.560912520250808 -4.954147916788934 10.778144452469213" Properties=species:S:1:pos:R:3 unique_starting_index=18 config_type=initial n_minim_iter=18 stress="-1.2716991858880814e-07 2.225769403294113e-05 1.5740058344970218e-05 2.225769403294113e-05 6.66945216027135e-06 -1.2855580672969116e-05 1.5740058344970218e-05 -1.2855580672969116e-05 -1.095619922980556e-05" pbc="T T T"
Si      -0.23636717       9.07771637      -0.96571949
Si      -1.53740456      -1.24675914       5.70566647
Si      -3.82081499      -3.49216971       9.58022755
Si       0.21950965      -2.77115232       8.71025204
Si      -5.63285038      -0.27110791       8.91332097
Si       4.22256485       2.03162494       0.21320524
Si       2.17381355       0.69459419       0.40123332
Si      -1.46159672       0.46829581       6.95926041
Si      -1.71065527      -3.29887638       9.41241616
Si      -2.67435887       1.08508776       5.32577861
Si       1.18078309      -0.28700247       2.53760535
Si      -2.99083168       3.56802117       5.07453782
Si      -3.44981454      -2.69049569       6.29167203
Si      -0.69320777       6.64820740      -1.09970451
Si       1.05187604       1.38509417       3.88258479
Si       1.05444925       7.62839168      -1.82343217