22
Lattice="5.575308129989907 -0.7386932110607032 -1.351309030571197 -2.6293210209247606 10.43151838467423 -2.0370817540559107 -4.545813803910175 -4.94506518327125 10.765433635295762" Properties=species:S:1:pos:R:3 unique_starting_index=18 config_type=initial n_minim_iter=1 energy=-3583.795451360977 free_energy=-3583.795451360977 pbc="T T T"
Si      -0.24985254       9.08494406      -0.95656210
Si      -1.54100665      -1.23498877       5.70459476
Si      -3.79678903      -3.47513889       9.56265463
Si       0.24242362      -2.76062764       8.70162390
Si      -5.63302748      -0.25351321       8.90539180
Si       4.22716782       2.02732161       0.21517797
Si       2.17497407       0.69236151       0.40369152
Si      -1.46471193       0.47865796       6.96023350
Si      -1.68482494      -3.30493561       9.39892665
Si      -2.67281429       1.09359851       5.32232604
Si       1.17845347      -0.28603881       2.53643030
Si      -2.98758068       3.57444383       5.06860608
Si      -3.45179909      -2.68616002       6.29016755
Si      -0.70720274       6.65445113      -1.08968716
Si       1.05160158       1.38530064       3.88177241
Si       1.03971745       7.63480672      -1.81480893
Si      -0.89902178      -1.25326964       3.28250232
Si       2.74972330      -4.83795765       6.39700082
Si       0.21729393       3.16242291       3.04151793
Si      -2.82810519       2.50525593       6.89681192
Si      -1.41647086       4.46594858       3.42879254
Si      -1.81906848      -2.17747045       7.58965291
22
Lattice="5.575428854233689 -0.7386728370558558 -1.3512826733915226 -2.629303674463665 10.43174652588164 -2.037017543562159 -4.5459134196139575 -4.945157300825962 10.76534368741495" Properties=species:S:1:pos:R:3 unique_starting_index=18 config_type=initial n_minim_iter=2 stress="0.0002738655920213941 6.875532537310559e-05 1.9390469427722377e-05 6.875532537310559e-05 0.00024315798065948122 4.922809763343841e-05 1.9390469427722377e-05 4.922809763343841e-05 0.00020678037522594848" pbc="T T T"
Si      -0.24977033       9.08515513      -0.95653393
Si      -1.54103723      -1.23496471       5.70453239
Si      -3.79687438      -3.47520446       9.56255643
Si       0.24243186      -2.76060806       8.70157164
Si      -5.63316924      -0.25352020       8.90532621
Si       4.22730140       2.02740805       0.21520730
Si       2.17504373       0.69239286       0.40368575
Si      -1.46470894       0.47868200       6.96018409
Si      -1.68479207      -3.30497995       9.39885134
Si      -2.67283481       1.09360390       5.32231597
Si       1.17850157      -0.28602443       2.53644648
Si      -2.98760324       3.57453368       5.06859610
Si      -3.45188565      -2.68622902       6.29011875
Si      -0.70719242       6.65462015      -1.08962088
Si       1.05169686       1.38534337       3.88178940
Si       1.03977957       7.63502848      -1.81474587
Si      -0.89903187      -1.25327625       3.28251036
Si       2.74976663      -4.83803453       6.39698228
Si       0.21735501       3.16252768       3.04150491
Si      -2.82811254       2.50535511       6.89680187
Si      -1.41648083       4.46611703       3.42881217
Si      -1.81908120      -2.17747826       7.58965432
22
Lattice="5.575379033918212 -0.7386715543797006 -1.3512462924862438 -2.6292882344565496 10.431696056257882 -2.0369782473092877 -4.545856100469819 -4.945130221879618 10.765112638618206" Properties=species:S:1:pos:R:3 unique_starting_index=18 config_type=initial n_minim_iter=3 stress="-2.848657682236292e-05 4.509435028758486e-05 5.940948410305902e-06 4.509435028758486e-05 -6.724609322784534e-06 5.86119247342544e-05 5.940948410305902e-06 5.86119247342544e-05 -3.9640105976539535e-05" pbc="T T T"
Si      -0.24976359       9.08510376      -0.95653930
Si      -1.54102339      -1.23493593       5.70439325
Si      -3.79683057      -3.47519127       9.56233228
Si       0.24243315      -2.76057242       8.70138545
Si      -5.63314290      -0.25352403       8.90512696
Si       4.22727428       2.02739396       0.21520578
Si       2.17503272       0.69238290       0.40366542
Si      -1.46468566       0.47866381       6.96002003
Si      -1.68472406      -3.30497055       9.39864378
Si      -2.67279945       1.09357753       5.32221406
Si       1.17850299      -0.28602743       2.53641094
Si      -2.98757886       3.57450836       5.06848413
Si      -3.45185230      -2.68622431       6.28998873
Si      -0.70720861       6.65459738      -1.08958371
Si       1.05172559       1.38531854       3.88172086
Si       1.03974976       7.63501231      -1.81470511
Si      -0.89901417      -1.25326148       3.28246381
Si       2.74974426      -4.83802692       6.39686764
Si       0.21736484       3.16251471       3.04142392
Si      -2.82807438       2.50535119       6.89665748
Si      -1.41648463       4.46612856       3.42874520
Si      -1.81904442      -2.17745621       7.58952644
22
Lattice="5.575412671390363 -0.7387079161891995 -1.3512446071636268 -2.629396253747081 10.431756584140958 -2.037108318687586 -4.545838255551057 -4.945223729779202 10.765204045917923" Properties=species:S:1:pos:R:3 unique_starting_index=18 config_type=initial n_minim_iter=4 stress="3.240283092475289e-06 -5.4383812383444875e-05 1.7405957192342441e-06 -5.4383812383444875e-05 1.8756811769722885e-05 -7.099441477987815e-05 1.7405957192342441e-06 -7.099441477987815e-05 3.1833348280926185e-05" pbc="T T T"
Si      -0.24984999       9.08513164      -0.95666206
Si      -1.54102919      -1.23498613       5.70441855
Si      -3.79681752      -3.47527715       9.56239188
Si       0.24245837      -2.76067117       8.70143644
Si      -5.63318366      -0.25358105       8.90515548
Si       4.22728228       2.02735323       0.21517923
Si       2.17503937       0.69235366       0.40365041
Si      -1.46470239       0.47859025       6.96002818
Si      -1.68470347      -3.30508207       9.39870683
Si      -2.67282225       1.09353019       5.32222567
Si       1.17851415      -0.28607227       2.53642861
Si      -2.98763467       3.57447517       5.06845059
Si      -3.45184886      -2.68627710       6.29004612
Si      -0.70728235       6.65462859      -1.08966007
Si       1.05172917       1.38525847       3.88171840
Si       1.03968074       7.63503744      -1.81480480
Si      -0.89900669      -1.25329001       3.28250074
Si       2.74979266      -4.83814324       6.39694775
Si       0.21733411       3.16248298       3.04138558
Si      -2.82811161       2.50529320       6.89664745
Si      -1.41653895       4.46611933       3.42870363
Si      -1.81904037      -2.17752769       7.58958089
22
Lattice="5.575514773617765 -0.7386848827322453 -1.3512555360035465 -2.629386104430477 10.431681875710753 -2.0370212217780357 -4.545979440857948 -4.945158607415639 10.76510076556354" Properties=species:S:1:pos:R:3 unique_starting_index=18 config_type=initial n_minim_iter=5 stress="0.00011649430767247266 7.783835585649477e-06 -4.857958855476689e-05 7.783835585649477e-06 -4.988994096863612e-05 -5.841673087193007e-06 -4.857958855476689e-05 -5.841673087193007e-06 -6.2872099919528e-05" pbc="T T T"
Si      -0.24982418       9.08511484      -0.95664023
Si      -1.54111606      -1.23494969       5.70435635
Si      -3.79689913      -3.47522509       9.56225926
Si       0.24245615      -2.76054856       8.70131843
Si      -5.63335220      -0.25354625       8.90509081
Si       4.22740648       2.02736196       0.21518128
Si       2.17509650       0.69234036       0.40361423
Si      -1.46474791       0.47861687       6.95996779
Si      -1.68479305      -3.30507222       9.39860698
Si      -2.67287181       1.09350429       5.32223405
Si       1.17854880      -0.28606514       2.53643910
Si      -2.98770406       3.57446300       5.06841576
Si      -3.45194424      -2.68627654       6.29002769
Si      -0.70729882       6.65460546      -1.08958139
Si       1.05179791       1.38526074       3.88171142
Si       1.03973156       7.63500211      -1.81475899
Si      -0.89903020      -1.25324939       3.28252646
Si       2.74978102      -4.83809279       6.39688105
Si       0.21733064       3.16250827       3.04135003
Si      -2.82815419       2.50529399       6.89661230
Si      -1.41656099       4.46616006       3.42871084
Si      -1.81913945      -2.17745400       7.58951497
22
Lattice="5.575389723096444 -0.7386967500074629 -1.3512156537814206 -2.6293521012002112 10.43179263414265 -2.037033061359455 -4.545774329526768 -4.945172395081649 10.765172735390088" Properties=species:S:1:pos:R:3 unique_starting_index=18 config_type=initial n_minim_iter=6 stress="-4.916959924416846e-05 -6.792460478540016e-06 6.983698539800883e-06 -6.792460478540016e-06 5.693932089460877e-06 2.8727273662274846e-05 6.983698539800883e-06 2.8727273662274846e-05 8.241789990514622e-05" pbc="T T T"
Si      -0.24983758       9.08523560      -0.95663961
Si      -1.54104492      -1.23494392       5.70440380
Si      -3.79670057      -3.47522573       9.56230595
Si       0.24255405      -2.76051992       8.70141454
Si      -5.63315884      -0.25350695       8.90514142
Si       4.22734444       2.02738461       0.21523747
Si       2.17506458       0.69233508       0.40363518
Si      -1.46464242       0.47865446       6.96004607
Si      -1.68464917      -3.30509446       9.39868804
Si      -2.67275665       1.09351451       5.32229342
Si       1.17856638      -0.28606681       2.53650438
Si      -2.98759317       3.57452259       5.06845111
Si      -3.45180790      -2.68629993       6.29008355
Si      -0.70731332       6.65468873      -1.08956208
Si       1.05184294       1.38528408       3.88179018
Si       1.03968576       7.63508361      -1.81474332
Si      -0.89897274      -1.25323986       3.28258599
Si       2.74978947      -4.83813344       6.39698832
Si       0.21734883       3.16257026       3.04139318
Si      -2.82801154       2.50534489       6.89668390
Si      -1.41649436       4.46624553       3.42875857
Si      -1.81904302      -2.17743309       7.58958338
22
Lattice="5.575340669408582 -0.7386667748504386 -1.3510758627309174 -2.629318645932649 10.432024141684169 -2.037137691844862 -4.545598673927676 -4.945420677227985 10.764864195546139" Properties=species:S:1:pos:R:3 unique_starting_index=18 config_type=initial n_minim_iter=7 stress="-1.1705081553878665e-05 4.2624301596517336e-05 4.836100392976528e-05 4.2624301596517336e-05 6.737970980069801e-05 -4.058150861327358e-05 4.836100392976528e-05 -4.058150861327358e-05 -6.188880883350653e-05" pbc="T T T"
Si      -0.24983419       9.08549048      -0.95676899
Si      -1.54100164      -1.23505211       5.70423931
Si      -3.79650229      -3.47541723       9.56197616
Si       0.24269936      -2.76062730       8.70120449
Si      -5.63299836      -0.25361573       8.90480410
Si       4.22737254       2.02743627       0.21526112
Si       2.17507698       0.69231338       0.40364064
Si      -1.46451755       0.47859771       6.95983734
Si      -1.68443151      -3.30531367       9.39841355
Si      -2.67262918       1.09340937       5.32212837
Si       1.17863770      -0.28611778       2.53650967
Si      -2.98746454       3.57453550       5.06820287
Si      -3.45169836      -2.68648737       6.28994175
Si      -0.70733645       6.65486430      -1.08958945
Si       1.05192264       1.38526103       3.88171035
Si       1.03967246       7.63527126      -1.81476170
Si      -0.89891300      -1.25328407       3.28256778
Si       2.74986319      -4.83831698       6.39694804
Si       0.21738572       3.16263072       3.04126059
Si      -2.82784118       2.50529266       6.89640522
Si      -1.41640330       4.46633146       3.42858615
Si      -1.81898271      -2.17754380       7.58936134
22
Lattice="5.5753755643123055 -0.738741334051871 -1.3511354273048997 -2.6294435879432076 10.431916767819798 -2.037040819987976 -4.545630149587819 -4.945208944554442 10.764937659200646" Properties=species:S:1:pos:R:3 unique_starting_index=18 config_type=initial n_minim_iter=8 stress="4.603875034433831e-06 -7.544592572068269e-05 -2.622594273482492e-05 -7.544592572068269e-05 6.534462904164264e-05 5.6087512122398945e-05 -2.622594273482492e-05 5.6087512122398945e-05 -5.2257855071231226e-05" pbc="T T T"
Si      -0.24996949       9.08541582      -0.95673083
Si      -1.54107347      -1.23496997       5.70428208
Si      -3.79652120      -3.47523160       9.56201976
Si       0.24268568      -2.76048917       8.70123192
Si      -5.63308886      -0.25344546       8.90490985
Si       4.22737237       2.02734836       0.21522564
Si       2.17507624       0.69224802       0.40362642
Si      -1.46458088       0.47868269       6.95991557
Si      -1.68440999      -3.30519175       9.39844434
Si      -2.67268123       1.09343066       5.32220541
Si       1.17865020      -0.28612552       2.53655325
Si      -2.98755097       3.57457593       5.06828580
Si      -3.45172162      -2.68638749       6.29003164
Si      -0.70744621       6.65480132      -1.08951558
Si       1.05187772       1.38526970       3.88175301
Si       1.03957719       7.63514815      -1.81471092
Si      -0.89892248      -1.25321342       3.28263578
Si       2.74989300      -4.83825718       6.39694628
Si       0.21730377       3.16262399       3.04130022
Si      -2.82791480       2.50536137       6.89648623
Si      -1.41649087       4.46634943       3.42865398
Si      -1.81906266      -2.17741079       7.58941384
22
Lattice="5.575373137236239 -0.7386678136705436 -1.3511512787487738 -2.629359206214328 10.431658455003987 -2.037147630046151 -4.545669175434859 -4.945200109186695 10.765158977902674" Properties=species:S:1:pos:R:3 unique_starting_index=18 config_type=initial n_minim_iter=9 stress="-9.30389913114822e-06 4.221946177977643e-05 -4.4429849480845385e-05 4.221946177977643e-05 -3.783693019124351e-05 -1.781158677490566e-05 -4.4429849480845385e-05 -1.781158677490566e-05 4.571855484982769e-05" pbc="T T T"
Si      -0.24991183       9.08522723      -0.95683927
Si      -1.54111356      -1.23498759       5.70438876
Si      -3.79653304      -3.47523100       9.56219215
Si       0.24269032      -2.76045507       8.70139313
Si      -5.63309817      -0.25353320       8.90506418
Si       4.22740486       2.02732380       0.21519895
Si       2.17508849       0.69222374       0.40362237
Si      -1.46457295       0.47861887       6.96004514
Si      -1.68439488      -3.30520760       9.39861541
Si      -2.67267520       1.09331585       5.32229060
Si       1.17867082      -0.28614094       2.53662947
Si      -2.98751140       3.57443351       5.06834377
Si      -3.45174728      -2.68641780       6.29018671
Si      -0.70741596       6.65465562      -1.08956605
Si       1.05189222       1.38522240       3.88181824
Si       1.03962708       7.63498698      -1.81478346
Si      -0.89893222      -1.25320159       3.28273685
Si       2.74987327      -4.83817684       6.39710411
Si       0.21731842       3.16253014       3.04132901
Si      -2.82787673       2.50523339       6.89657480
Si      -1.41645439       4.46622073       3.42867442
Si      -1.81911082      -2.17741214       7.58956946
22
Lattice="5.575376786533415 -0.738719826527017 -1.3509559889865643 -2.6295885019741867 10.43141813390105 -2.0372592858477483 -4.545253322013888 -4.945019494205416 10.765042124530918" Properties=species:S:1:pos:R:3 unique_starting_index=18 config_type=initial n_minim_iter=10 stress="6.877061983513284e-05 -2.5675643747671815e-05 0.00011135024442519175 -2.5675643747671815e-05 -0.00011016985967389152 2.0031634716070587e-05 0.00011135024442519175 2.0031634716070587e-05 1.6643983061604458e-05" pbc="T T T"
Si      -0.25011412       9.08504302      -0.95693743
Si      -1.54098782      -1.23492627       5.70436044
Si      -3.79612951      -3.47505650       9.56206159
Si       0.24312072      -2.76034085       8.70140795
Si      -5.63283121      -0.25345123       8.90489491
Si       4.22744486       2.02718631       0.21529333
Si       2.17512929       0.69214186       0.40365077
Si      -1.46435308       0.47865056       6.96004534
Si      -1.68395697      -3.30516564       9.39857777
Si      -2.67255630       1.09324929       5.32219632
Si       1.17882843      -0.28619432       2.53675334
Si      -2.98736453       3.57437859       5.06824855
Si      -3.45153651      -2.68636255       6.29014641
Si      -0.70760568       6.65452471      -1.08956986
Si       1.05201729       1.38517800       3.88187810
Si       1.03943592       7.63477489      -1.81472532
Si      -0.89881329      -1.25313542       3.28279778
Si       2.75024562      -4.83814022       6.39725948
Si       0.21736228       3.16242236       3.04134192
Si      -2.82764674       2.50521215       6.89644837
Si      -1.41641651       4.46614398       3.42860144
Si      -1.81888743      -2.17730006       7.58956878
22
Lattice="5.575207564528434 -0.7387525798787754 -1.3509830380011527 -2.629551608117285 10.431688228608621 -2.0373719139295696 -4.545158855747265 -4.945248017742336 10.76508316807776" Properties=species:S:1:pos:R:3 unique_starting_index=18 config_type=initial n_minim_iter=11 stress="-1.829334508371605e-05 1.41953645821275e-06 -1.872061338379514e-05 1.41953645821275e-06 -1.4925860251970918e-06 -6.139148990136851e-06 -1.872061338379514e-05 -6.139148990136851e-06 -3.567067645451845e-06" pbc="T T T"
Si      -0.25025100       9.08534462      -0.95719019
Si      -1.54112804      -1.23499365       5.70436685
Si      -3.79596872      -3.47515877       9.56203181
Si       0.24322520      -2.76043895       8.70134072
Si      -5.63274643      -0.25352534       8.90487896
Si       4.22733243       2.02714539       0.21511681
Si       2.17507880       0.69208468       0.40352744
Si      -1.46439752       0.47863582       6.96004657
Si      -1.68384009      -3.30545957       9.39854900
Si      -2.67260959       1.09310197       5.32213977
Si       1.17886925      -0.28632706       2.53686092
Si      -2.98724798       3.57443088       5.06818015
Si      -3.45150581      -2.68658655       6.29027335
Si      -0.70772731       6.65475297      -1.08959046
Si       1.05193682       1.38514891       3.88184248
Si       1.03932456       7.63495912      -1.81476574
Si      -0.89882550      -1.25316318       3.28293584
Si       2.75024076      -4.83845786       6.39730069
Si       0.21726899       3.16239984       3.04127559
Si      -2.82756003       2.50521634       6.89631170
Si      -1.41644703       4.46625351       3.42847630
Si      -1.81897940      -2.17737344       7.58964457
22
Lattice="5.5749248704932075 -0.7388771691033904 -1.3507010011828222 -2.629742024243621 10.432064234733467 -2.0375262000839043 -4.544400604364902 -4.945397975453923 10.764639770541631" Properties=species:S:1:pos:R:3 unique_starting_index=18 config_type=initial n_minim_iter=12 stress="-1.4861595528333004e-05 -5.941543882666251e-06 -4.037337490349283e-07 -5.941543882666251e-06 -2.3225770020750574e-05 4.487508353564044e-06 -4.037337490349283e-07 4.487508353564044e-06 -1.2337874967365892e-05" pbc="T T T"
Si      -0.25073784       9.08579815      -0.95755745
Si      -1.54119329      -1.23494954       5.70432879
Si      -3.79511109      -3.47503725       9.56157591
Si       0.24404645      -2.76044840       8.70105813
Si      -5.63225108      -0.25337440       8.90432686
Si       4.22735050       2.02700898       0.21512248
Si       2.17502118       0.69197219       0.40339350
Si      -1.46415886       0.47871872       6.95980900
Si      -1.68302047      -3.30579716       9.39789411
Si      -2.67251329       1.09289988       5.32189199
Si       1.17917884      -0.28662776       2.53714224
Si      -2.98680098       3.57462324       5.06778831
Si      -3.45120430      -2.68693931       6.29022303
Si      -0.70819188       6.65511866      -1.08949107
Si       1.05201913       1.38525732       3.88179319
Si       1.03903943       7.63517782      -1.81460703
Si      -0.89871945      -1.25313510       3.28309443
Si       2.75076693      -4.83901835       6.39724686
Si       0.21724003       3.16228203       3.04120345
Si      -2.82703995       2.50527976       6.89583825
Si      -1.41634381       4.46649910       3.42814810
Si      -1.81871562      -2.17728291       7.58961692
22
Lattice="5.574757262691105 -0.738919162044946 -1.3505148673494056 -2.6297918760699597 10.432502126890986 -2.0376926179724375 -4.543963189131764 -4.945691280659984 10.764404446239537" Properties=species:S:1:pos:R:3 unique_starting_index=18 config_type=initial n_minim_iter=13 stress="-1.4900139915309674e-05 6.097464441344817e-06 1.1324203844372598e-06 6.097464441344817e-06 -1.2833796936399155e-05 -1.5040541907074463e-06 1.1324203844372598e-06 -1.5040541907074463e-06 -1.6093727152406708e-05" pbc="T T T"
Si      -0.25095563       9.08617749      -0.95786262
Si      -1.54126606      -1.23499381       5.70432385
Si      -3.79460673      -3.47511534       9.56134261
Si       0.24457245      -2.76050939       8.70090180
Si      -5.63193107      -0.25331813       8.90400033
Si       4.22738851       2.02698490       0.21508760
Si       2.17500184       0.69200609       0.40324271
Si      -1.46401344       0.47873635       6.95966225
Si      -1.68243634      -3.30617952       9.39763359
Si      -2.67242416       1.09272153       5.32176950
Si       1.17937687      -0.28684848       2.53733105
Si      -2.98653946       3.57472813       5.06749524
Si      -3.45105347      -2.68731158       6.29024343
Si      -0.70845123       6.65547680      -1.08947065
Si       1.05212269       1.38541660       3.88176139
Si       1.03892441       7.63552744      -1.81454161
Si      -0.89869165      -1.25318160       3.28317743
Si       2.75107389      -4.83950183       6.39716342
Si       0.21721327       3.16227673       3.04115672
Si      -2.82670434       2.50529413       6.89561217
Si      -1.41619460       4.46667075       3.42790131
Si      -1.81861874      -2.17733634       7.58960811
22
Lattice="5.574666158315102 -0.7391190244412346 -1.3503890000783296 -2.6301203743224715 10.433071189868068 -2.037803706109954 -4.54349703975483 -4.94582380910241 10.76435955081752" Properties=species:S:1:pos:R:3 unique_starting_index=18 config_type=initial n_minim_iter=14 stress="9.005896396172043e-07 7.4837118171357015e-06 -9.877087274866242e-06 7.4837118171357015e-06 1.1903556646548463e-05 1.0680590442741142e-05 -9.877087274866242e-06 1.0680590442741142e-05 9.128244617259262e-06" pbc="T T T"
Si      -0.25142555       9.08655022      -0.95809134
Si      -1.54137826      -1.23497810       5.70436967
Si      -3.79400500      -3.47508408       9.56125575
Si       0.24512010      -2.76033728       8.70082366
Si      -5.63178082      -0.25307062       8.90394324
Si       4.22746229       2.02687472       0.21507052
Si       2.17492776       0.69202082       0.40317136
Si      -1.46391404       0.47886192       6.95970737
Si      -1.68177238      -3.30647215       9.39747956
Si      -2.67246357       1.09275090       5.32186999
Si       1.17955817      -0.28708018       2.53757343
Si      -2.98636062       3.57492723       5.06744558
Si      -3.45093621      -2.68757014       6.29038501
Si      -0.70883837       6.65590428      -1.08944688
Si       1.05219696       1.38550776       3.88182189
Si       1.03865831       7.63585345      -1.81447683
Si      -0.89870921      -1.25321638       3.28325143
Si       2.75155738      -4.84000233       6.39712878
Si       0.21707030       3.16235627       3.04118324
Si      -2.82653637       2.50546594       6.89546998
Si      -1.41619718       4.46685054       3.42771386
Si      -1.81852294      -2.17730467       7.58974283
22
Lattice="5.574484475222248 -0.7394116859486719 -1.350098826611564 -2.630701214378074 10.43358488916018 -2.038137841868719 -4.542618269644801 -4.945991542245272 10.764083038591059" Properties=species:S:1:pos:R:3 unique_starting_index=18 config_type=initial n_minim_iter=15 stress="2.9606687807392744e-06 -3.3028742174830097e-06 -9.913488588437354e-06 -3.3028742174830097e-06 1.5548609728006726e-05 -2.460889592637295e-06 -9.913488588437354e-06 -2.460889592637295e-06 1.1653804779859089e-05" pbc="T T T"
Si      -0.25216177       9.08676195      -0.95853414
Si      -1.54140520      -1.23497730       5.70434578
Si      -3.79293326      -3.47508476       9.56089175
Si       0.24601559      -2.76017067       8.70057221
Si      -5.63144759      -0.25276341       8.90358729
Si       4.22750302       2.02661384       0.21508226
Si       2.17480003       0.69198503       0.40311653
Si      -1.46364628       0.47882035       6.95956372
Si      -1.68075657      -3.30693603       9.39712057
Si      -2.67237633       1.09261290       5.32175103
Si       1.17980117      -0.28741392       2.53785219
Si      -2.98599960       3.57509498       5.06714327
Si      -3.45063341      -2.68786340       6.29040243
Si      -0.70940234       6.65629532      -1.08955429
Si       1.05220168       1.38543238       3.88178510
Si       1.03814758       7.63606678      -1.81450406
Si      -0.89867275      -1.25328626       3.28324974
Si       2.75229562      -4.84067157       6.39709444
Si       0.21693931       3.16227668       3.04108987
Si      -2.82626296       2.50560795       6.89519967
Si      -1.41619697       4.46692728       3.42730995
Si      -1.81825072      -2.17732723       7.58970848
22
Lattice="5.574320535241766 -0.7396525697669415 -1.3496851451118388 -2.6312630165957454 10.433886240387427 -2.038456340738891 -4.541602827986704 -4.94606026370147 10.763581507616161" Properties=species:S:1:pos:R:3 unique_starting_index=18 config_type=initial n_minim_iter=16 stress="2.0527595708800053e-05 -4.796330648134468e-06 -7.356336144898176e-06 -4.796330648134468e-06 2.976789987433689e-05 -9.710721747785383e-06 -7.356336144898176e-06 -9.710721747785383e-06 -2.695047970615064e-06" pbc="T T T"
Si      -0.25286077       9.08684703      -0.95890848
Si      -1.54134043      -1.23495242       5.70418803
Si      -3.79174734      -3.47499905       9.56027292
Si       0.24712447      -2.75995799       8.70024872
Si      -5.63089502      -0.25238941       8.90301619
Si       4.22760588       2.02635442       0.21518693
Si       2.17470519       0.69190909       0.40317756
Si      -1.46334192       0.47888064       6.95928296
Si      -1.67953286      -3.30731864       9.39661855
Si      -2.67226767       1.09251209       5.32156539
Si       1.18006888      -0.28770052       2.53811219
Si      -2.98556050       3.57513931       5.06677950
Si      -3.45028469      -2.68806726       6.29024747
Si      -0.70991081       6.65656755      -1.08963978
Si       1.05241915       1.38534434       3.88170053
Si       1.03768708       7.63611643      -1.81452631
Si      -0.89859670      -1.25333048       3.28317014
Si       2.75310584      -4.84120476       6.39705145
Si       0.21704142       3.16205849       3.04098913
Si      -2.82589483       2.50575452       6.89487625
Si      -1.41612935       4.46697812       3.42690461
Si      -1.81796753      -2.17739198       7.58954690
22
Lattice="5.57404830660534 -0.7398475257148049 -1.3492271483874907 -2.6317472043351056 10.433800131537101 -2.0387412503771047 -4.540335312677813 -4.945818264038599 10.763400883495134" Properties=species:S:1:pos:R:3 unique_starting_index=18 config_type=initial n_minim_iter=17 stress="1.6569101327919806e-05 7.126611711884696e-06 6.646364493487503e-07 7.126611711884696e-06 1.3066375363186448e-05 -2.2658214145936942e-06 6.646364493487503e-07 -2.2658214145936942e-06 2.810323678640179e-05" pbc="T T T"
Si      -0.25351591       9.08665557      -0.95918703
Si      -1.54117908      -1.23483710       5.70420166
Si      -3.79033682      -3.47460780       9.55988454
Si       0.24854083      -2.75953552       8.70030747
Si      -5.63027567      -0.25191977       8.90267967
Si       4.22768882       2.02606005       0.21539807
Si       2.17461854       0.69179732       0.40334225
Si      -1.46293901       0.47913262       6.95931577
Si      -1.67801327      -3.30751584       9.39655126
Si      -2.67192722       1.09246787       5.32173305
Si       1.18033611      -0.28793376       2.53850144
Si      -2.98487900       3.57514973       5.06665673
Si      -3.44984381      -2.68810429       6.29027290
Si      -0.71039527       6.65665280      -1.08963075
Si       1.05260527       1.38531098       3.88183228
Si       1.03725108       7.63591533      -1.81451133
Si      -0.89847052      -1.25328301       3.28319702
Si       2.75394426      -4.84146679       6.39725186
Si       0.21729697       3.16176438       3.04111511
Si      -2.82533780       2.50588146       6.89483595
Si      -1.41585624       4.46690312       3.42672038
Si      -1.81743366      -2.17720019       7.58966051
22
Lattice="5.573896254770664 -0.7401996101475301 -1.3487515011629256 -2.632527984808101 10.434076230441322 -2.0389744536390686 -4.539077699495614 -4.945630810636978 10.762897876433632" Properties=species:S:1:pos:R:3 unique_starting_index=18 config_type=initial n_minim_iter=18 stress="1.0676806556941935e-07 1.1919330399398564e-05 9.281089650909685e-06 1.1919330399398564e-05 2.568863421985611e-05 -1.9410181407043333e-05 9.281089650909685e-06 -1.9410181407043333e-05 -5.495380390000568e-06" pbc="T T T"
Si      -0.25434915       9.08673905      -0.95946570
Si      -1.54102969      -1.23463275       5.70411050
Si      -3.78889753      -3.47419445       9.55911131
Si       0.25005923      -2.75932392       8.70014935
Si      -5.62985163      -0.25138299       8.90199264
Si       4.22779459       2.02572438       0.21556162
Si       2.17458850       0.69160407       0.40350267
Si      -1.46265121       0.47935855       6.95913465
Si      -1.67650081      -3.30782385       9.39612611
Si      -2.67169568       1.09250514       5.32162034
Si       1.18053350      -0.28819630       2.53874578
Si      -2.98439942       3.57524153       5.06638076
Si      -3.44943115      -2.68813028       6.29016746
Si      -0.71113605       6.65697199      -1.08951174
Si       1.05280244       1.38524010       3.88187448
Si       1.03669196       7.63602081      -1.81445390