22
Lattice="5.430463401463371 0.5570776640475821 0.07187995575715954 3.3738309363946186 5.693018336548357 0.2642867633796448 1.1677889441993596 1.0772931793489875 16.083656979682377" Properties=species:S:1:pos:R:3 unique_starting_index=40 config_type=initial n_minim_iter=1 energy=-3581.910686690249 free_energy=-3581.910686690249 pbc="T T T"
Si       6.92620772       2.84147768      12.61629052
Si       1.58682553       2.68829368       4.37233599
Si       5.16067553       1.09837507       7.24868803
Si       4.27621562       4.32158690      13.66392182
Si       4.49950864       2.84229271      15.17232011
Si       6.53087917       6.28627120       6.91241032
Si       6.11829628       2.72189203       2.09522235
Si       5.59833800       5.37167016      10.22627513
Si       4.73783687       2.72780993       0.35071007
Si       5.80015223       5.27950155      14.89863398
Si       5.27574598       3.12823030      11.11294104
Si       4.03237188       4.78179330      11.57199669
Si       2.56000109       2.83475414       0.79693031
Si       1.63466317       0.64145270       8.13650071
Si       3.11829689       1.30064469      15.68804597
Si       7.12870466       6.17541391       8.96662146
Si       3.78338552       3.08761259       4.23429887
Si       4.64076380       6.79251427       6.09178360
Si       5.39629454       4.25072924       3.41788615
Si       5.30359040       1.96968746       9.20304940
Si       6.51313055       2.17121751      14.91170542
Si       4.60865564       1.34132915       5.20945983
22
Lattice="5.428494819693817 0.5580625555697858 0.05241991840412631 3.3722147627349868 5.70050981439036 0.24238288325521223 1.1131080824498456 1.0503839613999968 16.051749698811186" Properties=species:S:1:pos:R:3 unique_starting_index=40 config_type=initial n_minim_iter=2 stress="-0.002789039575618847 4.694068965945616e-05 -0.006018208873784218 4.694068965945616e-05 -0.0022163943134062246 -0.001980677040886936 -0.006018208873784218 -0.001980677040886936 -0.0003673008374012996" pbc="T T T"
Si       6.88149825       2.82343417      12.56748804
Si       1.57112347       2.68451824       4.35469834
Si       5.13488715       1.08765392       7.21810078
Si       4.22925461       4.30420913      13.61935013
Si       4.44667804       2.81955555      15.12784762
Si       6.50658330       6.28320039       6.86860392
Si       6.10920505       2.72261180       2.06638241
Si       5.56172439       5.36147933      10.18134527
Si       4.73593936       2.73111921       0.33015133
Si       5.74768375       5.26057555      14.84492366
Si       5.23704258       3.11277236      11.07131309
Si       3.99237075       4.76847862      11.53100113
Si       2.55635237       2.83704559       0.78171614
Si       1.60625593       0.62788577       8.11591162
Si       3.06417961       1.27496113      15.65006520
Si       7.09559202       6.16839524       8.91763264
Si       3.76821107       3.08461134       4.20932144
Si       4.61905762       6.79163492       6.05363724
Si       5.38375391       4.25051752       3.38660455
Si       5.27118113       1.95583506       9.16646102
Si       6.46130494       2.14791672      14.86165637
Si       4.58956792       1.33389393       5.18326422
22
Lattice="5.438718047571547 0.5603952178955028 0.05314361613910518 3.378890920710436 5.722113134632429 0.2378369272689143 1.1193261777050214 1.0408353780503423 16.0189645315338" Properties=species:S:1:pos:R:3 unique_starting_index=40 config_type=initial n_minim_iter=3 stress="0.014482462432573895 0.0008684892720607225 -0.0020071979737013553 0.0008684892720607225 0.009564102983848681 -0.003103392433807755 -0.0020071979737013553 -0.003103392433807755 0.00424639968924871" pbc="T T T"
Si       6.89784391       2.82363394      12.54196827
Si       1.57293281       2.69171819       4.34246439
Si       5.14751768       1.08682438       7.20534231
Si       4.24219544       4.31120333      13.58850246
Si       4.45599752       2.81637166      15.09590914
Si       6.52381432       6.30207445       6.85356206
Si       6.12073577       2.73286498       2.06163963
Si       5.57266533       5.37436924      10.15822328
Si       4.74903493       2.74248198       0.33253667
Si       5.76010278       5.26674104      14.80981404
Si       5.25075691       3.11464506      11.04678605
Si       4.00431245       4.77800806      11.50346650
Si       2.56016155       2.84595006       0.77736355
Si       1.61184467       0.62303219       8.09647038
Si       3.07414724       1.26831941      15.61970328
Si       7.10832069       6.18456208       8.89886080
Si       3.77733534       3.09324631       4.19958503
Si       4.62724540       6.81396861       6.03512110
Si       5.39667909       4.26275170       3.37764983
Si       5.28485194       1.95357743       9.14732388
Si       6.47943911       2.14259230      14.83143440
Si       4.59869300       1.33343005       5.17247677
22
Lattice="5.428698716578736 0.5596880688541435 0.05418937379101569 3.372009920357215 5.721703045352852 0.23842834029263613 1.1204105359585068 1.0416602046319983 15.991269415454491" Properties=species:S:1:pos:R:3 unique_starting_index=40 config_type=initial n_minim_iter=4 stress="-0.003523829192321856 -0.0008900213958604672 0.0009582536681309601 -0.0008900213958604672 0.005585495768614095 -0.0012782411312525664 0.0009582536681309601 -0.0012782411312525664 -0.010564433366759805" pbc="T T T"
Si       6.88748736       2.82337968      12.52187451
Si       1.56924279       2.69211604       4.33445027
Si       5.13993234       1.08699615       7.19463126
Si       4.23740679       4.31237702      13.56556551
Si       4.44920970       2.81625918      15.07049687
Si       6.51382724       6.30206922       6.84440972
Si       6.10930810       2.73300066       2.05960023
Si       5.56247779       5.37480246      10.14215126
Si       4.74197762       2.74237543       0.33504593
Si       5.75065941       5.26617029      14.78443658
Si       5.24327739       3.11450470      11.02827394
Si       3.99968738       4.77844805      11.48356478
Si       2.55448213       2.84490474       0.77613662
Si       1.61079054       0.62303618       8.08105820
Si       3.07161053       1.26963971      15.59370539
Si       7.09467717       6.18423077       8.88665213
Si       3.77137107       3.09317481       4.19344946
Si       4.61802629       6.81447977       6.02514268
Si       5.38790871       4.26149825       3.37320290
Si       5.27757946       1.95223088       9.13247972
Si       6.47140846       2.14201071      14.80690971
Si       4.59058537       1.33239424       5.16409914
22
Lattice="5.421133987436035 0.5596362604583084 0.04755611765108603 3.36889623552224 5.7026793068682915 0.2375422265863508 1.0980208319281568 1.0457923661299866 16.042851210260604" Properties=species:S:1:pos:R:3 unique_starting_index=40 config_type=initial n_minim_iter=5 stress="-0.006322010536063954 0.0026611838669438064 -0.0012301229749033078 0.0026611838669438064 0.0016422058719014342 -0.002163185881947404 -0.0012301229749033078 -0.002163185881947404 0.0029479153127899317" pbc="T T T"
Si       6.86244530       2.82128168      12.55606362
Si       1.55874848       2.68586732       4.34560414
Si       5.12369712       1.08866753       7.21406169
Si       4.21686349       4.30657108      13.60636269
Si       4.42202320       2.81479851      15.11546295
Si       6.50062989       6.28644882       6.86245038
Si       6.09839018       2.72844686       2.06017629
Si       5.53944779       5.36368037      10.17145047
Si       4.73961920       2.73529068       0.33492942
Si       5.72202942       5.25499874      14.82652254
Si       5.22254069       3.11085956      11.05809852
Si       3.98329246       4.76809918      11.51582479
Si       2.54859827       2.83411581       0.77541465
Si       1.59892893       0.62451555       8.10255831
Si       3.04681761       1.27459860      15.64267257
Si       7.07153886       6.16924498       8.91419025
Si       3.76286162       3.08576661       4.20458033
Si       4.60440147       6.79662551       6.04018971
Si       5.37969495       4.24802808       3.37970100
Si       5.26079588       1.94851969       9.15741786
Si       6.44588953       2.14202781      14.84809854
Si       4.57589827       1.32989702       5.17379439
22
Lattice="5.429467914769724 0.5510280785888273 0.04398499484250461 3.3669010307892515 5.682484188811745 0.241048901213592 1.0863392312692979 1.0589562519099676 16.030681147264644" Properties=species:S:1:pos:R:3 unique_starting_index=40 config_type=initial n_minim_iter=6 stress="-0.00040365334679000916 0.0006248394688946926 -0.002644364629766582 0.0006248394688946926 -0.0037419714938619064 0.0021720676121960675 -0.002644364629766582 0.0021720676121960675 -0.004054681174697093" pbc="T T T"
Si       6.86101159       2.81786719      12.54469791
Si       1.55233036       2.68139220       4.34239912
Si       5.12424998       1.08696475       7.20594473
Si       4.20922728       4.30476690      13.59695184
Si       4.41488298       2.81908340      15.10405985
Si       6.49928636       6.26880088       6.85931108
Si       6.10344533       2.71637398       2.05729274
Si       5.53134502       5.35356369      10.16546627
Si       4.74512000       2.72174805       0.33507196
Si       5.71189387       5.24827733      14.81614713
Si       5.21950997       3.10701226      11.04789035
Si       3.97635740       4.76247316      11.50775631
Si       2.54693044       2.82210267       0.77493480
Si       1.59638565       0.62905156       8.09402096
Si       3.03770122       1.28406309      15.63026937
Si       7.06697260       6.15306963       8.91138768
Si       3.76278185       3.07701688       4.20239370
Si       4.59780451       6.77922144       6.03863941
Si       5.38199480       4.23184091       3.37793910
Si       5.26176347       1.94406334       9.14942932
Si       6.44412914       2.14281578      14.83398646
Si       4.57678030       1.32430058       5.16702294
22
Lattice="5.426786779125789 0.5383932181852307 0.046410160704128005 3.3535123339023025 5.669120433280213 0.2384922364638465 1.0918882841395325 1.0422378729967074 16.050750626598926" Properties=species:S:1:pos:R:3 unique_starting_index=40 config_type=initial n_minim_iter=7 stress="-0.0047598538979656225 -0.005524385816114882 0.000726856870111374 -0.005524385816114882 -0.00234549597407221 -0.004133688654457847 0.000726856870111374 -0.004133688654457847 -0.0008652901720830504" pbc="T T T"
Si       6.85981243       2.78905193      12.56295096
Si       1.54478087       2.67234416       4.34361192
Si       5.12188462       1.06878791       7.21660833
Si       4.20741124       4.28221660      13.61126999
Si       4.41874452       2.79716756      15.12571005
Si       6.48720899       6.24458561       6.86629025
Si       6.09712771       2.70060784       2.06156806
Si       5.51850383       5.32959318      10.17750606
Si       4.73936840       2.70732441       0.33672566
Si       5.70347398       5.21727459      14.83346794
Si       5.21823860       3.08230345      11.06012838
Si       3.97245429       4.74012967      11.51858779
Si       2.53744663       2.80983888       0.77277014
Si       1.60205599       0.61761233       8.10115440
Si       3.04008914       1.26224471      15.65224957
Si       7.05412457       6.12556759       8.92571683
Si       3.75815617       3.06269106       4.20817584
Si       4.58342286       6.75854970       6.04316794
Si       5.37497337       4.21192787       3.38209172
Si       5.26409914       1.91887245       9.16446616
Si       6.44697317       2.11262579      14.85466468
Si       4.57343105       1.30537859       5.17393034
22
Lattice="5.4265278734231615 0.5483913356738435 0.045944555654051145 3.362718472338278 5.678572129187652 0.2477296148546255 1.0891666602665222 1.0733476983338732 16.056719114600757" Properties=species:S:1:pos:R:3 unique_starting_index=40 config_type=initial n_minim_iter=8 stress="-0.005447531123107877 0.0010479159253861867 0.0003614322593027153 0.0010479159253861867 0.00027058803647986795 0.0001315510900771262 0.0003614322593027153 0.0001315510900771262 -0.002701916577351015" pbc="T T T"
Si       6.86047379       2.82464905      12.57084619
Si       1.54447677       2.68496260       4.34562207
Si       5.11866118       1.09176531       7.21846886
Si       4.21238047       4.31861364      13.61915779
Si       4.42347570       2.83748819      15.13540546
Si       6.49320914       6.27451281       6.87683722
Si       6.10070042       2.71894466       2.06603094
Si       5.51877750       5.36343518      10.18821169
Si       4.74541470       2.71743949       0.34181391
Si       5.70423620       5.25531108      14.84560663
Si       5.22098512       3.11228372      11.06494803
Si       3.97851871       4.77032368      11.52759038
Si       2.53798015       2.81312552       0.77447483
Si       1.60353168       0.63455176       8.10028958
Si       3.03487048       1.29513710      15.66037041
Si       7.05957412       6.15991918       8.94113890
Si       3.76252619       3.07894044       4.21516869
Si       4.59210080       6.78211094       6.05681336
Si       5.38254688       4.22953663       3.38962112
Si       5.26852040       1.94037304       9.17179964
Si       6.44661540       2.15011930      14.86119613
Si       4.57150560       1.31938931       5.17593363
22
Lattice="5.440163407712477 0.5264029644607292 0.044652405861347506 3.352223458492057 5.63566127889445 0.2669248640005368 1.0783528281536587 1.121574562960227 16.102782307318613" Properties=species:S:1:pos:R:3 unique_starting_index=40 config_type=initial n_minim_iter=9 stress="0.00433011536169847 -0.0023295916787207153 0.0014497184839268285 -0.0023295916787207153 0.0026552946082905723 0.005231525899653975 0.0014497184839268285 0.005231525899653975 0.0014016706909577936" pbc="T T T"
Si       6.86543830       2.82849194      12.61676408
Si       1.53258241       2.67802919       4.35503619
Si       5.12284780       1.09815495       7.24378823
Si       4.20752739       4.33732744      13.65610697
Si       4.43040659       2.86760610      15.18804144
Si       6.48009404       6.25298039       6.90496111
Si       6.11269761       2.69831873       2.07998800
Si       5.49228659       5.36785757      10.22516188
Si       4.76457861       2.68792937       0.35972199
Si       5.68145100       5.25936040      14.90794283
Si       5.22352011       3.11505067      11.09246030
Si       3.96561335       4.76566137      11.57426211
Si       2.51852255       2.77092775       0.77102614
Si       1.59294679       0.65335311       8.11095823
Si       3.02394820       1.33324657      15.71083211
Si       7.05478455       6.14964194       8.98798004
Si       3.76078617       3.06532995       4.24171706
Si       4.57164678       6.75203661       6.10599754
Si       5.38103257       4.20730072       3.40894835
Si       5.29684460       1.91478925       9.20839849
Si       6.44943820       2.16344889      14.90719391
Si       4.57170775       1.29462188       5.19173214
22
Lattice="5.451014886161906 0.5282848919266876 0.04557277799323693 3.3636156957031385 5.610954045093474 0.2595078351902389 1.0866547015228916 1.0932244878052384 16.105742075352644" Properties=species:S:1:pos:R:3 unique_starting_index=40 config_type=initial n_minim_iter=10 stress="0.011857357919062374 0.00342447611453728 0.005952862049475413 0.00342447611453728 -0.003941997937751993 -0.0020764431578508165 0.005952862049475413 -0.0020764431578508165 -0.0026367162036115112" pbc="T T T"
Si       6.88640489       2.80135643      12.62074544
Si       1.53905086       2.65849649       4.34867622
Si       5.13127416       1.08784216       7.24561147
Si       4.22667734       4.30166151      13.65113540
Si       4.45125205       2.83742646      15.19036522
Si       6.49803730       6.22237758       6.89941602
Si       6.12969436       2.69111333       2.08016212
Si       5.50485917       5.33960329      10.21788869
Si       4.78192793       2.67836460       0.36162101
Si       5.69710116       5.21745771      14.90871400
Si       5.24131749       3.08837135      11.08841161
Si       3.98070078       4.72497524      11.57151452
Si       2.51978787       2.74947787       0.76135050
Si       1.59920043       0.63910391       8.10768961
Si       3.03554964       1.30773103      15.71614708
Si       7.07519264       6.11937959       8.98275616
Si       3.77193473       3.04763860       4.24225206
Si       4.58533036       6.71594372       6.10228107
Si       5.39542930       4.19059983       3.40341887
Si       5.32382279       1.88417825       9.21449280
Si       6.46792291       2.13420632      14.91127958
Si       4.58264754       1.27636922       5.19334567
22
Lattice="5.451003258716793 0.5128264948785534 0.033932762070421896 3.3502050498093108 5.577501494234356 0.26425493868026234 1.0454678795260202 1.118156815413779 16.1877323763375" Properties=species:S:1:pos:R:3 unique_starting_index=40 config_type=initial n_minim_iter=11 stress="0.01425361493557666 0.0025893484476221377 0.0037894751474744186 0.0025893484476221377 -0.0016489096286130237 0.0014859704194504358 0.0037894751474744186 0.0014859704194504358 0.0047454346966777205" pbc="T T T"
Si       6.85363968       2.79650305      12.68045031
Si       1.52327129       2.64762981       4.36449412
Si       5.10067114       1.08809739       7.26983210
Si       4.19065089       4.30146590      13.71437195
Si       4.41937836       2.84869396      15.26379436
Si       6.46395448       6.20079626       6.93485616
Si       6.12520331       2.67572032       2.08557261
Si       5.45647087       5.34082318      10.25988619
Si       4.78707274       2.65478291       0.36669838
Si       5.63944279       5.21097001      14.98810110
Si       5.21283492       3.08350533      11.12997975
Si       3.94003049       4.70961036      11.63064736
Si       2.49840482       2.71282018       0.75173227
Si       1.58019728       0.64790131       8.13564414
Si       2.99675981       1.33310851      15.79701348
Si       7.03469956       6.10649693       9.02109543
Si       3.75470941       3.03337623       4.26739743
Si       4.54817675       6.69019912       6.14313735
Si       5.37597832       4.17526334       3.41285342
Si       5.32596780       1.85547100       9.26544679
Si       6.42638637       2.13450499      14.97955758
Si       4.56839987       1.25267561       5.21377712
22
Lattice="5.464393396745513 0.48779019968437165 0.01474257761846773 3.335879105615946 5.533451571369153 0.2629751150134139 0.9835223781870973 1.13568595128335 16.280174960282558" Properties=species:S:1:pos:R:3 unique_starting_index=40 config_type=initial n_minim_iter=12 stress="0.016358378450470053 0.002368528725845874 0.0034102118194027898 0.002368528725845874 -0.003746994772675816 -0.0017016583873904754 0.0034102118194027898 -0.0017016583873904754 0.008237301003208726" pbc="T T T"
Si       6.81871522       2.77405843      12.74474155
Si       1.50147276       2.62722388       4.37383497
Si       5.07609730       1.08395796       7.29590394
Si       4.14299765       4.27908822      13.78190795
Si       4.38403286       2.85356708      15.33816793
Si       6.41908754       6.16409922       6.96608937
Si       6.13422144       2.65570012       2.09305994
Si       5.38423237       5.33975546      10.30533425
Si       4.80006999       2.61984319       0.36511977
Si       5.56163226       5.18920146      15.08177077
Si       5.18132993       3.06452711      11.16492507
Si       3.89093213       4.67367814      11.68285990
Si       2.47044801       2.65016367       0.72594215
Si       1.54765159       0.65331733       8.15197190
Si       2.94775152       1.35947289      15.88931712
Si       6.97720738       6.08406580       9.04863150
Si       3.73719354       3.00692457       4.29527780
Si       4.49372302       6.65425178       6.18598839
Si       5.35959116       4.15193626       3.41135821
Si       5.35522321       1.78897821       9.32870920
Si       6.37435726       2.11354505      15.05289615
Si       4.55999406       1.20723112       5.22784244
22
Lattice="5.463321156031468 0.46198051890571495 -0.007138222605970923 3.308027985685858 5.524432302885585 0.2620509323534255 0.9094074002920168 1.1669364464345606 16.337071113200064" Properties=species:S:1:pos:R:3 unique_starting_index=40 config_type=initial n_minim_iter=13 stress="0.013157357947431045 -0.0006496831527753264 0.006521776612193633 -0.0006496831527753264 0.004275440616267407 0.0014766694859770066 0.006521776612193633 0.0014766694859770066 0.011449093403133968" pbc="T T T"
Si       6.75608268       2.77132286      12.77872636
Si       1.46916788       2.62562414       4.37481349
Si       5.02357562       1.08676251       7.31006817
Si       4.07024677       4.28971320      13.81157283
Si       4.32169510       2.87048618      15.37459469
Si       6.35075674       6.16590942       6.97200832
Si       6.12224533       2.65180026       2.09760641
Si       5.28370622       5.37788387      10.32834902
Si       4.79807290       2.60181317       0.36641574
Si       5.46000776       5.21244445      15.14890620
Si       5.12710326       3.06805406      11.17515862
Si       3.82684724       4.67013683      11.70652660
Si       2.43718032       2.60293545       0.69989205
Si       1.51307144       0.66286196       8.15621536
Si       2.88213368       1.40020770      15.94239900
Si       6.89184706       6.10173748       9.05210180
Si       3.70701564       2.99829231       4.31205832
Si       4.42439159       6.66530864       6.21236270
Si       5.32773750       4.14957042       3.40106746
Si       5.36052913       1.73276469       9.37386178
Si       6.29587017       2.10760844      15.09139527
Si       4.53577965       1.17054933       5.22982580
22
Lattice="5.462824216229105 0.4392747782057482 -0.04093037268341876 3.2851076509596253 5.498730578593894 0.2469464212535873 0.8031703954960432 1.1752352106272173 16.389251159343996" Properties=species:S:1:pos:R:3 unique_starting_index=40 config_type=initial n_minim_iter=14 stress="0.009976897710059007 -0.003053590405137303 -0.0020525108698768143 -0.003053590405137303 0.0016880399618647353 -7.848546740044378e-07 -0.0020525108698768143 -7.848546740044378e-07 0.015088633780589097" pbc="T T T"
Si       6.66884321       2.75038283      12.79401320
Si       1.42991836       2.61037128       4.37107881
Si       4.96779295       1.08651282       7.30428081
Si       3.97623405       4.27490873      13.82517827
Si       4.22808719       2.86047474      15.39505987
Si       6.27517283       6.14005763       6.94629166
Si       6.10824668       2.64203601       2.08740770
Si       5.17061178       5.39285469      10.33140220
Si       4.79336536       2.57949546       0.35672606
Si       5.32873205       5.20529660      15.19692027
Si       5.05444619       3.05077401      11.16995458
Si       3.74106585       4.63867199      11.71759516
Si       2.41073551       2.54515202       0.66532474
Si       1.47049838       0.65991639       8.14736262
Si       2.78341869       1.42096856      15.98617775
Si       6.79308358       6.09260886       9.03748532
Si       3.67244141       2.97571099       4.31481486
Si       4.33913328       6.65134242       6.22422913
Si       5.29511727       4.13129943       3.37461162
Si       5.33984974       1.66263401       9.41435509
Si       6.19165892       2.07971085      15.11297937
Si       4.50222748       1.12822125       5.22442989
22
Lattice="5.452634190465665 0.4355848001231096 -0.06152435399398495 3.2734090237386306 5.504599426617873 0.23902083357393936 0.7376698061005643 1.1902065459759354 16.392824312210873" Properties=species:S:1:pos:R:3 unique_starting_index=40 config_type=initial n_minim_iter=15 stress="-0.006608289693671083 0.0007134191950815869 -0.0010705572358816755 0.0007134191950815869 -0.0013904393301203495 -0.0010219045684184687 -0.0010705572358816755 -0.0010219045684184687 0.003962127472420593" pbc="T T T"
Si       6.60517721       2.76205596      12.78481696
Si       1.40635459       2.60777842       4.36304796
Si       4.91478901       1.10524640       7.29967225
Si       3.92420350       4.28920307      13.81187215
Si       4.17208232       2.87940727      15.37373635
Si       6.22974426       6.15247620       6.90804473
Si       6.09709861       2.65789479       2.08207838
Si       5.09050188       5.44315229      10.31813366
Si       4.77822869       2.58120946       0.35586596
Si       5.23423856       5.23317342      15.20700350
Si       5.00863127       3.06016703      11.14369937
Si       3.68909012       4.63951432      11.69943271
Si       2.39545679       2.50559513       0.63846782
Si       1.43976105       0.66746957       8.11870740
Si       2.71582925       1.45441166      15.98905347
Si       6.73181453       6.12774728       9.00983906
Si       3.65125450       2.97382193       4.31006391
Si       4.28271510       6.68245213       6.21955066
Si       5.27203994       4.14684700       3.35406653
Si       5.33342452       1.61321194       9.43733584
Si       6.12177818       2.07747739      15.10219348
Si       4.47353493       1.10825299       5.21143056
22
Lattice="5.452941937669907 0.42670818012281087 -0.08918396917860673 3.2619966738543216 5.515132920281787 0.22928002017009483 0.6520900454184558 1.2151368781654543 16.348006892471606" Properties=species:S:1:pos:R:3 unique_starting_index=40 config_type=initial n_minim_iter=16 stress="-0.012807156645077006 -0.00012301127652834492 -0.002664577632294966 -0.00012301127652834492 0.0002785193285099222 0.0035579086304045157 -0.002664577632294966 0.0035579086304045157 0.004685514418135603" pbc="T T T"
Si       6.53385093       2.78023467      12.73469054
Si       1.37514154       2.60530703       4.34469255
Si       4.85732379       1.13571003       7.26773414
Si       3.86342532       4.32126881      13.74401369
Si       4.10777279       2.89645971      15.29520058
Si       6.17264142       6.16684921       6.83524817
Si       6.10142167       2.67306971       2.06409665
Si       4.99409251       5.51863107      10.26952856
Si       4.75718899       2.58309491       0.35325440
Si       5.11568229       5.28009173      15.18205951
Si       4.95713575       3.07904549      11.07578880
Si       3.62972570       4.64269002      11.63482710
Si       2.37909990       2.45296280       0.61405325
Si       1.39997076       0.68325016       8.05228471
Si       2.63057786       1.50398797      15.94126253
Si       6.66288305       6.17627604       8.95625667
Si       3.63175162       2.96666248       4.28847380
Si       4.21693572       6.73374922       6.19694833
Si       5.25233654       4.17187777       3.32245394
Si       5.34277033       1.53496479       9.44288945
Si       6.05138588       2.07137501      15.04129678
Si       4.44854072       1.08410061       5.17528515
22
Lattice="5.449171367025615 0.43778808546704706 -0.09811152574133929 3.265928068403847 5.564785174669102 0.21520022949062792 0.6299786327972746 1.2055284958030605 16.200165267219216" Properties=species:S:1:pos:R:3 unique_starting_index=40 config_type=initial n_minim_iter=17 stress="-0.02081626102496957 0.0041104021601488915 0.0015332652364110607 0.0041104021601488915 -0.002295138182940847 0.0033690970654830467 0.0015332652364110607 0.0033690970654830467 -0.014704370008368908" pbc="T T T"
Si       6.50870151       2.80292441      12.61485971
Si       1.36693369       2.61389822       4.30966909
Si       4.83340150       1.16581722       7.20236607
Si       3.85920722       4.35337203      13.60304814
Si       4.08507006       2.89579898      15.13033792
Si       6.15709278       6.20216188       6.72374600
Si       6.11144629       2.70556599       2.03824515
Si       4.97540016       5.59196197      10.15882731
Si       4.72451643       2.61452720       0.35122044
Si       5.07408694       5.32878005      15.05756062
Si       4.95096999       3.09876144      10.95540682
Si       3.61584328       4.66442703      11.49966821
Si       2.39329846       2.43769533       0.60049951
Si       1.38488058       0.69055143       7.95501510
Si       2.60533073       1.52143613      15.79169725
Si       6.65063655       6.23840707       8.86906837
Si       3.63317898       2.97139794       4.23540843
Si       4.20841825       6.81521175       6.12484506
Si       5.25663047       4.21659578       3.28309796
Si       5.34858117       1.48243961       9.39381966
Si       6.03990499       2.06171989      14.89888975
Si       4.44414273       1.08951261       5.11266480
22
Lattice="5.445516841126076 0.46122285204853164 -0.09146421255563643 3.2818398308382206 5.632667296158036 0.19597015349387428 0.6610186122271376 1.158126680077255 16.001730599609058" Properties=species:S:1:pos:R:3 unique_starting_index=40 config_type=initial n_minim_iter=18 stress="-0.009185096210333515 -0.0004576730437779213 0.0007823037226300948 -0.0004576730437779213 -0.0017264649251447415 0.006596675299896504 0.0007823037226300948 0.006596675299896504 -0.020968253287756443" pbc="T T T"
Si       6.52576702       2.81315333      12.46010362
Si       1.38038847       2.62968994       4.26813856
Si       4.84404969       1.18061375       7.12534127
Si       3.89662000       4.36701820      13.43198123
Si       4.11021799       2.86174750      14.91581850
Si       6.18489771       6.23421344       6.60660169
Si       6.12364066       2.73585671       2.00486927
Si       5.03180442       5.62199106      10.02679066
Si       4.68949619       2.66071691       0.34325594
Si       5.10834291       5.35332698      14.87051630
Si       4.97601356       3.10842741      10.82273215
Si       3.64676929       4.68739786      11.33326811
Si       2.42480706       2.47157005       0.61639248
Si       1.39509716       0.68361751       7.85713886
Si       2.62799122       1.48868107      15.59212442
Si       6.69356045       6.28163378       8.76129326
Si       3.65113460       2.98056189       4.16369209
Si       4.24383435       6.89094666       6.02196365
Si       5.27937631       4.25951671       3.24418204