16
Lattice="7.855669483199656 0.08850155610888083 -1.3004099987958002 1.16374546525286 7.187618534707459 -0.8129228507066514 0.20837885044707588 0.8303650538762628 7.323627842469108" Properties=species:S:1:pos:R:3 unique_starting_index=30 config_type=initial n_minim_iter=1 energy=-2598.0752206457137 free_energy=-2598.0752206457137 pbc="T T T"
Si       4.29902138       5.91347123       2.68554318
Si       4.92877242       2.19301392       2.52475182
Si       3.29704394       3.51198700       1.41683946
Si       5.93074986       4.59449814       3.79345553
Si       5.45371135       2.63957913       4.64353030
Si       3.77408245       5.46690602       0.56676470
Si       5.27792511       4.41806529      -1.04644099
Si       3.94986869       3.68841985       6.25673599
Si       2.00764407       3.91027101       3.09199204
Si       7.22014973       4.19621413       2.11830295
Si       8.56371524       5.59722927       1.25172637
Si       0.66407856       2.50925588       3.95856863
Si       2.56553555       1.76757868       2.79181826
Si       6.66225824       6.33890646       2.41847673
Si       5.75855124       6.54843739      -0.36656061
Si       3.46924255       1.55804775       5.57685560
16
Lattice="7.867064981327464 0.0654994512340324 -1.245153155133707 1.138902629680812 7.143043208638659 -0.8145482181419389 0.24037650484783984 0.8055877899066952 7.216903943996279" Properties=species:S:1:pos:R:3 unique_starting_index=30 config_type=initial n_minim_iter=2 stress="-0.017128805031330054 -0.008795751396450587 0.011530978790244525 -0.008795751396450587 -0.012688242191199423 0.007474079338254794 0.011530978790244525 0.007474079338254794 -0.01013024423288335" pbc="T T T"
Si       4.30384621       5.86048296       2.65526135
Si       4.94249791       2.15364749       2.50194122
Si       3.30194815       3.47649340       1.39839367
Si       5.94439596       4.53763705       3.75880890
Si       5.48047276       2.59154688       4.59826442
Si       3.76587135       5.42258357       0.55893815
Si       5.26536405       4.37276969      -1.02536066
Si       3.98098006       3.64136076       6.18256323
Si       2.00680835       3.87295267       3.04885197
Si       7.23953577       4.14117778       2.10835060
Si       8.57175660       5.53376716       1.25681801
Si       0.67458752       2.48036329       3.90038456
Si       2.57994103       1.73841877       2.76211539
Si       6.66640308       6.27571168       2.39508719
Si       5.74382772       6.49700429      -0.35245578
Si       3.50251639       1.51712616       5.50965835
16
Lattice="8.055222343711609 0.06956370692519388 -1.172393189173386 1.1505684001665772 7.107305868269684 -0.8918713169662512 0.2703263813720915 0.6876683985407644 6.947289389958939" Properties=species:S:1:pos:R:3 unique_starting_index=30 config_type=initial n_minim_iter=3 stress="-0.001402442564963843 -0.012492042488327006 0.0077129675352433525 -0.012492042488327006 0.002235946415409645 -0.000976464940452833 0.0077129675352433525 -0.000976464940452833 -0.01797421115138097" pbc="T T T"
Si       4.41529373       5.78529619       2.49853681
Si       5.06082339       2.07924178       2.38448807
Si       3.39139520       3.42633550       1.29059734
Si       6.08472193       4.43820248       3.59242754
Si       5.63133780       2.48540816       4.42560480
Si       3.84477932       5.37912981       0.45742008
Si       5.36310025       4.33519717      -1.06165396
Si       4.11301687       3.52934081       5.94467885
Si       2.03533211       3.80340919       2.89410158
Si       7.44078501       4.06112878       1.98892330
Si       8.78430609       5.47064286       1.14794903
Si       0.69181103       2.39389511       3.73507586
Si       2.65480001       1.66831096       2.65740255
Si       6.82131711       6.19622701       2.22562234
Si       5.85451514       6.46978394      -0.42320744
Si       3.62160198       1.39475404       5.30623232
16
Lattice="8.112588265461122 0.12196758277475958 -1.1477872568889391 1.2017643587634534 7.020748662303451 -0.9140932268719337 0.2867024218592554 0.6442160724572131 6.862028803022948" Properties=species:S:1:pos:R:3 unique_starting_index=30 config_type=initial n_minim_iter=4 stress="-0.01815195546803993 -0.004342346921916049 -0.005167915267496505 -0.004342346921916049 -0.0271472139715395 0.00451384361512009 -0.005167915267496505 0.00451384361512009 -0.017747735008188853" pbc="T T T"
Si       4.49373042       5.72668923       2.45724010
Si       5.10732463       2.06024309       2.34290822
Si       3.44721542       3.39331154       1.25180996
Si       6.15383962       4.39362077       3.54833836
Si       5.69853760       2.45873815       4.37897323
Si       3.90251745       5.32819417       0.42117509
Si       5.41588059       4.30412711      -1.07910003
Si       4.18517446       3.48280520       5.87924835
Si       2.05767107       3.75378094       2.84869362
Si       7.54338397       4.03315138       1.95145470
Si       8.89125220       5.44443400       1.11430643
Si       0.70980285       2.34249832       3.68584189
Si       2.69274251       1.64013832       2.62939267
Si       6.90831254       6.14679400       2.17075565
Si       5.92546196       6.42986250      -0.44457251
Si       3.67559309       1.35706982       5.24472083
16
Lattice="8.258813430846814 0.2063543789082668 -0.9797510109344284 1.279614575176598 7.012154700797226 -0.9366272574238955 0.4486046845439025 0.5907347879862268 6.812767784937257" Properties=species:S:1:pos:R:3 unique_starting_index=30 config_type=initial n_minim_iter=5 stress="0.008268881478683 0.0040513523340853395 -0.005711839665002277 0.0040513523340853395 -0.003229521730243774 -1.1857402420058375e-05 -0.005711839665002277 -1.1857402420058375e-05 0.006496175504704916" pbc="T T T"
Si       4.71642368       5.74248416       2.50657079
Si       5.27060901       2.06675971       2.38981873
Si       3.59622112       3.40573910       1.26365237
Si       6.39081158       4.40350477       3.63273714
Si       5.94861661       2.46653918       4.46446763
Si       4.03841608       5.34270468       0.43192189
Si       5.53699994       4.33944304      -1.02898246
Si       4.45003275       3.46980083       5.92537197
Si       2.16161138       3.73964811       2.84954805
Si       7.82542131       4.06959576       2.04684147
Si       9.16649679       5.50605670       1.23044997
Si       0.82053590       2.30318716       3.66593955
Si       2.83392127       1.62493789       2.66699859
Si       7.15311142       6.18430597       2.22939092
Si       6.08463258       6.48643046      -0.37989214
Si       3.90240011       1.32281340       5.27628166
16
Lattice="8.22727966518985 0.24574827024360232 -0.924206961049387 1.2993322908956246 7.047583836281365 -0.9698987395901527 0.4905683124225296 0.5453730509866069 6.730265739762309" Properties=species:S:1:pos:R:3 unique_starting_index=30 config_type=initial n_minim_iter=6 stress="0.005697645296503877 0.0066669471940881304 -0.0057340864627022795 0.0066669471940881304 0.0010721202388239543 -0.005776243411314048 -0.0057340864627022795 -0.005776243411314048 0.0007905609663128093" pbc="T T T"
Si       4.75041953       5.76901054       2.47033276
Si       5.26676074       2.06969462       2.36582728
Si       3.61341662       3.42515216       1.23273276
Si       6.40376365       4.41355299       3.60342728
Si       5.97203806       2.46980921       4.43947824
Si       4.04514221       5.36889594       0.39668179
Si       5.52372741       4.37980444      -1.03611225
Si       4.49345286       3.45890072       5.87227229
Si       2.16693870       3.73851698       2.80453496
Si       7.85024157       4.10018818       2.03162508
Si       9.17109742       5.56127813       1.21754894
Si       0.84608285       2.27742702       3.61861109
Si       2.85708313       1.61530510       2.64964549
Si       7.16009714       6.22340006       2.18651455
Si       6.07825456       6.54358923      -0.39459354
Si       3.93892571       1.29511592       5.23075358
16
Lattice="8.20322655764348 0.21326742690662887 -0.923658122625461 1.2688857945404957 7.061000505408405 -0.9515141120106683 0.48407281796285695 0.5639617942027805 6.713795782472616" Properties=species:S:1:pos:R:3 unique_starting_index=30 config_type=initial n_minim_iter=7 stress="-0.006576399141498524 -0.014254703517596614 -0.001369611633850821 -0.014254703517596614 -0.01736499816228482 0.006135257498630476 -0.001369611633850821 0.006135257498630476 -0.0037147732806114067" pbc="T T T"
Si       4.72198130       5.78016209       2.48191446
Si       5.23420387       2.05806764       2.35670909
Si       3.59445330       3.43117231       1.22878837
Si       6.36173187       4.40705741       3.60983518
Si       5.94744716       2.47773246       4.44206903
Si       4.00873801       5.36049726       0.39655452
Si       5.48776393       4.37094731      -1.03869419
Si       4.46842124       3.46728241       5.87731774
Si       2.12740536       3.74346385       2.80970136
Si       7.82877981       4.09476588       2.02892219
Si       9.12305549       5.55999552       1.21527529
Si       0.83312968       2.27823420       3.62334825
Si       2.85189922       1.61200642       2.65615474
Si       7.10428595       6.22622331       2.18246881
Si       6.02596685       6.54365449      -0.38524774
Si       3.93021832       1.29457524       5.22387128
16
Lattice="8.06495348576768 0.2800994882768192 -0.9042918651963749 1.3158574448177744 7.141453058247114 -0.8958328219661565 0.4947730283502237 0.6227274523973346 6.652849682196008" Properties=species:S:1:pos:R:3 unique_starting_index=30 config_type=initial n_minim_iter=8 stress="0.004946150685504399 -0.00012014611342687088 -0.0030358018697906972 -0.00012014611342687088 -0.007535681153743539 0.004887395895223954 -0.0030358018697906972 0.004887395895223954 -0.01883346155039837" pbc="T T T"
Si       4.71989569       5.90818504       2.50749549
Si       5.15568827       2.13609496       2.34522950
Si       3.57351317       3.52164251       1.23778246
Si       6.30207079       4.52263749       3.61494253
Si       5.88576389       2.61567369       4.43910937
Si       3.98982007       5.42860630       0.41361562
Si       5.43880900       4.47264716      -1.01540804
Si       4.43677496       3.57163284       5.86813303
Si       2.11053758       3.80672314       2.81243664
Si       7.76504638       4.23755686       2.04028835
Si       9.02718476       5.74186686       1.22846285
Si       0.84839920       2.30241314       3.62426214
Si       2.84676330       1.66790457       2.66501276
Si       7.02882066       6.37637543       2.18771224
Si       5.97121667       6.66496086      -0.34285550
Si       3.90436729       1.37931914       5.19558050
16
Lattice="7.8993865356176824 0.28400166469234195 -0.9092535209697769 1.2932580648697205 7.209720740670083 -0.9042105449408243 0.4988777564004148 0.6294939189411946 6.730088376126267" Properties=species:S:1:pos:R:3 unique_starting_index=30 config_type=initial n_minim_iter=9 stress="0.005770346945744685 -0.0034291889742643785 -0.0006479074896876074 -0.0034291889742643785 0.024347890659121532 -0.004254232679975605 -0.0006479074896876074 -0.004254232679975605 -0.005096139578917991" pbc="T T T"
Si       4.63887633       5.96661747       2.54058095
Si       5.05264602       2.15659886       2.37604336
Si       3.50259499       3.55736002       1.26185582
Si       6.18892737       4.56585630       3.65476849
Si       5.77614530       2.65233728       4.50331240
Si       3.91537706       5.47087904       0.41331191
Si       5.32675820       4.52099465      -1.02524986
Si       4.36476416       3.60222167       5.94187417
Si       2.07104709       3.83415687       2.84561318
Si       7.62047527       4.28905945       2.07101113
Si       8.85020669       5.81412557       1.24073945
Si       0.84131566       2.30909075       3.67588486
Si       2.80511854       1.68448490       2.70719878
Si       6.88640382       6.43873143       2.20942553
Si       5.84868456       6.72487201      -0.34608478
Si       3.84283780       1.39834431       5.26270909
16
Lattice="7.912072704316293 0.3188751203905333 -0.8443773089382949 1.3168743830936682 7.101927671353926 -0.9324317033763677 0.5788312089189394 0.5862470683832022 6.820467581643387" Properties=species:S:1:pos:R:3 unique_starting_index=30 config_type=initial n_minim_iter=10 stress="-0.006662734679640944 -0.011941685861787147 0.01184496139313843 -0.011941685861787147 -0.006953004031861099 0.0021564042129903964 0.01184496139313843 0.0021564042129903964 -0.008975043923183266" pbc="T T T"
Si       4.70815990       5.87820521       2.59434076
Si       5.09961840       2.12884465       2.44931781
Si       3.53592737       3.50793186       1.30598350
Si       6.27185092       4.49911800       3.73767507
Si       5.84838783       2.62242181       4.62165762
Si       3.95939047       5.38462805       0.42200095
Si       5.33843248       4.47676278      -1.00838245
Si       4.46934582       3.53028708       6.05204102
Si       2.11960247       3.75732418       2.88189103
Si       7.68817583       4.24972568       2.16176753
Si       8.91370742       5.76676966       1.31174040
Si       0.89407088       2.24028020       3.73191817
Si       2.85793323       1.65438804       2.77653273
Si       6.94984507       6.35266182       2.26712584
Si       5.87874170       6.63587823      -0.32722569
Si       3.92903659       1.37117163       5.37088426
16
Lattice="7.987885565200342 0.4013849653590554 -0.8033332377194562 1.3973657871557712 6.992912735669876 -0.9518445236356258 0.639423072459852 0.5540702975339046 6.888322617924407" Properties=species:S:1:pos:R:3 unique_starting_index=30 config_type=initial n_minim_iter=11 stress="-0.02264055123221669 0.007452565341778155 0.02302658208222309 0.007452565341778155 -0.0067057415388483204 -0.009904972395404374 0.02302658208222309 -0.009904972395404374 -0.01650160435512218" pbc="T T T"
Si       4.83484864       5.81564556       2.62750026
Si       5.18982579       2.13272244       2.50564460
Si       3.60667664       3.46141623       1.34699469
Si       6.41799779       4.48695177       3.78615017
Si       5.94735556       2.62689746       4.72550650
Si       4.07731886       5.32147054       0.40763836
Si       5.41832054       4.46706093      -1.00299760
Si       4.60635388       3.48130707       6.13614246
Si       2.17589244       3.68806713       2.90554542
Si       7.84878198       4.26030087       2.22759943
Si       9.06899560       5.76307529       1.36002446
Si       0.95567882       2.18529271       3.77312040
Si       2.93465460       1.64259047       2.83976760
Si       7.09001982       6.30577753       2.29337726
Si       5.98489429       6.56674908      -0.32462858
Si       4.03978014       1.38161892       5.45777343
16
Lattice="8.239179621344109 0.37990237186942616 -0.8768601699540776 1.4422320160897073 6.865624578292456 -0.8415841356851557 0.5848276092526691 0.6692682558156103 6.953893630798354" Properties=species:S:1:pos:R:3 unique_starting_index=30 config_type=initial n_minim_iter=12 stress="-0.00261647264272635 0.0023261712067549106 -0.0035363222612709517 0.0023261712067549106 -0.013012589564898643 0.009795762212733103 -0.0035363222612709517 0.009795762212733103 0.012721696384854967" pbc="T T T"
Si       4.93948872       5.76969657       2.69995803
Si       5.32675052       2.14509863       2.53549130
Si       3.67886614       3.40554341       1.41354993
Si       6.58737311       4.50925180       3.82189940
Si       6.05132641       2.67229514       4.78653005
Si       4.21491284       5.24250007       0.44891927
Si       5.58065506       4.37758099      -0.99027134
Si       4.68558419       3.53721422       6.22572066
Si       2.19041965       3.67884474       2.96206074
Si       8.07581960       4.23595047       2.27338859
Si       9.32813187       5.70210486       1.39763703
Si       0.93810738       2.21269035       3.83781230
Si       3.00256463       1.66864164       2.89138811
Si       7.26367462       6.24615357       2.34406122
Si       6.14278431       6.43105464      -0.27783499
Si       4.12345493       1.48374057       5.51328432
16
Lattice="8.28121175865302 0.3764921208862201 -0.8573834690358468 1.44940542531011 6.855914751045232 -0.8055012646326464 0.6027915600799053 0.701814324172782 6.9503811029530915" Properties=species:S:1:pos:R:3 unique_starting_index=30 config_type=initial n_minim_iter=13 stress="-0.004668756147056552 -4.8014572240860615e-06 -0.0022020858436557393 -4.8014572240860615e-06 -0.012136087102421223 0.009447841035048896 -0.0022020858436557393 0.009447841035048896 0.01453333918613733" pbc="T T T"
Si       4.97430044       5.78249439       2.73057101
Si       5.35910831       2.15172681       2.55692536
Si       3.69592823       3.40483341       1.44004025
Si       6.63748051       4.52938779       3.84745612
Si       6.08231971       2.71378469       4.83393432
Si       4.25108903       5.22043651       0.45356205
Si       5.59204095       4.36952238      -0.97641656
Si       4.74136780       3.56469882       6.26391293
Si       2.18418970       3.68457641       2.97429139
Si       8.14921904       4.24964479       2.31320498
Si       9.38949964       5.72737836       1.42936220
Si       0.94390910       2.20684283       3.85813417
Si       3.04295335       1.67636489       2.92848396
Si       7.29045539       6.25785631       2.35901241
Si       6.15390915       6.41383457      -0.25133445
Si       4.17949960       1.52038662       5.53883082
16
Lattice="8.271240570733351 0.350505686377431 -0.8855579074082487 1.4206327619608783 6.844913504477943 -0.8451205405676314 0.5685960060104208 0.6612041504652386 6.917908328140877" Properties=species:S:1:pos:R:3 unique_starting_index=30 config_type=initial n_minim_iter=14 stress="-0.009279617831114258 0.004201972014601359 0.00430676814706475 0.004201972014601359 -0.008595146895717446 -0.0048274270335689805 0.00430676814706475 -0.0048274270335689805 0.001826113747246822" pbc="T T T"
Si       4.92700097       5.74480524       2.66379109
Si       5.33346837       2.11181810       2.52343879
Si       3.66237894       3.37824454       1.40578924
Si       6.59809040       4.47837880       3.78144064
Si       6.03103988       2.68780434       4.80262796
Si       4.22942946       5.16881900       0.38460192
Si       5.56514971       4.35400821      -1.04243528
Si       4.69531963       3.50261513       6.22966516
Si       2.12825397       3.64356192       2.93163430
Si       8.13221537       4.21306142       2.25559558
Si       9.35010468       5.70034880       1.34621926
Si       0.91036466       2.15627454       3.84101062
Si       3.03655596       1.64129766       2.92701267
Si       7.22391338       6.21532568       2.26021721
Si       6.09511041       6.37182494      -0.32245763
Si       4.16535892       1.48479840       5.50968751
16
Lattice="8.221756012282604 0.3245579085399525 -0.9234264910188222 1.3948590053466916 6.9003763970177605 -0.8330133117055348 0.5211098299841834 0.6814927962755205 6.870194875781267" Properties=species:S:1:pos:R:3 unique_starting_index=30 config_type=initial n_minim_iter=15 stress="0.014100955332760226 0.00016715734930976574 -0.007782929720372761 0.00016715734930976574 0.019784205558729527 -0.0068008037974533 -0.007782929720372761 -0.0068008037974533 0.012528129850777168" pbc="T T T"
Si       4.85026313       5.78867468       2.61698632
Si       5.28746172       2.11775242       2.49676876
Si       3.60580681       3.39963809       1.38739636
Si       6.53191803       4.50678902       3.72635871
Si       5.95202315       2.73360876       4.75985023
Si       4.18570170       5.17281835       0.35390484
Si       5.52459337       4.37026799      -1.09339549
Si       4.61313147       3.53615911       6.20715056
Si       2.06676074       3.66300930       2.90158180
Si       8.07096411       4.24341780       2.21217327
Si       9.27060726       5.74526330       1.28735926
Si       0.86711759       2.16116381       3.82639582
Si       3.00952342       1.64633472       2.92725989
Si       7.12820142       6.26009238       2.18649518
Si       6.01490843       6.39589843      -0.35568487
Si       4.12281641       1.51052867       5.46943994
16
Lattice="8.269209261454955 0.360749041374227 -0.9226022836018579 1.4580838081432212 6.930723175461499 -0.6909986028430565 0.515572731003184 0.8257588131876842 6.811208751069574" Properties=species:S:1:pos:R:3 unique_starting_index=30 config_type=initial n_minim_iter=16 stress="0.007219436218463811 0.005104550684989957 0.00860878384976253 0.005104550684989957 0.028597864209323084 -0.016490900701559296 0.00860878384976253 -0.016490900701559296 -0.014390097619771806" pbc="T T T"
Si       4.86961115       5.90280478       2.63087241
Si       5.37325465       2.21442625       2.56673546
Si       3.58953313       3.44514106       1.46278489
Si       6.65333267       4.67208997       3.73482298
Si       5.96205962       2.96854208       4.81569213
Si       4.28080619       5.14868895       0.38191573
Si       5.58355886       4.38775167      -1.10343856
Si       4.65930695       3.72947936       6.30104643
Si       2.03409188       3.71498759       2.90720520
Si       8.20877392       4.40224344       2.29040266
Si       9.38372109       5.91515146       1.34627874
Si       0.85914471       2.20207957       3.85132913
Si       3.07440051       1.71433619       3.02802820
Si       7.16846529       6.40289484       2.16957967
Si       6.01758795       6.40334011      -0.29234834
Si       4.22527785       1.71389092       5.48995620
16
Lattice="8.331589328889118 0.39437165257829676 -0.973338018518254 1.5194174450171485 6.8839378739481 -0.5970505823916481 0.476388720691813 0.9269671072710916 6.835656709982286" Properties=species:S:1:pos:R:3 unique_starting_index=30 config_type=initial n_minim_iter=17 stress="-0.00020888303051832323 0.004281282104354678 0.005530982551824947 0.004281282104354678 0.03235347715003969 -0.01699014301514285 0.005530982551824947 -0.01699014301514285 -0.0036970471296955926" pbc="T T T"
Si       4.89078504       5.93127475       2.64654142
Si       5.43661045       2.27400189       2.61872669
Si       3.58273585       3.44678777       1.52588509
Si       6.74465965       4.75848887       3.73938302
Si       5.96094692       3.11418961       4.87585279
Si       4.36644858       5.09108702       0.38941532
Si       5.65293788       4.36641171      -1.12979065
Si       4.67445762       3.83886492       6.39505876
Si       2.01141696       3.71264845       2.93506345
Si       8.31597853       4.49262819       2.33020466
Si       9.48429525       5.99341374       1.36208772
Si       0.84310024       2.21186290       3.90318039
Si       3.11155151       1.75874526       3.11078084
Si       7.21584398       6.44653137       2.15448727
Si       6.04719963       6.34748196      -0.27293627
Si       4.28019586       1.85779468       5.53820438
16
Lattice="8.584640851002867 0.5030067504666549 -1.0097307918572 1.6865073476393027 6.778437958887388 -0.4445091369813386 0.455927439182675 1.0762824989720616 6.817252770957495" Properties=species:S:1:pos:R:3 unique_starting_index=30 config_type=initial n_minim_iter=18 stress="0.02513394395506572 -0.0012197587459312719 -0.006579406955259774 -0.0012197587459312719 0.029813659075511645 -0.00020447706769466305 -0.006579406955259774 -0.00020447706769466305 0.01320431150446814" pbc="T T T"
Si       5.07020085       5.96268476       2.67320863
Si       5.65687479       2.39504245       2.68980421
Si       3.70207811       3.45106247       1.60891005
Si       7.02499752       4.90666474       3.75410280
Si       6.13197098       3.31707670       4.90985008
Si       4.59510465       5.04065051       0.45316276
Si       5.88708332       4.33548681      -1.08587699
Si       4.83999232       4.02224039       6.44888983
Si       2.10395843       3.70698733       2.98035533
Si       8.62311721       4.65073988       2.38265751
Si       9.85146990       6.10304500       1.43329072
Si       0.87560574       2.25468221       3.92972212
Si       3.22172308       1.84482933       3.17754646
Si       7.50535256       6.51289788       2.18546638
Si       6.29079652       6.28500498      -0.18442777
Si       4.43627912       2.07272223       5.54744061
16
Lattice="8.620890746355448 0.678763251219581 -1.0141245547172826 1.8694393019336473 6.724851718981546 -0.34970643523368256 0.47517061705832647 1.1722108224732986 6.846736062699253" Properties=species:S:1:pos:R:3 unique_starting_index=30 config_type=initial n_minim_iter=19 stress="0.0030735897887517586 0.014581018925477647 -0.0022551905063732365 0.014581018925477647 0.0006630848634405556 0.019300831144772157 -0.0022551905063732365 0.019300831144772157 0.006578049571777513" pbc="T T T"
Si       5.20019506       6.03725049       2.68990638
Si       5.76530561       2.53857531       2.79299869
Si       3.79562456       3.49399463       1.67786878
Si       7.16987611       5.08183117       3.80503629
Si       6.23297655       3.53433790       4.96940273
Si       4.73252411       5.04148789       0.51350234
Si       6.01002608       4.36700355      -1.06603557
Si       4.95547458       4.20882224       6.54894065
Si       2.17539946       3.69789137       3.04036605
Si       8.79010120       4.87793443       2.44253902
Si      10.03516147       6.31249746       1.50481354
Si       0.93033919       2.26332833       3.97809153
Si       3.28424504       1.93145007       3.27773929
Si       7.68125563       6.64437572       2.20516578
Si       6.42363287       6.30102509      -0.11112202
Si       4.54186780       2.27480071       5.59402709
16
Lattice="8.659545773258388 0.6779919066647807 -1.0305082016755598 1.8600122995153345 6.620726781857841 -0.4543117190639962 0.46270472978369986 1.0557190043074782 6.850070198160884" Properties=species:S:1:pos:R:3 unique_starting_index=30 config_type=initial n_minim_iter=20 stress="-0.002346724726284776 0.0002797114521704511 -0.0047259932248707405 0.0002797114521704511 -0.057680077993581866 -0.001444264463115722 -0.0047259932248707405 -0.001444264463115722 -0.0069382438020437155" pbc="T T T"
Si       5.19130527       5.89913843       2.56805757
Si       5.79095753       2.45529926       2.79719270
Si       3.81537241       3.40529592       1.63922662
Si       7.16689039       4.94914178       3.72602366
Si       6.25461376       3.42171113       4.91664737
Si       4.72764905       4.93272656       0.44860290
Si       6.03350878       4.29659765      -1.13738502
Si       4.94875403       4.05784004       6.50263530
Si       2.16047145       3.58570198       2.99718240
Si       8.82179135       4.76873572       2.36806788
Si      10.06597812       6.19538339       1.41221960
Si       0.91628469       2.15905431       3.95303067
Si       3.29188425       1.83632785       3.28820878
Si       7.69037856       6.51810984       2.07704150
Si       6.41555663       6.17194145      -0.19723545
Si       4.56670617       2.18249624       5.56248573
16
Lattice="8.57996518585689 0.6481381506542876 -1.0161509631295764 1.8085521873644492 6.64469097538509 -0.5183472765077567 0.47136938607117634 0.9902145305944153 6.848912704143771" Properties=species:S:1:pos:R:3 unique_starting_index=30 config_type=initial n_minim_iter=21 stress="-0.007890897884881844 -0.010810422662149854 0.0013823679460927454 -0.010810422662149854 -0.048738982974716 0.0053670390273995745 0.0013823679460927454 0.0053670390273995745 -0.008122146577113855" pbc="T T T"
Si       5.13222575       5.87496890       2.52632672
Si       5.72766101       2.40807476       2.78808774
Si       3.79516830       3.39647672       1.61072728
Si       7.06471846       4.88656694       3.70368718
Si       6.20983337       3.34112187       4.87262332
Si       4.65005339       4.94192179       0.44179115
Si       5.96315436       4.29933971      -1.13578979
Si       4.89673240       3.98370394       6.45020425
Si       2.14531729       3.57867625       2.97883747
Si       8.71456947       4.70436741       2.33557700
Si       9.95119145       6.14443691       1.38517301
Si       0.90869531       2.13860675       3.92924145
Si       3.25277666       1.78816562       3.26493824
Si       7.60711010       6.49487804       2.04947622
Si       6.34560489       6.17732151      -0.21853853
Si       4.51428187       2.10572215       5.53295299
