22
Lattice="5.55472986764912 -0.7502987454824619 -1.4166668994956868 -2.6025480769620906 10.392048455647432 -1.9626318388238086 -4.64852660719671 -4.890072012286669 10.737608563427619" Properties=species:S:1:pos:R:3 unique_starting_index=18 config_type=initial n_minim_iter=1 energy=-3583.1513297555875 free_energy=-3583.1513297555875 pbc="T T T"
Si      -0.12925013       8.96276341      -0.92753571
Si      -1.37431292      -1.10724690       5.60516457
Si      -4.04672697      -3.31872144       9.67698393
Si       0.00824215      -2.59368824       8.68139206
Si      -5.38257146      -0.01193961       8.95505223
Si       4.12217839       1.96205960       0.03020587
Si       2.19378738       0.52199206       0.16332911
Si      -1.63427160       0.29803524       7.18122918
Si      -1.97816064      -3.16252923       9.21995344
Si      -2.76853223       1.03890653       5.54124383
Si       1.17745049      -0.34977805       2.42729095
Si      -3.05309539       3.53247393       5.01799043
Si      -3.19803061      -2.44956663       6.21593628
Si      -0.98668208       6.75515866      -0.80919625
Si       0.97295521       1.32408899       3.74838524
Si       0.88598248       7.25644050      -1.68003514
Si      -0.84933126      -1.23000064       3.21947314
Si       2.51160648      -4.83506679       6.20939517
Si       0.18289854       3.11839377       2.86588100
Si      -2.95408861       2.62597060       6.93604516
Si      -1.53928135       4.19525693       3.46425362
Si      -1.67883722      -1.83190970       7.57896234
22
Lattice="5.556761104017169 -0.7516638101799799 -1.418952585906951 -2.6039673282683635 10.397378964499959 -1.9604413336764954 -4.652359895152102 -4.889861096325555 10.741744093478435" Properties=species:S:1:pos:R:3 unique_starting_index=18 config_type=initial n_minim_iter=2 stress="0.005699023487419686 -0.0012134629553091107 -5.748903702955795e-05 -0.0012134629553091107 0.004841512997759565 0.0007868755300588534 -5.748903702955795e-05 0.0007868755300588534 0.003526499607803702" pbc="T T T"
Si      -0.13025762       8.96747298      -0.92604289
Si      -1.37611832      -1.10646554       5.60726033
Si      -4.05026977      -3.31799825       9.68083893
Si       0.00601162      -2.59310621       8.68377665
Si      -5.38669213      -0.00962313       8.95980529
Si       4.12313335       1.96261529       0.02943649
Si       2.19427767       0.52192889       0.16296561
Si      -1.63691044       0.29993671       7.18426888
Si      -1.98104830      -3.16206793       9.22322730
Si      -2.77117463       1.04094162       5.54416799
Si       1.17711581      -0.34965884       2.42768677
Si      -3.05569530       3.53581304       5.02135212
Si      -3.20028469      -2.44919749       6.21866871
Si      -0.98749253       6.75858263      -0.80789297
Si       0.97188661       1.32545804       3.74967207
Si       0.88580397       7.25975370      -1.67942972
Si      -0.85036436      -1.22993377       3.22056922
Si       2.51101829      -4.83671601       6.20980995
Si       0.18209779       3.12026306       2.86743962
Si      -2.95726867       2.62910191       6.93991861
Si      -1.54163029       4.19863023       3.46690472
Si      -1.68139281      -1.83128464       7.58171651
22
Lattice="5.553729108346486 -0.7517546925635955 -1.421819479596782 -2.6009287782395742 10.396293977962609 -1.9568277309044928 -4.654872323272006 -4.8875329024767495 10.742126786011225" Properties=species:S:1:pos:R:3 unique_starting_index=18 config_type=initial n_minim_iter=3 stress="-0.0018219487876267385 -0.0017177489533110645 -0.0033722223901225252 -0.0017177489533110645 0.0021666695549554865 0.002737424219507234 -0.0033722223901225252 0.002737424219507234 -0.00044080375158997204" pbc="T T T"
Si      -0.12976624       8.96724476      -0.92427659
Si      -1.37787008      -1.10511372       5.60722682
Si      -4.05253657      -3.31596768       9.68116883
Si       0.00149497      -2.59073680       8.68205830
Si      -5.38777796      -0.00837489       8.96183832
Si       4.12062168       1.96272700       0.02781142
Si       2.19275686       0.52174742       0.16222116
Si      -1.63953475       0.30145342       7.18436955
Si      -1.98465864      -3.16014571       9.22307343
Si      -2.77258164       1.04220722       5.54528430
Si       1.17511344      -0.34922545       2.42669877
Si      -3.05576662       3.53672169       5.02317942
Si      -3.20094040      -2.44793148       6.21955601
Si      -0.98599650       6.75779886      -0.80624130
Si       0.96932578       1.32630902       3.74904510
Si       0.88605397       7.25911765      -1.67821867
Si      -0.85149048      -1.22938902       3.22035894
Si       2.50589880      -4.83534313       6.20688059
Si       0.18149789       3.11985702       2.86771069
Si      -2.95875631       2.63009152       6.94122894
Si      -1.54318476       4.19978254       3.46853067
Si      -1.68442502      -1.83014850       7.58138154
22
Lattice="5.553604876069816 -0.7483458297363742 -1.4202505622679862 -2.5971338331244245 10.392834490854781 -1.9631761796746219 -4.654408749186088 -4.893233122291656 10.746430948207598" Properties=species:S:1:pos:R:3 unique_starting_index=18 config_type=initial n_minim_iter=4 stress="0.0010898907761762134 0.0016131011278087632 -0.002635151654337873 0.0016131011278087632 0.0003288033938382506 -0.0023203972948761726 -0.002635151654337873 -0.0023203972948761726 0.002630260677774442" pbc="T T T"
Si      -0.12650653       8.96557315      -0.92929286
Si      -1.37645911      -1.10765862       5.60924214
Si      -4.05164792      -3.32138112       9.68431022
Si       0.00303247      -2.59332726       8.68541419
Si      -5.38580923      -0.01573738       8.96326885
Si       4.12246569       1.96417374       0.02836358
Si       2.19334039       0.52208052       0.16318577
Si      -1.63751832       0.29733187       7.18581223
Si      -1.98373268      -3.16458081       9.22742693
Si      -2.77139239       1.03848646       5.54573371
Si       1.17589283      -0.34991228       2.42784456
Si      -3.05237613       3.53223389       5.02214884
Si      -3.19994596      -2.45173210       6.22213009
Si      -0.98292527       6.75524375      -0.81053349
Si       0.97081806       1.32490882       3.74973873
Si       0.88849917       7.25843469      -1.68182526
Si      -0.85120350      -1.23120812       3.22153550
Si       2.50567316      -4.83608963       6.21174079
Si       0.18501057       3.11645213       2.86730436
Si      -2.95580841       2.62420828       6.94109322
Si      -1.54176578       4.19721298       3.46757268
Si      -1.68352036      -1.83465394       7.58399649
22
Lattice="5.552815381422011 -0.7493036423560416 -1.4160026827329182 -2.5998970381383764 10.391845446066682 -1.9620261685863276 -4.646065801267312 -4.889630637661295 10.739142047092658" Properties=species:S:1:pos:R:3 unique_starting_index=18 config_type=initial n_minim_iter=5 stress="0.001753874514977542 -0.0007553400596521404 0.0004968780704300619 -0.0007553400596521404 -0.0009208769996696665 0.0006767334505361383 0.0004968780704300619 0.0006767334505361383 0.00018408349019506066" pbc="T T T"
Si      -0.12869601       8.96527902      -0.92723187
Si      -1.37193667      -1.10577122       5.60680388
Si      -4.04433571      -3.31826904       9.67791349
Si       0.00975998      -2.59041620       8.68222544
Si      -5.37942024      -0.01344774       8.95724470
Si       4.12275836       1.96370978       0.03204319
Si       2.19353857       0.52161119       0.16515452
Si      -1.63243261       0.29942772       7.18277543
Si      -1.97667812      -3.16195980       9.22336520
Si      -2.76774112       1.04016123       5.54250415
Si       1.17781473      -0.34955774       2.42791966
Si      -3.04884976       3.53362325       5.01968074
Si      -3.19478239      -2.44978681       6.21787331
Si      -0.98409875       6.75432846      -0.80976142
Si       0.97316000       1.32618379       3.74970730
Si       0.88616809       7.25759866      -1.67891984
Si      -0.84873071      -1.23044552       3.21967355
Si       2.51078199      -4.83477001       6.21079681
Si       0.18734513       3.11625786       2.86770991
Si      -2.95111034       2.62598752       6.93777555
Si      -1.54048676       4.19857242       3.46682637
Si      -1.67794793      -1.83291247       7.58031920
22
Lattice="5.545773770176098 -0.7467815207501418 -1.4116982770078976 -2.593173212730001 10.402718968760935 -1.9668950157665994 -4.636408198868587 -4.9009630750586375 10.735986260311739" Properties=species:S:1:pos:R:3 unique_starting_index=18 config_type=initial n_minim_iter=6 stress="-0.0031335849557900673 0.0005084997975166498 0.0016905952254494985 0.0005084997975166498 0.0022749748431876854 0.0005935270675814454 0.0016905952254494985 0.0005935270675814454 0.003149863207714766" pbc="T T T"
Si      -0.12573386       8.97714181      -0.93076659
Si      -1.36629562      -1.10896959       5.60586610
Si      -4.03599262      -3.32736315       9.67438586
Si       0.01442679      -2.59485641       8.68106838
Si      -5.36798811      -0.02045776       8.95245127
Si       4.12048634       1.96852615       0.03444346
Si       2.19179766       0.52271871       0.16745028
Si      -1.62591363       0.29709032       7.18015939
Si      -1.96931707      -3.16988803       9.22234620
Si      -2.76069929       1.03741274       5.53899727
Si       1.17827490      -0.35039405       2.42831278
Si      -3.03979796       3.53413233       5.01618584
Si      -3.18758450      -2.45672480       6.21604428
Si      -0.98027184       6.76062479      -0.81311902
Si       0.97508933       1.32862569       3.74909047
Si       0.88811440       7.26753476      -1.68072299
Si      -0.84634252      -1.23396228       3.21863351
Si       2.51002078      -4.84142757       6.21359427
Si       0.19061713       3.11849968       2.86738890
Si      -2.94198295       2.62550834       6.93422272
Si      -1.53465780       4.20215743       3.46391445
Si      -1.67227461      -1.83942165       7.57849978
22
Lattice="5.545882578788254 -0.7448733286019745 -1.409235920771416 -2.5906346289236737 10.407302912652026 -1.9697554813677447 -4.636803986948147 -4.909011728834687 10.726977493533301" Properties=species:S:1:pos:R:3 unique_starting_index=18 config_type=initial n_minim_iter=7 stress="0.000685164069615323 0.0003866466121967902 -0.0002625019563358333 0.0003866466121967902 0.0010369198757537387 -0.00045950761636019075 -0.0002625019563358333 -0.00045950761636019075 -0.002156189871492002" pbc="T T T"
Si      -0.12447084       8.98299784      -0.93443510
Si      -1.36500816      -1.11174354       5.60112607
Si      -4.03709509      -3.33435049       9.66543200
Si       0.01488950      -2.59838867       8.67296599
Si      -5.36759983      -0.02715638       8.94318159
Si       4.12233788       1.97107115       0.03425656
Si       2.19233599       0.52306865       0.16821508
Si      -1.62534677       0.29419742       7.17244302
Si      -1.96839163      -3.17631324       9.21500773
Si      -2.76003460       1.03409221       5.53247466
Si       1.17876268      -0.35146324       2.42611517
Si      -3.03784866       3.53223555       5.00994201
Si      -3.18690221      -2.46198134       6.21101598
Si      -0.97893969       6.76247703      -0.81584593
Si       0.97583158       1.32965545       3.74462971
Si       0.89061085       7.27267023      -1.68250581
Si      -0.84642939      -1.23681853       3.21548297
Si       2.50978256      -4.84595518       6.21046115
Si       0.19172176       3.11834145       2.86426006
Si      -2.94061485       2.62308281       6.92607048
Si      -1.53342132       4.20292143       3.45854287
Si      -1.67225361      -1.84502590       7.57153763
22
Lattice="5.5444127121298585 -0.7443926039632333 -1.40824166923621 -2.590709845653007 10.403335285146305 -1.9727983034599421 -4.632787453350182 -4.908360737506259 10.731681846545799" Properties=species:S:1:pos:R:3 unique_starting_index=18 config_type=initial n_minim_iter=8 stress="-0.0005477003765799259 -0.0015259217493172458 -0.0001911469015947878 -0.0015259217493172458 -0.0026424444557406218 -0.0004256799921389557 -0.0001911469015947878 -0.0004256799921389557 0.002388710134620233" pbc="T T T"
Si      -0.12616586       8.98110612      -0.93719135
Si      -1.36166366      -1.11183863       5.60353105
Si      -4.03490523      -3.33465929       9.66905348
Si       0.01755195      -2.59685952       8.67693513
Si      -5.36483136      -0.02983163       8.94620074
Si       4.12273836       1.97092895       0.03533022
Si       2.19227800       0.52273555       0.16953777
Si      -1.62320542       0.29387711       7.17584119
Si      -1.96453104      -3.17726204       9.22023995
Si      -2.75871273       1.03271055       5.53385248
Si       1.17937185      -0.35176559       2.42772715
Si      -3.03550856       3.52941560       5.01159267
Si      -3.18388123      -2.46286145       6.21362706
Si      -0.97981098       6.75833307      -0.81790011
Si       0.97749094       1.33073513       3.74625454
Si       0.89072757       7.27171178      -1.68460050
Si      -0.84546281      -1.23769771       3.21641829
Si       2.51136312      -4.84536002       6.21581342
Si       0.19208853       3.11656847       2.86656348
Si      -2.93810563       2.62110777       6.92878755
Si      -1.53249804       4.20201968       3.45938033
Si      -1.66970635      -1.84618100       7.57558800
22
Lattice="5.543523532183538 -0.7421206590677389 -1.4062691118080526 -2.585746982086911 10.40685382441229 -1.9707692309278286 -4.632380219253096 -4.91133259538148 10.724826250928873" Properties=species:S:1:pos:R:3 unique_starting_index=18 config_type=initial n_minim_iter=9 stress="0.0003638222318838014 0.0020529492034158723 -5.4966964935419825e-05 0.0020529492034158723 -0.002343698227795167 0.0020990647164081367 -5.4966964935419825e-05 0.0020990647164081367 0.0012876001211749573" pbc="T T T"
Si      -0.12263396       8.98614246      -0.93605751
Si      -1.35966819      -1.11233393       5.60037125
Si      -4.03466971      -3.33712700       9.66268055
Si       0.01866890      -2.59573770       8.67241415
Si      -5.36309169      -0.03193526       8.94058244
Si       4.12446905       1.97454233       0.03670385
Si       2.19280577       0.52449292       0.17030631
Si      -1.62126373       0.29489738       7.17264078
Si      -1.96344361      -3.17920917       9.21560556
Si      -2.75737205       1.03281388       5.53071245
Si       1.17985227      -0.35086351       2.42704404
Si      -3.03154089       3.53044350       5.00937717
Si      -3.18325523      -2.46559547       6.20942954
Si      -0.97692840       6.76016792      -0.81694370
Si       0.97957067       1.33317134       3.74495675
Si       0.89440316       7.27695924      -1.68262975
Si      -0.84534150      -1.23891492       3.21409465
Si       2.51073449      -4.84568225       6.21365147
Si       0.19408511       3.11888458       2.86662824
Si      -2.93485722       2.62185701       6.92560833
Si      -1.52964642       4.20488375       3.45825937
Si      -1.66854177      -1.84696896       7.57176765
22
Lattice="5.540599273756083 -0.7439636688668154 -1.4019058651264749 -2.5886481850234264 10.422885897015481 -1.9764435865021226 -4.623803433910196 -4.923031973698584 10.715623647202198" Properties=species:S:1:pos:R:3 unique_starting_index=18 config_type=initial n_minim_iter=10 stress="-0.0006970687137533459 -0.000662894054893019 0.00023947323188572205 -0.000662894054893019 -0.0006161191774477296 -0.00034058286531599233 0.00023947323188572205 -0.00034058286531599233 8.166948420517253e-06" pbc="T T T"
Si      -0.12726033       8.99994623      -0.94214591
Si      -1.35428820      -1.11730607       5.59507457
Si      -4.02820266      -3.34701775       9.65298682
Si       0.02378354      -2.60323140       8.66583362
Si      -5.35786270      -0.03706901       8.92916832
Si       4.12334603       1.97672825       0.03717159
Si       2.19213274       0.52507013       0.17124143
Si      -1.61758165       0.29206928       7.16560323
Si      -1.95707336      -3.19007051       9.20861575
Si      -2.75487648       1.03179137       5.52368227
Si       1.18059359      -0.35298691       2.42591864
Si      -3.02765452       3.53310573       5.00125449
Si      -3.17787647      -2.47339276       6.20332625
Si      -0.97939395       6.76867004      -0.82141330
Si       0.98108828       1.33332166       3.74086811
Si       0.89133292       7.29004100      -1.68542898
Si      -0.84329071      -1.24356830       3.21063364
Si       2.51453737      -4.85725754       6.21343614
Si       0.19375936       3.12169022       2.86329004
Si      -2.93112885       2.62132434       6.91659795
Si      -1.52920693       4.21076034       3.45199897
Si      -1.66374192      -1.85389717       7.56543127
22
Lattice="5.536721412869978 -0.744418718855129 -1.3973991421939969 -2.587057813458937 10.435845203693075 -1.9746136906100986 -4.615924636745899 -4.92872478517314 10.7010774654266" Properties=species:S:1:pos:R:3 unique_starting_index=18 config_type=initial n_minim_iter=11 stress="-0.0007426436524614869 -8.974923044111756e-07 0.00026910139722664887 -8.974923044111756e-07 -0.0010628192286017805 -0.00020498581618526881 0.00026910139722664887 -0.00020498581618526881 -0.0008691366084663904" pbc="T T T"
Si      -0.12992215       9.01291829      -0.94402622
Si      -1.34641999      -1.11969605       5.58881320
Si      -4.02298551      -3.35237063       9.63823337
Si       0.02967880      -2.60419619       8.65729850
Si      -5.35346474      -0.03802264       8.91435976
Si       4.12433995       1.98167152       0.03882202
Si       2.19146571       0.52660980       0.17522603
Si      -1.61357063       0.29296408       7.15723328
Si      -1.94968631      -3.19427489       9.19591958
Si      -2.75060062       1.03195524       5.51743359
Si       1.18106767      -0.35193917       2.42557669
Si      -3.01987350       3.53784650       4.99475487
Si      -3.17252294      -2.48089599       6.19378903
Si      -0.97814242       6.77448462      -0.82222267
Si       0.98355299       1.33793527       3.73658339
Si       0.89017680       7.30582414      -1.68251613
Si      -0.84171719      -1.24812214       3.20453302
Si       2.51684534      -4.86406428       6.21016822
Si       0.19444076       3.12720107       2.86330089
Si      -2.92546156       2.62357431       6.90961647
Si      -1.52737986       4.22129850       3.44882814
Si      -1.66037674      -1.85607096       7.55749883
22
Lattice="5.532783535668021 -0.7443434588583369 -1.392771715140561 -2.5833978190977716 10.455058587048413 -1.971814290157662 -4.607805030047329 -4.936683525726926 10.689394305742821" Properties=species:S:1:pos:R:3 unique_starting_index=18 config_type=initial n_minim_iter=12 stress="-0.0004133951833105753 0.0008799183154929747 0.0003791814957991147 0.0008799183154929747 0.0005478505908179533 0.00013122566068115752 0.0003791814957991147 0.00013122566068115752 -0.002049120539537" pbc="T T T"
Si      -0.13493724       9.03525858      -0.94558152
Si      -1.33549370      -1.12205933       5.58612326
Si      -4.01643401      -3.35955425       9.62476712
Si       0.03919989      -2.60552436       8.65302145
Si      -5.34809954      -0.03807791       8.90034234
Si       4.12758948       1.99023899       0.04079729
Si       2.19140544       0.53105460       0.18113188
Si      -1.60984812       0.29262574       7.15041013
Si      -1.94252731      -3.19982639       9.18884277
Si      -2.74650882       1.03400179       5.51478554
Si       1.18157826      -0.34873545       2.42838985
Si      -3.00925950       3.54416669       4.99177633
Si      -3.16587661      -2.49336133       6.18606702
Si      -0.97466824       6.78321885      -0.82307228
Si       0.98938062       1.34580883       3.73364547
Si       0.89221069       7.32819054      -1.68028021
Si      -0.84043803      -1.25560327       3.19778307
Si       2.51840637      -4.87433963       6.20836001
Si       0.19458677       3.13759154       2.86742612
Si      -2.91821649       2.62623052       6.90538145
Si      -1.52388697       4.23830522       3.44820685
Si      -1.66049032      -1.85783565       7.55150375
22
Lattice="5.530582708333632 -0.7455952061106726 -1.3955572468640456 -2.583143781368266 10.45774035326699 -1.9709584283884496 -4.608325473946255 -4.935955816024158 10.696538741543293" Properties=species:S:1:pos:R:3 unique_starting_index=18 config_type=initial n_minim_iter=13 stress="0.00034271537845671806 0.0006066416309278786 -0.00022864395769130741 0.0006066416309278786 0.0009630597113046669 -0.0002745123700022059 -0.00022864395769130741 -0.0002745123700022059 -0.001485486152054137" pbc="T T T"
Si      -0.14320260       9.03931431      -0.94900668
Si      -1.33098990      -1.12184876       5.59049148
Si      -4.01662961      -3.36027805       9.62810891
Si       0.03841251      -2.60329611       8.65698641
Si      -5.34900180      -0.04001846       8.90417695
Si       4.12787237       1.99253309       0.03799560
Si       2.19056565       0.53585209       0.18376801
Si      -1.61538073       0.29006660       7.15427704
Si      -1.94347043      -3.20022744       9.19609717
Si      -2.74825817       1.03384994       5.51896166
Si       1.17955328      -0.34540192       2.43346743
Si      -3.00436085       3.54558520       4.99895691
Si      -3.16397094      -2.50122578       6.19013936
Si      -0.97237561       6.78187534      -0.82549069
Si       0.98703371       1.34885956       3.73360064
Si       0.89120560       7.33708133      -1.68212214
Si      -0.84199152      -1.26107801       3.19609557
Si       2.51682332      -4.87742163       6.21229809
Si       0.18994790       3.14208720       2.87411842
Si      -2.91982424       2.62562802       6.91080257
Si      -1.52620512       4.24618835       3.45139949
Si      -1.66582385      -1.85802121       7.55947619
22
Lattice="5.5269222457474 -0.7466709210874644 -1.398080860008521 -2.5814288236038836 10.46503420896444 -1.9704269095617972 -4.6067889719112305 -4.937305572303624 10.706681607785844" Properties=species:S:1:pos:R:3 unique_starting_index=18 config_type=initial n_minim_iter=14 stress="0.0013307526801210952 6.926095477093237e-05 0.00027562097447685296 6.926095477093237e-05 0.0022796485806511765 -0.0007757118857927043 0.00027562097447685296 -0.0007757118857927043 -0.00026083047823377846" pbc="T T T"
Si      -0.15463326       9.04815963      -0.95240860
Si      -1.32460426      -1.12402604       5.60107951
Si      -4.01604352      -3.36214693       9.63335603
Si       0.03791778      -2.60180731       8.66249173
Si      -5.34716203      -0.04340766       8.90960807
Si       4.12798040       1.99730909       0.03559671
Si       2.18884518       0.54416113       0.18972708
Si      -1.61988018       0.28486335       7.16282973
Si      -1.94014395      -3.20067055       9.20529942
Si      -2.75107675       1.03546846       5.52247591
Si       1.17741455      -0.34060687       2.44116949
Si      -2.99581951       3.54802001       5.00938286
Si      -3.15944209      -2.51435730       6.19573541
Si      -0.96752089       6.78205002      -0.82971876
Si       0.98623567       1.35486963       3.73509147
Si       0.89137152       7.35183148      -1.68511208
Si      -0.84362941      -1.26977087       3.19365462
Si       2.51746599      -4.88127926       6.22046198
Si       0.18599509       3.14965355       2.88417409
Si      -2.91958920       2.62476472       6.91869513
Si      -1.53006178       4.25817750       3.45520414
Si      -1.66948271      -1.85705540       7.56724995
22
Lattice="5.519694492148618 -0.7427484607489537 -1.4044346619282833 -2.56722533084307 10.467857744535923 -1.967084612095904 -4.612028829270476 -4.939349080668565 10.725200143164063" Properties=species:S:1:pos:R:3 unique_starting_index=18 config_type=initial n_minim_iter=15 stress="0.0027426560827710396 0.0002975477047571289 -8.120573391908537e-05 0.0002975477047571289 0.0028397344179385544 -0.0004440294296724699 -8.120573391908537e-05 -0.0004440294296724699 0.002346985528126606" pbc="T T T"
Si      -0.15857579       9.05487509      -0.95329907
Si      -1.32153454      -1.12835017       5.61538745
Si      -4.01973638      -3.36340433       9.64606395
Si       0.03083151      -2.59928136       8.67203939
Si      -5.34539140      -0.04770882       8.92361133
Si       4.12758818       2.00624651       0.03287383
Si       2.18618651       0.55772279       0.19446566
Si      -1.62779252       0.28206797       7.17798243
Si      -1.94470256      -3.20049972       9.22221943
Si      -2.75016862       1.03486397       5.53449653
Si       1.17313265      -0.33447949       2.44937513
Si      -2.98496090       3.54829547       5.02472175
Si      -3.15760110      -2.52986228       6.20598662
Si      -0.95509994       6.77848235      -0.83345188
Si       0.98264897       1.36704217       3.73949768
Si       0.89971501       7.36727755      -1.68844911
Si      -0.84780305      -1.27933637       3.19291949
Si       2.51036858      -4.87979494       6.23156931
Si       0.18426611       3.15825836       2.89762576
Si      -2.91819947       2.61956707       6.93438500
Si      -1.53243007       4.26951128       3.46253359
Si      -1.67703359      -1.85625250       7.58021468
22
Lattice="5.516360368241423 -0.7413571699754627 -1.4039634961130565 -2.5622412097368636 10.475797708665432 -1.9674253785950668 -4.610606890098712 -4.945478365537359 10.724312734148178" Properties=species:S:1:pos:R:3 unique_starting_index=18 config_type=initial n_minim_iter=16 stress="0.002706322281946701 1.2325742702292089e-05 0.00026488167970229506 1.2325742702292089e-05 0.0031870179883035843 -0.0004898277208193398 0.00026488167970229506 -0.0004898277208193398 0.0020615033394499197" pbc="T T T"
Si      -0.16244646       9.06388307      -0.95486776
Si      -1.31894661      -1.13256047       5.61636552
Si      -4.01846573      -3.36765115       9.64327152
Si       0.03028020      -2.60326208       8.66959839
Si      -5.34094924      -0.05080737       8.92031706
Si       4.12798481       2.01165738       0.03359929
Si       2.18517975       0.56527010       0.19769653
Si      -1.62923766       0.27994904       7.17829351
Si      -1.94235698      -3.20272723       9.22178648
Si      -2.74859813       1.03415186       5.53382849
Si       1.17223595      -0.33271977       2.45121065
Si      -2.97869101       3.54865169       5.02668630
Si      -3.15422757      -2.54037577       6.20415084
Si      -0.94948764       6.78051304      -0.83764736
Si       0.98435292       1.37158434       3.74009053
Si       0.90267878       7.37971629      -1.69032477
Si      -0.84888005      -1.28601272       3.18964895
Si       2.50935231      -4.88496552       6.23342479
Si       0.18452185       3.16506099       2.90004448
Si      -2.91559947       2.61689229       6.93372364
Si      -1.53315063       4.27778516       3.46133358
Si      -1.67770969      -1.86119383       7.58183636
22
Lattice="5.515985409258238 -0.7390404725959318 -1.4067010374985103 -2.5580471232682442 10.470628524360054 -1.9697183778993532 -4.616603752271943 -4.947804623766873 10.729546778395166" Properties=species:S:1:pos:R:3 unique_starting_index=18 config_type=initial n_minim_iter=17 stress="0.0011822924237618814 -0.0002167325381197327 0.00028330861822183133 -0.0002167325381197327 0.0010680026660310098 -0.00028911550872046153 0.00028330861822183133 -0.00028911550872046153 0.001836702212066661" pbc="T T T"
Si      -0.16904006       9.06203330      -0.95980440
Si      -1.32125614      -1.13751124       5.62093413
Si      -4.02343091      -3.36983945       9.64501319
Si       0.02552419      -2.60738468       8.66855449
Si      -5.34525097      -0.05676479       8.92067938
Si       4.13056649       2.01501970       0.03290904
Si       2.18521472       0.57441679       0.20040830
Si      -1.63478422       0.27370143       7.18066818
Si      -1.94674432      -3.20378726       9.22734124
Si      -2.75061320       1.02774560       5.53316650
Si       1.17030110      -0.33094367       2.45305791
Si      -2.97532450       3.54347069       5.03068894
Si      -3.15374892      -2.55097225       6.20519276
Si      -0.94348587       6.77324676      -0.84510162
Si       0.98426702       1.37293660       3.74200523
Si       0.90665966       7.38622496      -1.69578638
Si      -0.85274118      -1.29400599       3.18686577
Si       2.50567227      -4.88805325       6.23680168
Si       0.18290448       3.16957675       2.90207454
Si      -2.91872790       2.60928657       6.93826605
Si      -1.53732913       4.28246820       3.46027715
Si      -1.68236540      -1.86566777       7.58499041
22
Lattice="5.517962403562136 -0.7352894720694607 -1.4124695860047334 -2.5511256911772557 10.45801355909872 -1.9677738243090173 -4.6299037602195865 -4.944534274023066 10.73882312872373" Properties=species:S:1:pos:R:3 unique_starting_index=18 config_type=initial n_minim_iter=18 stress="-0.001415190685681812 -0.0007576865795561179 -0.0003500670853705088 -0.0007576865795561179 -0.0015990361206758305 0.00031975225522319167 -0.0003500670853705088 0.00031975225522319167 0.0007003938376075869" pbc="T T T"
Si      -0.17671875       9.05798702      -0.96236371
Si      -1.32823964      -1.14209886       5.62618324
Si      -4.03271180      -3.36892877       9.64959962
Si       0.01614245      -2.60707522       8.66962700
Si      -5.35676582      -0.06595416       8.92400823
Si       4.13600138       2.01974866       0.03284168
Si       2.18590617       0.58439420       0.20721945
Si      -1.64427683       0.26950980       7.18712757
Si      -1.95677430      -3.19909027       9.23582777
Si      -2.75477476       1.02264814       5.53751502
Si       1.16728165      -0.32741790       2.45519528
Si      -2.97237913       3.53675010       5.04162825
Si      -3.15574797      -2.56145940       6.20733295
Si      -0.93327408       6.76438428      -0.85133124
Si       0.98322363       1.37668496       3.74720335
Si       0.91378010       7.39131521      -1.70024068
Si      -0.85962589      -1.30324044       3.18384225