22
Lattice="5.551773070316449 -0.6718923750968985 -1.4019172703739065 -2.472017015147282 10.474102256919636 -2.0430285129429864 -4.684416200720523 -5.064486822599198 10.824223349985122" Properties=species:S:1:pos:R:3 unique_starting_index=18 config_type=initial n_minim_iter=1 energy=-3583.7368815340265 free_energy=-3583.7368815340265 pbc="T T T"
Si      -0.11327725       9.18276396      -1.01401376
Si      -1.52403458      -1.25018169       5.71035992
Si      -4.01273739      -3.59238755       9.67591422
Si       0.02591528      -2.80145399       8.72931233
Si      -5.58435932      -0.33857583       8.96685428
Si       4.15629659       2.08021034       0.13742304
Si       2.16595834       0.74482326       0.34755011
Si      -1.49776262       0.42229691       7.02050968
Si      -1.92073223      -3.33096199       9.39070690
Si      -2.67956725       1.03546142       5.36272081
Si       1.16704985      -0.27124026       2.51861789
Si      -2.98206362       3.52107237       5.10859377
Si      -3.36211688      -2.80576305       6.28754228
Si      -0.57279706       6.70638589      -1.10468764
Si       1.02771448       1.40449704       3.86421559
Si       1.16030093       7.70236639      -1.84271228
Si      -0.88808862      -1.28410696       3.29240577
Si       2.52684682      -4.91964503       6.41026462
Si       0.17085903       3.16770525       3.01242412
Si      -2.82927756       2.44955668       6.93563831
Si      -1.48512909       4.43254877       3.43026047
Si      -1.82589819      -2.14772761       7.61307474
22
Lattice="5.552070658900672 -0.6720688942703241 -1.4018806954039913 -2.4724376496268436 10.474653971082365 -2.043061833092006 -4.684413935974494 -5.064574891883724 10.824348821405207" Properties=species:S:1:pos:R:3 unique_starting_index=18 config_type=initial n_minim_iter=2 stress="0.0007534638018646949 -0.00016793712261452983 4.0299118907714406e-05 -0.00016793712261452983 0.000638878441937533 -1.7100965206020632e-06 4.0299118907714406e-05 -1.7100965206020632e-06 0.000572804587789941" pbc="T T T"
Si      -0.11353864       9.18321954      -1.01396701
Si      -1.52401972      -1.25021844       5.71045890
Si      -4.01280227      -3.59241503       9.67603000
Si       0.02611006      -2.80155715       8.72943543
Si      -5.58458126      -0.33846761       8.96697044
Si       4.15646354       2.08020466       0.13749751
Si       2.16606670       0.74478871       0.34762617
Si      -1.49772538       0.42238685       7.02066985
Si      -1.92062099      -3.33102731       9.39080837
Si      -2.67968845       1.03561929       5.36276495
Si       1.16713342      -0.27124093       2.51867126
Si      -2.98226412       3.52135381       5.10862830
Si      -3.36216980      -2.80578525       6.28763242
Si      -0.57303787       6.70668239      -1.10470781
Si       1.02776161       1.40452925       3.86429428
Si       1.16019299       7.70268633      -1.84272239
Si      -0.88807194      -1.28414029       3.29243875
Si       2.52717883      -4.91990111       6.41040909
Si       0.17081887       3.16787181       3.01248871
Si      -2.82942476       2.44972764       6.93573505
Si      -1.48524692       4.43281198       3.43032021
Si      -1.82580365      -2.14775239       7.61313337
22
Lattice="5.551940385390158 -0.6721806085701074 -1.4017169240934355 -2.4726278034404996 10.474535015101432 -2.0429142545429158 -4.6840428144114155 -5.064337976103011 10.823601610842164" Properties=species:S:1:pos:R:3 unique_starting_index=18 config_type=initial n_minim_iter=3 stress="0.00017940099607559974 -0.00031616903855084637 2.3584624259345212e-05 -0.00031616903855084637 6.581511818577506e-05 4.187050988839006e-05 2.3584624259345212e-05 4.187050988839006e-05 -6.490569566548595e-05" pbc="T T T"
Si      -0.11375480       9.18311715      -1.01376831
Si      -1.52387567      -1.25020385       5.71013192
Si      -4.01261091      -3.59219179       9.67536656
Si       0.02634870      -2.80145630       8.72883760
Si      -5.58440645      -0.33838773       8.96639370
Si       4.15631713       2.08008980       0.13760270
Si       2.16602922       0.74470171       0.34773623
Si      -1.49747683       0.42246358       7.02033963
Si      -1.92032016      -3.33084862       9.39012456
Si      -2.67961180       1.03576077       5.36236375
Si       1.16711648      -0.27116354       2.51852666
Si      -2.98222645       3.52143690       5.10822866
Si      -3.36197892      -2.80562280       6.28725240
Si      -0.57324202       6.70651111      -1.10464600
Si       1.02775144       1.40446463       3.86406933
Si       1.16007803       7.70252482      -1.84257173
Si      -0.88799157      -1.28409523       3.29219161
Si       2.52731523      -4.91978849       6.41006870
Si       0.17078332       3.16786799       3.01233073
Si      -2.82934030       2.44970092       6.93527153
Si      -1.48516244       4.43280741       3.43012397
Si      -1.82548953      -2.14762521       7.61252118
22
Lattice="5.551853307299025 -0.671915296902503 -1.4017303356292663 -2.4721115045186037 10.474528967032573 -2.0430220512799355 -4.684221103202233 -5.064675234285294 10.823828235610394" Properties=species:S:1:pos:R:3 unique_starting_index=18 config_type=initial n_minim_iter=4 stress="0.00019457660045450812 0.00018546647245685417 2.0975899236764148e-05 0.00018546647245685417 8.900112310581917e-05 -7.713183449358387e-05 2.0975899236764148e-05 -7.713183449358387e-05 0.0002591995217178035" pbc="T T T"
Si      -0.11331217       9.18320269      -1.01381511
Si      -1.52390706      -1.25033178       5.71023894
Si      -4.01276901      -3.59246328       9.67556032
Si       0.02625677      -2.80153506       8.72899184
Si      -5.58437293      -0.33873646       8.96657212
Si       4.15636766       2.08030481       0.13761407
Si       2.16605606       0.74480022       0.34777465
Si      -1.49738707       0.42235354       7.02049601
Si      -1.92043832      -3.33102114       9.39030282
Si      -2.67953788       1.03562390       5.36242809
Si       1.16707920      -0.27108895       2.51857144
Si      -2.98204131       3.52131209       5.10827036
Si      -3.36208876      -2.80583814       6.28740834
Si      -0.57294577       6.70652112      -1.10472772
Si       1.02780620       1.40448663       3.86412476
Si       1.16045271       7.70267352      -1.84265049
Si      -0.88804550      -1.28417518       3.29224704
Si       2.52706687      -4.91973387       6.41024100
Si       0.17093358       3.16789649       3.01236859
Si      -2.82920344       2.44952160       6.93537782
Si      -1.48489472       4.43276131       3.43015831
Si      -1.82553776      -2.14780409       7.61264976
22
Lattice="5.551178298147218 -0.6720593901842871 -1.4017764966333224 -2.4716638838641165 10.475903041163463 -2.0420889264776316 -4.683852795143555 -5.06467597923257 10.82286750700154" Properties=species:S:1:pos:R:3 unique_starting_index=18 config_type=initial n_minim_iter=5 stress="-0.0002796378815475072 2.84644734707883e-06 -0.00026746922095399506 2.84644734707883e-06 0.00021698237099293527 0.0005153146915115393 -0.00026746922095399506 0.0005153146915115393 0.000359321310360903" pbc="T T T"
Si      -0.11304183       9.18439414      -1.01280885
Si      -1.52374350      -1.25003537       5.70967417
Si      -4.01272758      -3.59221755       9.67471892
Si       0.02633436      -2.80129772       8.72803159
Si      -5.58378174      -0.33841698       8.96627338
Si       4.15575807       2.08065516       0.13781331
Si       2.16594854       0.74496247       0.34796139
Si      -1.49702567       0.42297447       7.02022188
Si      -1.92040517      -3.33082702       9.38956001
Si      -2.67915257       1.03609090       5.36198171
Si       1.16671651      -0.27056005       2.51831923
Si      -2.98200614       3.52215925       5.10810787
Si      -3.36197897      -2.80570583       6.28712516
Si      -0.57296980       6.70713560      -1.10436246
Si       1.02755244       1.40504438       3.86387020
Si       1.16053329       7.70381880      -1.84189303
Si      -0.88806093      -1.28418160       3.29184273
Si       2.52658059      -4.91977721       6.40963421
Si       0.17095266       3.16862323       3.01242008
Si      -2.82911038       2.45026052       6.93512649
Si      -1.48438746       4.43376082       3.43032954
Si      -1.82535893      -2.14798290       7.61196797
22
Lattice="5.551122534631298 -0.6719815583125386 -1.401340856897252 -2.4717160404035745 10.476613994714729 -2.0426811786029355 -4.683378816667538 -5.06567470031387 10.821954436850797" Properties=species:S:1:pos:R:3 unique_starting_index=18 config_type=initial n_minim_iter=6 stress="6.849269576026412e-05 -7.113826154226978e-05 -0.00021996575120860427 -7.113826154226978e-05 -3.294103124797833e-05 -0.00022129891172873863 -0.00021996575120860427 -0.00022129891172873863 2.203292016602462e-05" pbc="T T T"
Si      -0.11295239       9.18491778      -1.01314118
Si      -1.52343857      -1.25038970       5.70908366
Si      -4.01245448      -3.59299947       9.67381747
Si       0.02686080      -2.80201500       8.72727062
Si      -5.58333381      -0.33916694       8.96530264
Si       4.15572023       2.08077850       0.13794068
Si       2.16607328       0.74499447       0.34809439
Si      -1.49654588       0.42255236       7.01948006
Si      -1.92000242      -3.33161824       9.38883988
Si      -2.67882202       1.03579526       5.36119067
Si       1.16672574      -0.27049982       2.51811433
Si      -2.98192978       3.52201386       5.10717052
Si      -3.36183328      -2.80620159       6.28669788
Si      -0.57309105       6.70740644      -1.10484599
Si       1.02768068       1.40490287       3.86340072
Si       1.16053766       7.70445405      -1.84209172
Si      -0.88795119      -1.28449776       3.29150175
Si       2.52685333      -4.92034371       6.40958670
Si       0.17115785       3.16862162       3.01194064
Si      -2.82888830       2.44984322       6.93410421
Si      -1.48402808       4.43385908       3.42967366
Si      -1.82496234      -2.14884622       7.61124729
22
Lattice="5.550741835445493 -0.6719349753907019 -1.4004662057770376 -2.471546180815774 10.477430854379111 -2.0421446932147127 -4.681851389309623 -5.065591228398369 10.820106247914106" Properties=species:S:1:pos:R:3 unique_starting_index=18 config_type=initial n_minim_iter=7 stress="0.00031479398361795884 0.0001698046426656902 0.00038589158009847964 0.0001698046426656902 -0.00010268232858456382 0.00028251649857780596 0.00038589158009847964 0.00028251649857780596 -0.0003411893749855542" pbc="T T T"
Si      -0.11265647       9.18573605      -1.01222209
Si      -1.52255076      -1.25001886       5.70834537
Si      -4.01117808      -3.59278556       9.67220875
Si       0.02810423      -2.80168892       8.72634704
Si      -5.58185073      -0.33888232       8.96389634
Si       4.15565667       2.08115938       0.13879942
Si       2.16621058       0.74517151       0.34856878
Si      -1.49529163       0.42298869       7.01871079
Si      -1.91868413      -3.33134187       9.38770151
Si      -2.67785581       1.03621076       5.36040850
Si       1.16692432      -0.27004090       2.51802627
Si      -2.98112935       3.52262735       5.10652540
Si      -3.36110938      -2.80607496       6.28567354
Si      -0.57304827       6.70780546      -1.10453535
Si       1.02823445       1.40533160       3.86330540
Si       1.16055790       7.70517831      -1.84116187
Si      -0.88752112      -1.28445209       3.29097156
Si       2.52753409      -4.92016494       6.40926941
Si       0.17182675       3.16914027       3.01195957
Si      -2.82781850       2.45037102       6.93321197
Si      -1.48316871       4.43460096       3.42954114
Si      -1.82377568      -2.14883719       7.61017271
22
Lattice="5.5490497075346275 -0.672240835562182 -1.3998017423625357 -2.4711967298863136 10.480789481865955 -2.0421007566085434 -4.679101782920019 -5.066762799851582 10.819667137852065" Properties=species:S:1:pos:R:3 unique_starting_index=18 config_type=initial n_minim_iter=8 stress="-0.0008764153733917111 -0.00026196928858893435 0.000661980977099953 -0.00026196928858893435 0.00011272285194972309 -0.0002526087563402165 0.000661980977099953 -0.0002526087563402165 0.00047439599647724063" pbc="T T T"
Si      -0.11261516       9.18868383      -1.01131205
Si      -1.52121699      -1.24970109       5.70832258
Si      -4.00902011      -3.59346667       9.67173496
Si       0.02937517      -2.80229194       8.72639244
Si      -5.57912987      -0.33880233       8.96369360
Si       4.15438483       2.08182719       0.13971242
Si       2.16594473       0.74534388       0.34932090
Si      -1.49353466       0.42321855       7.01850789
Si      -1.91680747      -3.33196030       9.38784935
Si      -2.67627371       1.03690402       5.36017926
Si       1.16659033      -0.26933330       2.51811117
Si      -2.98008484       3.52405997       5.10622994
Si      -3.35984728      -2.80645140       6.28568110
Si      -0.57321623       6.70949880      -1.10482368
Si       1.02840809       1.40581576       3.86348904
Si       1.16001958       7.70762722      -1.84056234
Si      -0.88690234      -1.28479200       3.29075877
Si       2.52768424      -4.92123625       6.40998294
Si       0.17251253       3.17019980       3.01218281
Si      -2.82645578       2.45117788       6.93280308
Si      -1.48197777       4.43655426       3.42974539
Si      -1.82196317      -2.14983441       7.60984324
22
Lattice="5.548676640898972 -0.672240985121213 -1.3999539436399 -2.4702400579100923 10.483425042987047 -2.0404538690080507 -4.679558138895529 -5.067196764685811 10.817995924141487" Properties=species:S:1:pos:R:3 unique_starting_index=18 config_type=initial n_minim_iter=9 stress="-0.0002777453925858836 4.741990226400492e-05 -2.8004615811176244e-05 4.741990226400492e-05 0.00019418638456098714 -2.031751333170701e-05 -2.8004615811176244e-05 -2.031751333170701e-05 -0.00043336463875168625" pbc="T T T"
Si      -0.11175898       9.19123466      -1.00942948
Si      -1.52127417      -1.24893982       5.70763972
Si      -4.00963520      -3.59353267       9.67019481
Si       0.02894384      -2.80205947       8.72488064
Si      -5.57913461      -0.33834560       8.96308847
Si       4.15406442       2.08272961       0.14005666
Si       2.16612263       0.74564296       0.34975041
Si      -1.49327217       0.42387383       7.01746665
Si      -1.91721176      -3.33183046       9.38667281
Si      -2.67605654       1.03780533       5.35972535
Si       1.16600282      -0.26827407       2.51757537
Si      -2.98028109       3.52559451       5.10597517
Si      -3.36060504      -2.80644764       6.28514478
Si      -0.57283443       6.71077538      -1.10432834
Si       1.02816417       1.40660465       3.86301165
Si       1.16059540       7.70971370      -1.83925036
Si      -0.88713298      -1.28488134       3.29009228
Si       2.52686198      -4.92138367       6.40888209
Si       0.17297346       3.17137862       3.01217596
Si      -2.82673175       2.45225081       6.93198171
Si      -1.48135134       4.43856253       3.43006616
Si      -1.82199699      -2.15029583       7.60844451
22
Lattice="5.548886673127726 -0.6723275408069948 -1.4001693364354 -2.470434244063124 10.481987823637132 -2.0398309206998193 -4.679623496635368 -5.065587296342879 10.819017908215924" Properties=species:S:1:pos:R:3 unique_starting_index=18 config_type=initial n_minim_iter=10 stress="-9.508200533491244e-05 -4.2854731472384616e-05 1.3971637123298791e-05 -4.2854731472384616e-05 -0.00048434869993817394 4.0586752123528986e-05 1.3971637123298791e-05 4.0586752123528986e-05 -1.3114982908803333e-05" pbc="T T T"
Si      -0.11168087       9.19001099      -1.00846434
Si      -1.52120766      -1.24804466       5.70834922
Si      -4.00976777      -3.59226200       9.67109622
Si       0.02909454      -2.80095041       8.72581043
Si      -5.57927147      -0.33755286       8.96437679
Si       4.15417436       2.08247391       0.14048228
Si       2.16635159       0.74544052       0.35017836
Si      -1.49313981       0.42441151       7.01822565
Si      -1.91725417      -3.33060915       9.38780177
Si      -2.67599963       1.03819538       5.36048160
Si       1.16585029      -0.26761654       2.51780154
Si      -2.98066433       3.52567015       5.10680076
Si      -3.36100060      -2.80540411       6.28598717
Si      -0.57295942       6.70957027      -1.10418864
Si       1.02818465       1.40669870       3.86357493
Si       1.16048416       7.70863094      -1.83870009
Si      -0.88715476      -1.28445554       3.29036581
Si       2.52700945      -4.92003783       6.40951469
Si       0.17313275       3.17121988       3.01285632
Si      -2.82701651       2.45241646       6.93296942
Si      -1.48113311       4.43851631       3.43096307
Si      -1.82178450      -2.14964406       7.60901924
22
Lattice="5.548519583522346 -0.6724273059520615 -1.4002093002938065 -2.470060061037809 10.483219803215324 -2.0388997153681254 -4.679422336869108 -5.065447574098664 10.818469111948648" Properties=species:S:1:pos:R:3 unique_starting_index=18 config_type=initial n_minim_iter=11 stress="-0.0002872374989745229 1.2984164235943975e-05 2.336832462869699e-06 1.2984164235943975e-05 -0.00011302027969100892 -7.589828596297809e-06 2.336832462869699e-06 -7.589828596297809e-06 -0.00020508532525387598" pbc="T T T"
Si      -0.11116335       9.19114100      -1.00720750
Si      -1.52102305      -1.24757482       5.70816227
Si      -4.00955442      -3.59220590       9.67052215
Si       0.02905003      -2.80063734       8.72561368
Si      -5.57880330      -0.33703308       8.96436775
Si       4.15389285       2.08290195       0.14092563
Si       2.16646108       0.74539995       0.35069760
Si      -1.49295990       0.42526654       7.01781387
Si      -1.91729444      -3.33040423       9.38773466
Si      -2.67564210       1.03882218       5.36044119
Si       1.16543386      -0.26676902       2.51754782
Si      -2.98073155       3.52669731       5.10676365
Si      -3.36138904      -2.80509364       6.28607523
Si      -0.57279009       6.70995206      -1.10406245
Si       1.02810005       1.40695900       3.86353751
Si       1.16033325       7.70965000      -1.83785002
Si      -0.88713728      -1.28440306       3.29015581
Si       2.52673886      -4.91977293       6.40932511
Si       0.17331235       3.17199006       3.01307660
Si      -2.82713721       2.45304812       6.93291277
Si      -1.48035460       4.43962144       3.43134590
Si      -1.82137915      -2.14974949       7.60819831
22
Lattice="5.549364586884437 -0.6728291872490063 -1.400269405838445 -2.470872906458068 10.482820787648048 -2.0375224776449725 -4.679902022053638 -5.063751999759174 10.817592650805437" Properties=species:S:1:pos:R:3 unique_starting_index=18 config_type=initial n_minim_iter=12 stress="-0.00012249004421862244 -1.9325312127714353e-05 -6.302747344661978e-06 -1.9325312127714353e-05 -0.00012997607796334703 -1.8838495694034003e-06 -6.302747344661978e-06 -1.8838495694034003e-06 -0.00010468366785298025" pbc="T T T"
Si      -0.11113771       9.19079112      -1.00530008
Si      -1.52099809      -1.24650982       5.70739693
Si      -4.00997409      -3.59121384       9.66965770
Si       0.02897662      -2.79973225       8.72561928
Si      -5.57966297      -0.33540200       8.96400523
Si       4.15430693       2.08276492       0.14147446
Si       2.16707015       0.74496632       0.35143096
Si      -1.49286521       0.42645696       7.01742638
Si      -1.91727966      -3.32912934       9.38753853
Si      -2.67599648       1.03983569       5.36016803
Si       1.16514340      -0.26561895       2.51702762
Si      -2.98190771       3.52742978       5.10684421
Si      -3.36269102      -2.80363957       6.28608916
Si      -0.57313927       6.70905609      -1.10382316
Si       1.02824351       1.40700583       3.86347327
Si       1.15985715       7.70926428      -1.83683573
Si      -0.88720659      -1.28396030       3.28989136
Si       2.52746442      -4.91844878       6.40913755
Si       0.17331867       3.17243781       3.01336235
Si      -2.82830100       2.45373033       6.93273584
Si      -1.47987388       4.44027587       3.43179708
Si      -1.82112407      -2.14953514       7.60735447
22
Lattice="5.549927125584324 -0.6729823855511868 -1.4001483412499016 -2.471359248927744 10.482368463338714 -2.0369187269294255 -4.680206937849257 -5.06299384922899 10.816413298480168" Properties=species:S:1:pos:R:3 unique_starting_index=18 config_type=initial n_minim_iter=13 stress="-2.3165905115081628e-05 -3.739526172918187e-05 -7.25684033128386e-06 -3.739526172918187e-05 -4.069421267908461e-05 -5.6055517353301303e-05 -7.25684033128386e-06 -5.6055517353301303e-05 -9.096083959705725e-05" pbc="T T T"
Si      -0.11105795       9.19028562      -1.00432214
Si      -1.52096947      -1.24591696       5.70659049
Si      -4.01014859      -3.59089321       9.66858173
Si       0.02913502      -2.79950235       8.72515382
Si      -5.58046326      -0.33500774       8.96293471
Si       4.15464998       2.08266602       0.14177384
Si       2.16745003       0.74474812       0.35176055
Si      -1.49278756       0.42677203       7.01653727
Si      -1.91744208      -3.32865137       9.38699538
Si      -2.67624232       1.04018644       5.35933497
Si       1.16502066      -0.26509084       2.51638093
Si      -2.98254002       3.52773647       5.10629405
Si      -3.36353730      -2.80275201       6.28570691
Si      -0.57329602       6.70856575      -1.10370585
Si       1.02824776       1.40685452       3.86313900
Si       1.15963945       7.70896136      -1.83651435
Si      -0.88724605      -1.28378521       3.28954261
Si       2.52801810      -4.91781872       6.40879314
Si       0.17347065       3.17241512       3.01319228
Si      -2.82909425       2.45392752       6.93233884
Si      -1.47959819       4.44052773       3.43164180
Si      -1.82083249      -2.14963055       7.60634802
22
Lattice="5.550877971204255 -0.6729319223382911 -1.400282728394342 -2.471414488923559 10.48082812164343 -2.035295480751997 -4.681385813009017 -5.06105889727816 10.815214537688368" Properties=species:S:1:pos:R:3 unique_starting_index=18 config_type=initial n_minim_iter=14 stress="0.00014705685362171643 7.5780829558107135e-06 -3.692853639007556e-05 7.5780829558107135e-06 0.0001226968424921143 -1.66894475108821e-05 -3.692853639007556e-05 -1.66894475108821e-05 5.3521900647695114e-05" pbc="T T T"
Si      -0.11030207       9.18883224      -1.00206621
Si      -1.52120950      -1.24470545       5.70564904
Si      -4.01098772      -3.58971338       9.66766379
Si       0.02904622      -2.79848688       8.72500504
Si      -5.58188433      -0.33458500       8.96204421
Si       4.15548476       2.08273653       0.14241344
Si       2.16795090       0.74444780       0.35257087
Si      -1.49317922       0.42799293       7.01563129
Si      -1.91805717      -3.32687367       9.38652793
Si      -2.67685430       1.04123491       5.35880926
Si       1.16478824      -0.26415865       2.51527543
Si      -2.98361553       3.52808469       5.10631365
Si      -3.36524289      -2.80080712       6.28566277
Si      -0.57302689       6.70761886      -1.10291472
Si       1.02842962       1.40708977       3.86307945
Si       1.15993513       7.70809505      -1.83575202
Si      -0.88751010      -1.28328184       3.28918946
Si       2.52842225      -4.91605460       6.40817656
Si       0.17395049       3.17234698       3.01339605
Si      -2.83049767       2.45433944       6.93228918
Si      -1.47900914       4.44097954       3.43202445
Si      -1.82095470      -2.14946784       7.60524488
22
Lattice="5.5511553898139905 -0.6729543378679705 -1.4003227975458332 -2.47152168859219 10.479365173299392 -2.0344206079726743 -4.6814860549882615 -5.059427683930997 10.815191153990023" Properties=species:S:1:pos:R:3 unique_starting_index=18 config_type=initial n_minim_iter=15 stress="0.00015992594555999247 3.8294724061099045e-05 8.703968075903496e-06 3.8294724061099045e-05 0.00024181302243029193 -1.0679513090997457e-05 8.703968075903496e-06 -1.0679513090997457e-05 0.00014529972981119793" pbc="T T T"
Si      -0.10997380       9.18732541      -1.00048322
Si      -1.52113584      -1.24394360       5.70557834
Si      -4.01083141      -3.58859967       9.66784419
Si       0.02927023      -2.79780125       8.72574873
Si      -5.58225194      -0.33396825       8.96192884
Si       4.15579037       2.08265131       0.14302790
Si       2.16808263       0.74427058       0.35324568
Si      -1.49295536       0.42871955       7.01566946
Si      -1.91787884      -3.32536826       9.38716107
Si      -2.67665786       1.04192227       5.35884555
Si       1.16467017      -0.26362185       2.51466070
Si      -2.98403748       3.52830382       5.10666783
Si      -3.36594764      -2.79919155       6.28618888
Si      -0.57290908       6.70675076      -1.10242471
Si       1.02823465       1.40732672       3.86350035
Si       1.15995867       7.70713992      -1.83532061
Si      -0.88755926      -1.28290705       3.28914594
Si       2.52882887      -4.91473035       6.40824257
Si       0.17422839       3.17229334       3.01378616
Si      -2.83112239       2.45449603       6.93268883
Si      -1.47838776       4.44114179       3.43249206
Si      -1.82090807      -2.14931064       7.60477322
22
Lattice="5.551806087097426 -0.6733543429363584 -1.4008760334801575 -2.4724632834829663 10.476611671610764 -2.0335000917505837 -4.682060587900995 -5.056592867762427 10.816558066386392" Properties=species:S:1:pos:R:3 unique_starting_index=18 config_type=initial n_minim_iter=16 stress="0.000163684416997811 1.2992859819475859e-05 2.582056550381562e-06 1.2992859819475859e-05 0.000249262830731515 1.9788352489210168e-05 2.582056550381562e-06 1.9788352489210168e-05 0.00020133534053349582" pbc="T T T"
Si      -0.11049530       9.18444396      -0.99882284
Si      -1.52145721      -1.24294130       5.70624539
Si      -4.01096665      -3.58643223       9.66935564
Si       0.02926832      -2.79653313       8.72720201
Si      -5.58322568      -0.33274752       8.96325447
Si       4.15610204       2.08193917       0.14343638
Si       2.16814612       0.74405501       0.35364675
Si      -1.49327413       0.42957271       7.01657498
Si      -1.91836718      -3.32322605       9.38897717
Si      -2.67722839       1.04288404       5.35954213
Si       1.16452847      -0.26319398       2.51431289
Si      -2.98513264       3.52835304       5.10784867
Si      -3.36712176      -2.79691480       6.28745409
Si      -0.57332868       6.70490966      -1.10190313
Si       1.02795573       1.40695328       3.86441630
Si       1.15975422       7.70487237      -1.83501143
Si      -0.88784687      -1.28232423       3.28936476
Si       2.52959186      -4.91271682       6.40882403
Si       0.17392395       3.17205747       3.01437980
Si      -2.83245878       2.45464200       6.93387904
Si      -1.47863506       4.44079344       3.43331527
Si      -1.82129881      -2.14863446       7.60529338
22
Lattice="5.552972078272994 -0.6741281429291437 -1.4019729341293317 -2.4743894141366747 10.469821329989522 -2.0316346825028666 -4.683163593054844 -5.05034967801919 10.818767754416307" Properties=species:S:1:pos:R:3 unique_starting_index=18 config_type=initial n_minim_iter=17 stress="7.642020805671998e-05 -1.9986611145764954e-05 1.5426308063933986e-05 -1.9986611145764954e-05 9.118226713197555e-05 5.6815001077172806e-05 1.5426308063933986e-05 5.6815001077172806e-05 0.00015354791906185353" pbc="T T T"
Si      -0.11152885       9.17717197      -0.99569616
Si      -1.52217829      -1.24092306       5.70735317
Si      -4.01137088      -3.58162459       9.67198265
Si       0.02887420      -2.79374293       8.72955876
Si      -5.58510549      -0.33040576       8.96558895
Si       4.15649374       2.08017123       0.14406879
Si       2.16805595       0.74350209       0.35454163
Si      -1.49413586       0.43122467       7.01776947
Si      -1.91876659      -3.31829261       9.39166707
Si      -2.67811735       1.04429825       5.36056538
Si       1.16423299      -0.26237209       2.51362012
Si      -2.98717960       3.52817321       5.10987196
Si      -3.36972539      -2.79222849       6.28944979
Si      -0.57422487       6.70035254      -1.10084921
Si       1.02700516       1.40574926       3.86599902
Si       1.15916732       7.69951085      -1.83423037
Si      -0.88849936      -1.28107879       3.28955159
Si       2.53112204      -4.90809054       6.40960778
Si       0.17320659       3.17121542       3.01526466
Si      -2.83514206       2.45476936       6.93608001
Si      -1.47933921       4.43960010       3.43467191
Si      -1.82180952      -2.14698119       7.60629102
22
Lattice="5.5536555125996685 -0.6743033173388683 -1.4025139235071151 -2.474966880195845 10.466742962426956 -2.0307206696403455 -4.684116416697622 -5.047727633978306 10.819565604747533" Properties=species:S:1:pos:R:3 unique_starting_index=18 config_type=initial n_minim_iter=18 stress="3.787225605204753e-05 -1.077845857255536e-05 1.2092123537352956e-06 -1.077845857255536e-05 3.647865335358853e-05 6.557767720916468e-05 1.2092123537352956e-06 6.557767720916468e-05 7.38405722096613e-05" pbc="T T T"
Si      -0.11162853       9.17355732      -0.99403197
Si      -1.52274036      -1.24051422       5.70766258
Si      -4.01193040      -3.57958317       9.67311343
Si       0.02870225      -2.79271715       8.73046000
Si      -5.58632159      -0.32936763       8.96631378
Si       4.15687576       2.07958731       0.14443904
Si       2.16801513       0.74344501       0.35501986
Si      -1.49452441       0.43207848       7.01799637
Si      -1.91921650      -3.31617572       9.39297165
Si      -2.67853205       1.04497225       5.36099780
Si       1.16408549      -0.26190756       2.51321989
Si      -2.98851038       3.52800364       5.11057200
Si      -3.37189014      -2.79021994       6.29012142
Si      -0.57436800       6.69833889      -1.10033537
Si       1.02674498       1.40527309       3.86656117
Si       1.15931282       7.69714426      -1.83404731