6
Lattice="3.3325537154027094 0.7122079465559894 1.4086486643633034e-14 0.48826524649237807 5.750754164707676 2.0497338093728342e-14 -3.223598990560744e-14 -2.960251966239222e-14 9.07828685637467" Properties=species:S:1:pos:R:3 unique_starting_index=22 config_type=initial n_minim_iter=1 energy=-976.3266804630205 free_energy=-976.3266804630205 pbc="T T T"
Si       2.95644010       2.46565399       0.01312885
Si       0.86437886       3.99730812       0.01312885
Si       2.58823970       4.38017464       5.66299940
Si       1.23257927       2.08278747       5.66299940
Si       1.22007301       2.41162840       7.78619679
Si       2.60074596       4.05133371       7.78619679
6
Lattice="3.322340042350023 0.7117782743815293 1.4049013781348312e-14 0.4855979330251761 5.75276347220669 2.0494477302496614e-14 -3.215390516170492e-14 -2.9527028363210405e-14 9.055177524303213" Properties=species:S:1:pos:R:3 unique_starting_index=22 config_type=initial n_minim_iter=2 stress="0.006282266385101737 0.0004243512664942713 -1.8978617853413627e-16 0.0004243512664942713 -0.006448263361067157 2.9717379676666175e-16 -1.8978617853413627e-16 2.9717379676666175e-16 0.001404404778467534" pbc="T T T"
Si       2.94684406       2.46634869       0.01257416
Si       0.86109392       3.99819305       0.01257416
Si       2.57933913       4.38013266       5.64911249
Si       1.22859885       2.08440908       5.64911249
Si       1.21498238       2.41236109       7.76636922
Si       2.59295560       4.05218065       7.76636922
6
Lattice="3.309811829494397 0.7160008023371305 1.4018293861338965e-14 0.4823614426406498 5.793413688880108 2.061553468955796e-14 -3.2198127214682595e-14 -2.956793019707048e-14 9.067705225209341" Properties=species:S:1:pos:R:3 unique_starting_index=22 config_type=initial n_minim_iter=3 stress="-0.005894160795812909 0.004663658890748083 -9.460880409559944e-17 0.004663658890748083 0.00561995934922661 2.3961061380912986e-16 -9.460880409559944e-17 2.3961061380912986e-16 0.01131687621312354" pbc="T T T"
Si       2.93346845       2.48526459       0.01045707
Si       0.85870482       4.02414990       0.01045707
Si       2.56755296       4.40355368       5.65693155
Si       1.22462031       2.10586081       5.65693155
Si       1.20653744       2.42929491       7.77924476
Si       2.58563583       4.08011958       7.77924476
6
Lattice="3.3148422188322564 0.7074481743335601 1.4008275050232378e-14 0.4603784758273158 5.830666180988534 2.065899864079769e-14 -3.207497901476637e-14 -2.9453945038069764e-14 9.032813387776386" Properties=species:S:1:pos:R:3 unique_starting_index=22 config_type=initial n_minim_iter=4 stress="0.0004897017067605545 -0.0035576677117497213 1.2172641882675e-15 -0.0035576677117497213 0.01894170351850557 1.0045193719822267e-15 1.2172641882675e-15 1.0045193719822267e-15 -0.014211035020997352" pbc="T T T"
Si       2.92512707       2.49478910       0.00650655
Si       0.85009362       4.04332526       0.00650655
Si       2.55342428       4.40714686       5.63744773
Si       1.22179642       2.13096749       5.63744773
Si       1.19900681       2.44256367       7.75093749
Si       2.57621389       4.09555069       7.75093749
6
Lattice="3.311850580126251 0.6930053778200697 1.3950563748551547e-14 0.4408369705323311 5.803434570573916 2.050083355353248e-14 -3.212647616509222e-14 -2.950156000607286e-14 9.047407827964784" Properties=species:S:1:pos:R:3 unique_starting_index=22 config_type=initial n_minim_iter=5 stress="-0.030282636837158268 -0.016457331491876368 1.9886331281752834e-15 -0.016457331491876368 -0.0012045445994691851 4.890081462726107e-16 1.9886331281752834e-15 4.890081462726107e-16 -0.013065515599287812" pbc="T T T"
Si       2.90705340       2.48187967       0.00017889
Si       0.84563415       4.01456028       0.00017889
Si       2.53363820       4.35204077       5.64906757
Si       1.21904935       2.14439918       5.64906757
Si       1.18822802       2.43356837       7.76728762
Si       2.56445953       4.06287158       7.76728762
6
Lattice="3.338255636206553 0.6997844268698633 1.4066428591649858e-14 0.4644928699477932 5.765584333368653 2.0461418739765616e-14 -3.2107919638162886e-14 -2.948437803939355e-14 9.042149081509338" Properties=species:S:1:pos:R:3 unique_starting_index=22 config_type=initial n_minim_iter=6 stress="-0.02404377639639389 0.0002134907789418172 2.003779728937576e-15 0.0002134907789418172 -0.006958635511320783 2.3976574152928573e-16 2.003779728937576e-15 2.3976574152928573e-16 -0.035989974801628355" pbc="T T T"
Si       2.92508826       2.48618695      -0.00698951
Si       0.87766025       3.97918181      -0.00698951
Si       2.56067488       4.29221848       5.65155834
Si       1.24207362       2.17315028       5.65155834
Si       1.19683146       2.42621685       7.76416697
Si       2.60591705       4.03915191       7.76416697
6
Lattice="3.3605918303862348 0.6694863136928125 1.4046968919702455e-14 0.4307947853117189 5.6939334394553045 2.0108091726397963e-14 -3.267245529156467e-14 -3.000671210149896e-14 9.202127964329994" Properties=species:S:1:pos:R:3 unique_starting_index=22 config_type=initial n_minim_iter=7 stress="0.01304942396853827 -0.0019363332477038535 1.642254206382847e-15 -0.0019363332477038535 -0.007428425140830779 2.214958652861531e-16 1.642254206382847e-15 2.214958652861531e-16 0.014839968984117255" pbc="T T T"
Si       2.91909261       2.45367381      -0.01438223
Si       0.87229401       3.90974594      -0.01438223
Si       2.54345968       4.14689970       5.76467448
Si       1.24792693       2.21652005       5.76467448
Si       1.18242996       2.38124149       7.89567859
Si       2.60895666       3.98217826       7.89567859
6
Lattice="3.347112393070682 0.6782828997080061 1.4027818940916692e-14 0.4438178356237966 5.694783539735958 2.0157060187741353e-14 -3.295112449507691e-14 -3.026465427371829e-14 9.28111391281792" Properties=species:S:1:pos:R:3 unique_starting_index=22 config_type=initial n_minim_iter=8 stress="0.007089650506589809 -0.0010555106309911605 1.3388069282473086e-15 -0.0010555106309911605 -0.006068990827131586 1.3549870679409563e-16 1.3388069282473086e-15 1.3549870679409563e-16 0.01692712954798877" pbc="T T T"
Si       2.90336139       2.46637885      -0.01653609
Si       0.88756884       3.90668758      -0.01653609
Si       2.54228061       4.11472547       5.82314747
Si       1.24864962       2.25834097       5.82314747
Si       1.18684156       2.37955874       7.95648889
Si       2.60408867       3.99350770       7.95648889
6
Lattice="3.3304064518554406 0.6866322666631591 1.3995737272983099e-14 0.45112025864107186 5.716578451463752 2.0254004906438222e-14 -3.3159057593026703e-14 -3.04571311336769e-14 9.34004465686903" Properties=species:S:1:pos:R:3 unique_starting_index=22 config_type=initial n_minim_iter=9 stress="0.00024321081142688323 -0.0014432311076043348 5.093173444846876e-16 -0.0014432311076043348 -0.0026231621058081297 1.0868821619486704e-16 5.093173444846876e-16 1.0868821619486704e-16 -0.004398155929668067" pbc="T T T"
Si       2.89779498       2.48393161      -0.01757553
Si       0.88373173       3.91927910      -0.01757553
Si       2.54201298       4.10866186       5.87013000
Si       1.23951373       2.29454886       5.87013000
Si       1.18827429       2.38847386       7.99793507
Si       2.59325242       4.01473686       7.99793507
6
Lattice="3.3136177244233616 0.7323700328874303 1.4085141711864566e-14 0.5106808520313818 5.7956851518856345 2.0723484606207843e-14 -3.351508768563476e-14 -3.078603478742214e-14 9.44082062135574" Properties=species:S:1:pos:R:3 unique_starting_index=22 config_type=initial n_minim_iter=10 stress="-0.006128305389287428 0.009294014057425732 4.774325488243918e-16 0.009294014057425732 0.008059591976194297 2.0671049530526318e-16 4.774325488243918e-16 2.0671049530526318e-16 -0.012688736429231504" pbc="T T T"
Si       2.92305261       2.55998203      -0.03112495
Si       0.90124597       3.96807316      -0.03112495
Si       2.59518745       4.14026157       5.95252856
Si       1.22911113       2.38779362       5.95252856
Si       1.22084391       2.43790439       8.07852808
Si       2.60345467       4.09015079       8.07852808
6
Lattice="3.3126918202372755 0.7380413943858399 1.4100232592096084e-14 0.5179799457871648 5.806690219919341 2.078538321701323e-14 -3.362260148690078e-14 -3.0884981470276206e-14 9.471184484749884" Properties=species:S:1:pos:R:3 unique_starting_index=22 config_type=initial n_minim_iter=11 stress="-0.011397180055123217 0.012973099853535187 -4.6941963980909456e-17 0.012973099853535187 0.0065463756896653935 1.9180921706106712e-16 -4.6941963980909456e-17 1.9180921706106712e-16 -0.010187108939860518" pbc="T T T"
Si       2.92765617       2.57286423      -0.03553984
Si       0.90301560       3.97186738      -0.03553984
Si       2.60343992       4.13194452       5.97712767
Si       1.22723185       2.41278709       5.97712767
Si       1.22521539       2.44515859       8.10337089
Si       2.60545638       4.09957303       8.10337089
6
Lattice="3.3198603055494855 0.7321453353393835 1.4106396970058068e-14 0.5084737642282962 5.80847789557029 2.075748832380805e-14 -3.3675754700267145e-14 -3.0933909211976e-14 9.48619160693046" Properties=species:S:1:pos:R:3 unique_starting_index=22 config_type=initial n_minim_iter=12 stress="-0.010468415129398095 0.0061181753705931196 -1.2377487451987035e-17 0.0061181753705931196 -0.0009870910763805567 2.0732291482078284e-17 -1.2377487451987035e-17 2.0732291482078284e-17 -0.005324378806141217" pbc="T T T"
Si       2.93099877       2.57328285      -0.04089634
Si       0.89733530       3.96734038      -0.04089634
Si       2.60108616       4.11147329       5.99052517
Si       1.22724791       2.42914994       5.99052517
Si       1.22209836       2.44655890       8.11758416
Si       2.60623571       4.09406433       8.11758416
6
Lattice="3.3401127013473944 0.7223625509751422 1.4146406725678181e-14 0.4912605350263911 5.823914628739683 2.0746693083811816e-14 -3.356993825693409e-14 -3.083602561448129e-14 9.45620526684174" Properties=species:S:1:pos:R:3 unique_starting_index=22 config_type=initial n_minim_iter=13 stress="0.005339405715999948 -0.0028380569564042057 2.656673654082656e-16 -0.0028380569564042057 -0.0021125081438296204 3.608703613427965e-16 2.656673654082656e-16 3.608703613427965e-16 -0.003536023874671189" pbc="T T T"
Si       2.94561926       2.57214686      -0.04885715
Si       0.88575398       3.97413031      -0.04885715
Si       2.60491610       4.11505680       5.97187833
Si       1.22645714       2.43122038       5.97187833
Si       1.21925640       2.45832863       8.09972462
Si       2.61211684       4.08794855       8.09972462
6
Lattice="3.3377267842067004 0.7272309721324309 1.4153818901459333e-14 0.4959027207849218 5.8398675529983635 2.081517238166618e-14 -3.363872358337898e-14 -3.089972669282287e-14 9.475705242059464" Properties=species:S:1:pos:R:3 unique_starting_index=22 config_type=initial n_minim_iter=14 stress="0.0004049375685008782 -0.0007568223280373756 4.758186962051962e-16 -0.0007568223280373756 -0.0016212266442303632 3.313238383357878e-16 4.758186962051962e-16 3.313238383357878e-16 0.000330793651196772" pbc="T T T"
Si       2.94555537       2.58136059      -0.05224806
Si       0.88807413       3.98573793      -0.05224806
Si       2.60785430       4.12106686       5.98766846
Si       1.22577521       2.44603166       5.98766846
Si       1.22134523       2.46722628       8.11624221
Si       2.61228427       4.09987224       8.11624221
6
Lattice="3.3365957062648506 0.7335102452629827 1.4170284039758035e-14 0.499253729971948 5.874114393486672 2.0938697027074178e-14 -3.377984262925666e-14 -3.1030372387166486e-14 9.51570032605448" Properties=species:S:1:pos:R:3 unique_starting_index=22 config_type=initial n_minim_iter=15 stress="-0.005032912907674983 0.0030828681930310134 7.482625037053078e-16 0.0030828681930310134 0.0013698562596419215 2.4355686683233163e-16 7.482625037053078e-16 2.4355686683233163e-16 0.002146959324557969" pbc="T T T"
Si       2.94653415       2.59085644      -0.06408790
Si       0.88931529       4.01676820      -0.06408790
Si       2.61146350       4.13921750       6.02313102
Si       1.22438594       2.46840713       6.02313102
Si       1.22229171       2.48499567       8.15192879
Si       2.61355773       4.12262897       8.15192879
6
Lattice="3.3437149066354768 0.731669172364709 1.4189614776863378e-14 0.49219530090854113 5.897156953691231 2.098861409781412e-14 -3.3928461359686374e-14 -3.116830271445587e-14 9.557869164755779" Properties=species:S:1:pos:R:3 unique_starting_index=22 config_type=initial n_minim_iter=16 stress="0.0003469608295587122 -0.0011593842552027852 1.2220996263991509e-15 -0.0011593842552027852 0.0013478733407895796 6.21044275728663e-16 1.2220996263991509e-15 6.21044275728663e-16 -0.0014981885125178011" pbc="T T T"
Si       2.95163794       2.58775976      -0.07838618
Si       0.88427227       4.04106636      -0.07838618
Si       2.61008661       4.14859847       6.06217217
Si       1.22582359       2.48022766       6.06217217
Si       1.22036619       2.49869012       8.18971870
Si       2.61554401       4.13013600       8.18971870
6
Lattice="3.347528553709859 0.7328973152331624 1.4207217149819704e-14 0.49464476864757045 5.8982266359850675 2.100068656348996e-14 -3.409371048805163e-14 -3.1321535015754916e-14 9.604746654945012" Properties=species:S:1:pos:R:3 unique_starting_index=22 config_type=initial n_minim_iter=17 stress="0.001981286479672747 0.0004809944119764796 1.0383807141302629e-15 0.0004809944119764796 0.0034080049156126916 7.574088632036379e-16 1.0383807141302629e-15 7.574088632036379e-16 -0.0011289621815166327" pbc="T T T"
Si       2.95967491       2.58265684      -0.09097647
Si       0.88249842       4.04846711      -0.09097647
Si       2.61659493       4.14966358       6.10323041
Si       1.22557840       2.48146037       6.10323041
Si       1.22279634       2.49985683       8.23076607
Si       2.61937698       4.13126712       8.23076607
6
Lattice="3.3466914693673004 0.7326140954762613 1.4203419241169272e-14 0.5037260252350639 5.852872997449084 2.0885021587803428e-14 -3.4351835432350155e-14 -3.156061296834536e-14 9.677963713657352" Properties=species:S:1:pos:R:3 unique_starting_index=22 config_type=initial n_minim_iter=18 stress="0.0014855930994745808 0.0012754759567425147 2.1689860059959394e-16 0.0012754759567425147 -0.0002216501806262491 6.595746918818061e-16 2.1689860059959394e-16 6.595746918818061e-16 0.002559976583254374" pbc="T T T"
Si       2.96246965       2.56111897      -0.10119631
Si       0.88794785       4.02436812      -0.10119631
Si       2.62021466       4.12710911       6.16223171
Si       1.23020284       2.45837798       6.16223171
Si       1.22674372       2.47759562       8.29055927
Si       2.62367378       4.10789147       8.29055927
6
Lattice="3.344734119482361 0.7324532173711849 1.4195981989065719e-14 0.5035283871241772 5.851156874030361 2.0878714709048117e-14 -3.4398732587584804e-14 -3.160411527898727e-14 9.691282014282741" Properties=species:S:1:pos:R:3 unique_starting_index=22 config_type=initial n_minim_iter=19 stress="0.0001749797218272808 0.00038902394446717364 1.4870421721924454e-16 0.00038902394446717364 -0.00043258841986758425 9.75153633078657e-16 1.4870421721924454e-16 9.75153633078657e-16 0.0005179470728795777" pbc="T T T"
Si       2.96012156       2.55958937      -0.10369840
Si       0.88814095       4.02402072      -0.10369840
Si       2.61747633       4.12680994       6.17359955
Si       1.23078617       2.45680015       6.17359955
Si       1.22631385       2.47595930       8.30144341
Si       2.62194866       4.10765079       8.30144341
6
Lattice="3.3431888308058433 0.7317215603705142 1.4188140213329838e-14 0.5014801287675508 5.853773863499797 2.0879959935809703e-14 -3.436172736899615e-14 -3.157000251724863e-14 9.680822863761039" Properties=species:S:1:pos:R:3 unique_starting_index=22 config_type=initial n_minim_iter=20 stress="-0.0003040765743269656 -0.0004584478778238147 6.503532960465195e-16 -0.0004584478778238147 -5.2033659807427724e-05 9.310383733117759e-16 6.503532960465195e-16 9.310383733117759e-16 -0.0006731917768964805" pbc="T T T"
Si       2.95753952       2.56240940      -0.10120918
Si       0.88712944       4.02308602      -0.10120918
Si       2.61466760       4.12871556       6.16469745
Si       1.23000136       2.45677986       6.16469745
Si       1.22508489       2.47653226       8.29234627
Si       2.61958407       4.10896316       8.29234627
6
Lattice="3.3428335258231168 0.7321049301673952 1.4188175496691818e-14 0.5028510803784545 5.850210876712351 2.087318620548292e-14 -3.437233468808683e-14 -3.1579990105246545e-14 9.683867382065122" Properties=species:S:1:pos:R:3 unique_starting_index=22 config_type=initial n_minim_iter=21 stress="-0.0002881458331605151 2.0529443044918372e-05 2.0314559322285658e-16 2.0529443044918372e-05 -0.0004185646681758965 6.584307168576116e-16 2.0314559322285658e-16 6.584307168576116e-16 -0.0006424716035518873" pbc="T T T"
Si       2.95771352       2.56408026      -0.10079458
Si       0.88797109       4.01823555      -0.10079458
Si       2.61529252       4.12769901       6.16672040
Si       1.23039209       2.45461679       6.16672040
Si       1.22583765       2.47479512       8.29442348
Si       2.61984695       4.10752069       8.29442348
