10
Lattice="5.376824907207033 0.6494628201735612 -5.486477428683916e-17 -2.1369907759343354 5.412689609962756 -4.572486438191598e-16 -2.7733917532414696e-31 5.4265055365302035e-16 6.423636359126932" Properties=species:S:1:pos:R:3 unique_starting_index=14 config_type=initial n_minim_iter=9 energy=-1628.5685536249227 free_energy=-1628.5685536249227 pbc="T T T"
Si       0.66883691       2.56274951       0.48330545
Si       2.57099722       3.49940292       0.48330545
Si       2.38420187       1.34533662       0.18602474
Si       0.85563225       4.71681581       0.18602474
Si       1.19219771       0.02542193       5.40831643
Si       2.04763641       6.03673050       5.40831643
Si       0.95431786       3.85907451       2.13849303
Si       2.28551627       2.20307792       2.13849303
Si      -0.69663901       3.91153360       3.56572351
Si       3.93647314       2.15061883       3.56572351
