6
Lattice="3.342414169911086 0.7363335729269134 1.4200477443789599e-14 0.5077754359695913 5.86122880187045 2.087739723460744e-14 -3.4498769679608926e-14 -3.1695521609644057e-14 9.71925556626543" Properties=species:S:1:pos:R:3 unique_starting_index=22 config_type=initial n_minim_iter=13 energy=-976.8098735421237 free_energy=-976.8098735421237 pbc="T T T"
Si       2.96065009       2.57361869      -0.10665829
Si       0.88953951       4.02394368      -0.10665829
Si       2.61666426       4.13573451       6.19587686
Si       1.23352535       2.46182787       6.19587686
Si       1.22883685       2.48179406       8.32360839
Si       2.62135275       4.11576831       8.32360839
