8
Lattice="4.951919704516181 -1.661620054874463e-16 8.166496247448903e-16 2.1998764614608378e-16 2.591376274449956 0.4336640083182988 -1.5533200362810095e-15 1.0760841498021696 9.77430151261989" Properties=species:S:1:pos:R:3 unique_starting_index=34 config_type=initial n_minim_iter=1 energy=-1302.6690955463396 free_energy=-1302.6690955463396 pbc="T T T"
Si       1.24592107       2.12320543       6.36377540
Si       1.24592107       1.54425500       3.84419012
Si       1.22560677       3.38330060       8.97066290
Si       1.22560677       0.28415983       1.23730262
Si       3.70599864       0.78660894       8.51450888
Si       3.70599864       2.88085149       1.69345664
Si       3.72631293       2.11789004       6.34128538
Si       3.72631293       1.54957038       3.86668014
8
Lattice="4.963893538784499 -1.6697856263473637e-16 8.224224470896211e-16 2.211332817272998e-16 2.5970009715421005 0.4315596935359109 -1.543731180351104e-15 1.0727586472196189 9.760701280260173" Properties=species:S:1:pos:R:3 unique_starting_index=34 config_type=initial n_minim_iter=2 stress="0.0024635206874194094 -4.9497508492259176e-17 -8.050148578513773e-18 -4.9497508492259176e-17 -0.0004790888922641359 0.0003344308907491592 -8.050148578513773e-18 0.0003344308907491592 0.0017547213925034285" pbc="T T T"
Si       1.24907240       2.12440514       6.35358673
Si       1.24907240       1.54535448       3.83867424
Si       1.22887479       3.38536650       8.95659424
Si       1.22887479       0.28439311       1.23566673
Si       3.71482113       0.78323331       8.50324503
Si       3.71482113       2.88652630       1.68901594
Si       3.73501875       2.11927292       6.33179722
Si       3.73501875       1.55048670       3.86046376
8
Lattice="4.956238481379257 -1.6442072053634634e-16 8.331880481642536e-16 2.242409256670945e-16 2.605546897467232 0.42622742554037685 -1.5121054654220884e-15 1.0640170077397957 9.71395960429814" Properties=species:S:1:pos:R:3 unique_starting_index=34 config_type=initial n_minim_iter=3 stress="-0.0011853742488373896 1.628463094294607e-17 3.002785134320892e-17 1.628463094294607e-17 0.00028279219605842354 -0.00017955522986506592 3.002785134320892e-17 -0.00017955522986506592 -0.0027225609577012254" pbc="T T T"
Si       1.24753029       2.12416087       6.31986556
Si       1.24753029       1.54540304       3.82032147
Si       1.22791223       3.38473048       8.90994987
Si       1.22791223       0.28483342       1.23023716
Si       3.70870819       0.77463810       8.46418756
Si       3.70870819       2.89492581       1.67599947
Si       3.72832625       2.11961537       6.30033067
Si       3.72832625       1.54994853       3.83985636
8
Lattice="4.955949701273287 -1.641719370637849e-16 8.294883505728402e-16 2.238843457435474e-16 2.6055756856457633 0.4271395905187256 -1.5227523076631715e-15 1.0639425090489474 9.735035386458762" Properties=species:S:1:pos:R:3 unique_starting_index=34 config_type=initial n_minim_iter=4 stress="-0.0007804659536047966 2.9356262994411435e-17 -1.0524704720785108e-16 2.9356262994411435e-17 0.0017163057150480492 -0.00030401873626239646 -1.0524704720785108e-16 -0.00030401873626239646 0.0005502372153997729" pbc="T T T"
Si       1.24760373       2.12451930       6.33287309
Si       1.24760373       1.54499890       3.82930189
Si       1.22835933       3.38391632       8.92852020
Si       1.22835933       0.28560188       1.23365478
Si       3.70834597       0.77418231       8.48324979
Si       3.70834597       2.89533589       1.67892519
Si       3.72759037       2.12036098       6.31474227
Si       3.72759037       1.54915722       3.84743271
8
Lattice="4.963233680287064 -1.646162723166465e-16 8.276462790324491e-16 2.231955144514593e-16 2.596783874671202 0.4291051905260032 -1.531305021564398e-15 1.065094461505382 9.750638471547495" Properties=species:S:1:pos:R:3 unique_starting_index=34 config_type=initial n_minim_iter=5 stress="0.002164700409355907 1.70807140819836e-17 -3.0149775445571175e-17 1.70807140819836e-17 -0.0007172407604860282 -0.00013268310018561987 -3.0149775445571175e-17 -0.00013268310018561987 0.0013724782937154158" pbc="T T T"
Si       1.24977337       2.12145052       6.34167871
Si       1.24977337       1.54042782       3.83806495
Si       1.23167012       3.37435266       8.94173730
Si       1.23167012       0.28752568       1.23800636
Si       3.71346031       0.77458311       8.49883159
Si       3.71346031       2.88729523       1.68091207
Si       3.73156356       2.11846485       6.32787819
Si       3.73156356       1.54341349       3.85186547
8
Lattice="4.958401988259477 -1.6532946178010806e-16 8.302588521116041e-16 2.229176327790839e-16 2.601282264244269 0.42951758552204744 -1.5227062683080753e-15 1.0704471143840557 9.73911060936321" Properties=species:S:1:pos:R:3 unique_starting_index=34 config_type=initial n_minim_iter=6 stress="0.00026337925725741454 1.1091956893415159e-16 4.3210815700739465e-17 1.1091956893415159e-16 0.0006588067445928079 -0.00024496357834362565 4.3210815700739465e-17 -0.00024496357834362565 0.002059370401892333" pbc="T T T"
Si       1.24952900       2.13209935       6.32581157
Si       1.24952900       1.53963003       3.84281663
Si       1.23637073       3.37374012       8.92331985
Si       1.23637073       0.29798926       1.24530834
Si       3.70887299       0.77421245       8.49761314
Si       3.70887299       2.89751693       1.67101506
Si       3.72203126       2.13385395       6.32962244
Si       3.72203126       1.53787543       3.83900576
8
Lattice="4.958301035930657 -1.6749523947312922e-16 8.397667344712423e-16 2.2253394615093674e-16 2.603131989329333 0.43036240908327555 -1.4987789568316732e-15 1.0797359382395888 9.707236122586073" Properties=species:S:1:pos:R:3 unique_starting_index=34 config_type=initial n_minim_iter=7 stress="-0.000369092612583813 2.855335654326229e-17 7.388081831360685e-17 2.855335654326229e-17 -0.0008250173371217206 0.0003367359011230334 7.388081831360685e-17 0.0003367359011230334 -0.0019858101383976646" pbc="T T T"
Si       1.24767424       2.14058130       6.30607573
Si       1.24767424       1.54228662       3.83152280
Si       1.23569343       3.38159993       8.89498858
Si       1.23569343       0.30126800       1.24260995
Si       3.71062680       0.78058860       8.46995966
Si       3.71062680       2.90227933       1.66763887
Si       3.72260761       2.14270196       6.31140922
Si       3.72260761       1.54016596       3.82618931
8
Lattice="4.9569722617159755 -1.6690131817222266e-16 8.4452902304274125e-16 2.234977974168516e-16 2.6055911581302946 0.42908349831363135 -1.4881176654163784e-15 1.0767560285365019 9.702319598372991" Properties=species:S:1:pos:R:3 unique_starting_index=34 config_type=initial n_minim_iter=8 stress="-0.000597192099568939 6.304690959979924e-17 1.7817188186530254e-17 6.304690959979924e-17 0.00028979334895916977 -9.758576151248273e-05 1.7817188186530254e-17 -9.758576151248273e-05 -0.00023024938090059725" pbc="T T T"
Si       1.24124022       2.14762757       6.30064317
Si       1.24124022       1.53471961       3.83075993
Si       1.23431865       3.37221630       8.88448538
Si       1.23431865       0.31013089       1.24691772
Si       3.71573204       0.77030205       8.46737798
Si       3.71573204       2.91204514       1.66402512
Si       3.72265361       2.15130448       6.31261927
Si       3.72265361       1.53104271       3.81878383
8
Lattice="4.960143940880111 -1.6840182241317141e-16 8.501812576184186e-16 2.2310165412272456e-16 2.6044222070041685 0.4303295896944984 -1.4774667369693486e-15 1.081607094524464 9.698516759803967" Properties=species:S:1:pos:R:3 unique_starting_index=34 config_type=initial n_minim_iter=9 stress="0.0007080353161381205 1.1528818221593492e-17 2.0543063393363627e-17 1.1528818221593492e-17 -0.00010567046672651822 -3.6266469876019393e-06 2.0543063393363627e-17 -3.6266469876019393e-06 0.0009979665974750775" pbc="T T T"
Si       1.23690427       2.15963754       6.29820438
Si       1.23690427       1.52639176       3.83064197
Si       1.23593785       3.36452882       8.87720501
Si       1.23593785       0.32150048       1.25164134
Si       3.72323967       0.76498421       8.46473555
Si       3.72323967       2.92104510       1.66411080
Si       3.72420609       2.16451513       6.31606452
Si       3.72420609       1.52151417       3.81278183
8
Lattice="4.962754349547898 -1.727436293873295e-16 8.809754814138925e-16 2.2419617682486416e-16 2.6135869589608918 0.4288756665586776 -1.40472422734873e-15 1.093106828609916 9.619771057590162" Properties=species:S:1:pos:R:3 unique_starting_index=34 config_type=initial n_minim_iter=10 stress="0.0016916367843250308 7.192978527617749e-17 -1.5371277172613636e-17 7.192978527617749e-17 0.00037976422946336426 -6.854063589967213e-05 -1.5371277172613636e-17 -6.854063589967213e-05 0.0006736398938663155" pbc="T T T"
Si       1.23218130       2.21561243       6.26341723
Si       1.23218130       1.49108136       3.78522949
Si       1.25087842       3.34562064       8.80349074
Si       1.25087842       0.36107315       1.24515599
Si       3.73057305       0.73084129       8.38067719
Si       3.73057305       2.97585249       1.66796954
Si       3.71187593       2.21442004       6.26947935
Si       3.71187593       1.49227375       3.77916737
8
Lattice="4.959141480721403 -1.7329205333473546e-16 8.917429839539758e-16 2.2472008678922253e-16 2.6136770260004876 0.42871724551051593 -1.3818910505297837e-15 1.0931432520817899 9.616206264874588" Properties=species:S:1:pos:R:3 unique_starting_index=34 config_type=initial n_minim_iter=11 stress="0.0002169400316653427 3.389082868380844e-17 1.1923654188867915e-17 3.389082868380844e-17 3.866406327947641e-05 -5.877524652395301e-05 1.1923654188867915e-17 -5.877524652395301e-05 8.017411026047054e-05" pbc="T T T"
Si       1.23118115       2.21605742       6.26290619
Si       1.23118115       1.49076286       3.78201732
Si       1.24899080       3.34646038       8.80225931
Si       1.24899080       0.36035990       1.24266420
Si       3.72796033       0.73049597       8.37576183
Si       3.72796033       2.97632431       1.66916168
Si       3.71015068       2.21377004       6.26512596
Si       3.71015068       1.49305024       3.77979755
8
Lattice="4.955500590380428 -1.7537551994667707e-16 9.105369759033632e-16 2.250356472614791e-16 2.6143170060091334 0.4292763269515788 -1.3429102359808583e-15 1.0966156681143189 9.60964580897163" Properties=species:S:1:pos:R:3 unique_starting_index=34 config_type=initial n_minim_iter=12 stress="-0.0012922311591499543 6.7075620894578186e-18 -4.7641418803492536e-18 6.7075620894578186e-18 -0.00021657921928984564 -3.2015246321662805e-05 -4.7641418803492536e-18 -3.2015246321662805e-05 -0.000560120450311495" pbc="T T T"
Si       1.23024633       2.22106997       6.26031800
Si       1.23024633       1.48986271       3.77860414
Si       1.24684314       3.34862106       8.79964441
Si       1.24684314       0.36231162       1.23927772
Si       3.72525426       0.73101204       8.36878888
Si       3.72525426       2.97992063       1.67013326
Si       3.70865745       2.21777795       6.25873879
Si       3.70865745       1.49315472       3.78018334
8
Lattice="4.9587948059432065 -1.7971097542983442e-16 9.291403053186747e-16 2.2412972965237375e-16 2.614299225169027 0.4315896210321327 -1.3077746922945283e-15 1.105333385461202 9.609647686578173" Properties=species:S:1:pos:R:3 unique_starting_index=34 config_type=initial n_minim_iter=13 stress="2.9916215293837712e-05 -4.2730841946071187e-17 -1.4357649834666114e-17 -4.2730841946071187e-17 -7.695260318200757e-06 5.398264402695998e-05 -1.4357649834666114e-17 5.398264402695998e-05 -2.818511059280007e-06" pbc="T T T"
Si       1.23218768       2.23101112       6.25909332
Si       1.23218768       1.48862149       3.78214398
Si       1.24724541       3.35090469       8.80266407
Si       1.24724541       0.36872792       1.23857324
Si       3.72660713       0.73413857       8.37117302
Si       3.72660713       2.98549404       1.67006429
Si       3.71154939       2.22854423       6.25919189
Si       3.71154939       1.49108838       3.78204541
8
Lattice="4.959679483364591 -1.814379132367474e-16 9.534708283161552e-16 2.257548921969411e-16 2.613444143482131 0.42948513536045363 -1.261227990911271e-15 1.0965426755001155 9.6126223855845" Properties=species:S:1:pos:R:3 unique_starting_index=34 config_type=initial n_minim_iter=14 stress="0.00040770847409395496 1.1295541655544012e-16 3.538110833285731e-17 1.1295541655544012e-16 8.614167266435189e-05 -0.0003742405626951142 3.538110833285731e-17 -0.0003742405626951142 0.0003788723621319593" pbc="T T T"
Si       1.23624465       2.22467116       6.26111541
Si       1.23624465       1.48531566       3.78099211
Si       1.24279556       3.34236211       8.80470825
Si       1.24279556       0.36762471       1.23739927
Si       3.72343483       0.72686493       8.37256073
Si       3.72343483       2.98312189       1.66954679
Si       3.71688392       2.22261812       6.25845303
Si       3.71688392       1.48736870       3.78365449
8
Lattice="4.958841645087419 -1.8498446252108444e-16 9.737785010323488e-16 2.2547126873930557e-16 2.6152273010340408 0.43071550955014176 -1.2188057598701063e-15 1.1042422937824465 9.598768959562625" Properties=species:S:1:pos:R:3 unique_starting_index=34 config_type=initial n_minim_iter=15 stress="2.5284714768807046e-05 7.061433770882282e-17 2.6453164530014312e-17 7.061433770882282e-17 3.2268393889052285e-05 -3.572361489052107e-05 2.6453164530014312e-17 -3.572361489052107e-05 0.0001432003504131356" pbc="T T T"
Si       1.23958941       2.23687154       6.25399655
Si       1.23958941       1.48259805       3.77548791
Si       1.23979684       3.34238449       8.79009187
Si       1.23979684       0.37708510       1.23939260
Si       3.71925223       0.72710555       8.35951464
Si       3.71925223       2.99236405       1.66996983
Si       3.71904480       2.23681990       6.25413484
Si       3.71904480       1.48264969       3.77534963
