6
Lattice="3.3428335258231163 0.7321049301673951 1.4188175496691818e-14 0.5028510803784547 5.850210876712352 2.082397868175696e-14 -3.4373802493558815e-14 -3.158031156535345e-14 9.68386738206512" Properties=species:S:1:pos:R:3 unique_starting_index=22 config_type=initial n_minim_iter=1 energy=-976.8095935733835 free_energy=-976.8095935733835 pbc="T T T"
Si       2.95771352       2.56408026      -0.10079458
Si       0.88797109       4.01823555      -0.10079458
Si       2.61529252       4.12769901       6.16672040
Si       1.23039209       2.45461679       6.16672040
Si       1.22583765       2.47479512       8.29442348
Si       2.61984695       4.10752069       8.29442348
6
Lattice="3.342958787442974 0.7321363458574938 1.418872274387573e-14 0.5028543552175316 5.8505330014532335 2.0825040913030784e-14 -3.437670448836817e-14 -3.158298760708795e-14 9.684689310441057" Properties=species:S:1:pos:R:3 unique_starting_index=22 config_type=initial n_minim_iter=2 stress="3.983913863144714e-05 6.119272823735003e-05 -4.888813138608345e-16 6.119272823735003e-05 -0.00025597649205932963 -3.1452086359887503e-16 -4.888813138608345e-16 -3.1452086359887503e-16 0.0001639549087315726" pbc="T T T"
Si       2.95781488       2.56421947      -0.10080001
Si       0.88799826       4.01844988      -0.10080001
Si       2.61537376       4.12791974       6.16723760
Si       1.23043939       2.45474960       6.16723760
Si       1.22586737       2.47493111       8.29513056
Si       2.61994577       4.10773823       8.29513056
6
Lattice="3.3430025547270454 0.7321627359968669 1.4188964163894243e-14 0.5026460904395489 5.851724894517464 2.0828188574594314e-14 -3.4376887029970454e-14 -3.158315591874463e-14 9.684741004940959" Properties=species:S:1:pos:R:3 unique_starting_index=22 config_type=initial n_minim_iter=3 stress="0.0003984303840428484 7.768179871151581e-05 -6.12172085313406e-16 7.768179871151581e-05 0.00010127647462020669 -1.7081094282891135e-16 -6.12172085313406e-16 -1.7081094282891135e-16 -0.0002144266051764563" pbc="T T T"
Si       2.95775523       2.56467540      -0.10080125
Si       0.88789342       4.01921222      -0.10080125
Si       2.61524053       4.12866523       6.16733236
Si       1.23040811       2.45522240       6.16733236
Si       1.22575119       2.47543725       8.29511370
Si       2.61989746       4.10845037       8.29511370
6
Lattice="3.3425011121840176 0.7320604980512704 1.4186850747522782e-14 0.5021458762881623 5.852847504317797 2.0830073963537265e-14 -3.4379993542986784e-14 -3.158602006230636e-14 9.685620649909652" Properties=species:S:1:pos:R:3 unique_starting_index=22 config_type=initial n_minim_iter=4 stress="-0.00015444251091772577 -5.780071836855339e-05 -5.116068722636917e-16 -5.780071836855339e-05 0.00011452121155671008 -4.233781995155616e-16 -5.116068722636917e-16 -4.233781995155616e-16 -1.9221935800122767e-05" pbc="T T T"
Si       2.95711720       2.56503268      -0.10082791
Si       0.88752979       4.01987532      -0.10082791
Si       2.61453833       4.12925390       6.16796905
Si       1.23010866       2.45565410       6.16796905
Si       1.22534273       2.47594850       8.29580811
Si       2.61930426       4.10895950       8.29580811
6
Lattice="3.3426970115508987 0.732093067081298 1.4187652319290243e-14 0.5021009455304104 5.853447472884075 2.08318710564346e-14 -3.438570006888994e-14 -3.1591281730198057e-14 9.687236645388355" Properties=species:S:1:pos:R:3 unique_starting_index=22 config_type=initial n_minim_iter=5 stress="7.698311598901446e-05 -0.00020153620313306347 -3.179133036033665e-16 -0.00020153620313306347 -3.540121054386779e-05 -5.96950223876759e-17 -3.179133036033665e-16 -5.96950223876759e-17 -1.4866484172029317e-05" pbc="T T T"
Si       2.95708895       2.56547289      -0.10091186
Si       0.88770901       4.02006765      -0.10091186
Si       2.61459684       4.12951526       6.16922743
Si       1.23020111       2.45602528       6.16922743
Si       1.22539498       2.47653302       8.29703007
Si       2.61940298       4.10900751       8.29703007
6
Lattice="3.34272373293773 0.7324173861695042 1.4188804829809556e-14 0.5025890640038388 5.8538286656974545 2.0834846916812853e-14 -3.4388252296528994e-14 -3.159363480736034e-14 9.687959396300293" Properties=species:S:1:pos:R:3 unique_starting_index=22 config_type=initial n_minim_iter=6 stress="-3.392016695403312e-05 9.032145364381765e-05 -7.403517917230758e-16 9.032145364381765e-05 7.588687346429106e-06 -2.4054158787818166e-16 -7.403517917230758e-16 -2.4054158787818166e-16 -5.218304234676617e-06" pbc="T T T"
Si       2.95721460       2.56599758      -0.10097729
Si       0.88809820       4.02024847      -0.10097729
Si       2.61492484       4.12989804       6.16980064
Si       1.23038796       2.45634801       6.16980064
Si       1.22554377       2.47688960       8.29759406
Si       2.61976903       4.10935645       8.29759406
6
Lattice="3.343141983490791 0.7326762085302273 1.4191133523329231e-14 0.5025942668075422 5.856160423011454 2.084246962184584e-14 -3.440964144638957e-14 -3.161335652026893e-14 9.694016477891282" Properties=species:S:1:pos:R:3 unique_starting_index=22 config_type=initial n_minim_iter=7 stress="8.487516386230703e-05 -3.663850586291443e-05 6.908357542203769e-17 -3.663850586291443e-05 -8.599758736859442e-05 -2.1939810792068926e-16 6.908357542203769e-17 -2.1939810792068926e-16 -3.610148828502242e-05" pbc="T T T"
Si       2.95734936       2.56865849      -0.10209814
Si       0.88838689       4.02017814      -0.10209814
Si       2.61520779       4.13043807       6.17485559
Si       1.23052847       2.45839856       6.17485559
Si       1.22565111       2.47809670       8.30264210
Si       2.62008514       4.11073993       8.30264210
6
Lattice="3.3429671982715203 0.7329523245299893 1.4191413593933182e-14 0.5028179910051431 5.857225260998839 2.0846736566859907e-14 -3.441507932278756e-14 -3.161837012078792e-14 9.695556405766" Properties=species:S:1:pos:R:3 unique_starting_index=22 config_type=initial n_minim_iter=8 stress="2.153519774098163e-06 6.768200640597393e-06 1.1662003946758293e-15 6.768200640597393e-06 6.124214426199485e-05 3.2811260066136535e-16 1.1662003946758293e-15 3.2811260066136535e-16 -3.845959756214343e-05" pbc="T T T"
Si       2.95725878       2.56951807      -0.10233447
Si       0.88852641       4.02065951      -0.10233447
Si       2.61531585       4.13118153       6.17611385
Si       1.23046934       2.45899606       6.17611385
Si       1.22585120       2.47861447       8.30390375
Si       2.61993399       4.11156311       8.30390375
6
Lattice="3.3425602825338223 0.7334453305039588 1.4191576994634424e-14 0.5034656675105688 5.857928023861595 2.0851327732142944e-14 -3.444746497035106e-14 -3.164823056332835e-14 9.704727501384044" Properties=species:S:1:pos:R:3 unique_starting_index=22 config_type=initial n_minim_iter=9 stress="-2.435703225197029e-05 -6.218996990030472e-05 4.625443272448884e-16 -6.218996990030472e-05 -2.1433040556621568e-05 5.222418731815477e-16 4.625443272448884e-16 5.222418731815477e-16 -1.784046862851874e-05" pbc="T T T"
Si       2.95791676       2.57101032      -0.10340557
Si       0.88810919       4.02036304      -0.10340557
Si       2.61535832       4.13208588       6.18346080
Si       1.23066764       2.45928747       6.18346080
Si       1.22630748       2.47920503       8.31122784
Si       2.61971847       4.11216832       8.31122784
6
Lattice="3.3415042076207 0.7365594682800833 1.4197983946484948e-14 0.5081674558234509 5.860618920471378 2.087679437263127e-14 -3.452319751645564e-14 -3.171805583165764e-14 9.726173575360525" Properties=species:S:1:pos:R:3 unique_starting_index=22 config_type=initial n_minim_iter=10 stress="2.499280902232571e-05 2.3613160470579945e-05 5.939454293379613e-16 2.3613160470579945e-05 6.732822497682366e-05 2.852364242943686e-16 5.939454293379613e-16 2.852364242943686e-16 0.00010770706618378438" pbc="T T T"
Si       2.95957346       2.57603642      -0.10664244
Si       0.89009820       4.02114196      -0.10664244
Si       2.61584957       4.13624708       6.20097220
Si       1.23382209       2.46093131       6.20097220
Si       1.22890073       2.48129487       8.32875602
Si       2.62077094       4.11588352       8.32875602
6
Lattice="3.3418706836860532 0.7356907357860801 1.4196451739674955e-14 0.5070957634369032 5.858822052144818 2.0867131975605943e-14 -3.4491391086488257e-14 -3.168872575060798e-14 9.717166333963963" Properties=species:S:1:pos:R:3 unique_starting_index=22 config_type=initial n_minim_iter=11 stress="-6.345237863619741e-06 5.788584179356592e-07 2.0894975242739955e-16 5.788584179356592e-07 -3.584650723859318e-05 5.782182472866402e-16 2.0894975242739955e-16 5.782182472866402e-16 -6.584934315496912e-05" pbc="T T T"
Si       2.95927433       2.57353893      -0.10550340
Si       0.88969212       4.02097386      -0.10550340
Si       2.61577749       4.13466992       6.19372363
Si       1.23318896       2.45984286       6.19372363
Si       1.22828515       2.48017180       8.32150858
Si       2.62068130       4.11434099       8.32150858
6
Lattice="3.341837626492412 0.7360241307340338 1.4197421657866501e-14 0.50754270351528 5.859422733289066 2.0870678731360037e-14 -3.45010234894768e-14 -3.169760448830739e-14 9.719893945679377" Properties=species:S:1:pos:R:3 unique_starting_index=22 config_type=initial n_minim_iter=12 stress="-1.4109168171368182e-05 -2.5805428715457097e-06 8.475492404388153e-16 -2.5805428715457097e-06 -2.668785824356002e-05 9.553326467391381e-16 8.475492404388153e-16 9.553326467391381e-16 8.96118341372572e-05" pbc="T T T"
Si       2.95960567       2.57405787      -0.10599352
Si       0.88977466       4.02138899      -0.10599352
Si       2.61593261       4.13516270       6.19599255
Si       1.23344772       2.46028417       6.19599255
Si       1.22856538       2.48059767       8.32377460
Si       2.62081495       4.11484919       8.32377460
6
Lattice="3.342414169911086 0.7363335729269134 1.4200477443789599e-14 0.5077754359695913 5.86122880187045 2.087739723460744e-14 -3.4498769679608926e-14 -3.1695521609644057e-14 9.71925556626543" Properties=species:S:1:pos:R:3 unique_starting_index=22 config_type=initial n_minim_iter=13 stress="-2.3408062691939646e-05 -1.20626762644776e-06 9.625225653349174e-16 -1.20626762644776e-06 1.573476178151274e-05 1.0595624348985582e-15 9.625225653349174e-16 1.0595624348985582e-15 3.4364548845889825e-06" pbc="T T T"
Si       2.96065009       2.57361869      -0.10665829
Si       0.88953951       4.02394368      -0.10665829
Si       2.61666426       4.13573451       6.19587686
Si       1.23352535       2.46182787       6.19587686
Si       1.22883685       2.48179406       8.32360839
Si       2.62135275       4.11576831       8.32360839
