22
Lattice="5.445720848235054 0.5235958684867743 -0.006377543157630786 3.358168636601887 5.569586133224462 0.21065386336906572 0.9397773793996046 1.0434320195356583 15.808382294491649" Properties=species:S:1:pos:R:3 unique_starting_index=40 config_type=initial n_minim_iter=1 energy=-3584.756793942724 free_energy=-3584.756793942724 pbc="T T T"
Si       6.73962660       2.89286902      12.31225777
Si       1.55371299       2.57515461       4.24641900
Si       5.00168475       1.42316838       7.20534395
Si       4.01930285       4.53732051      13.19364118
Si       4.23974060       3.04322856      14.69379204
Si       6.49917922       6.16767579       6.73497615
Si       6.16323749       2.68670763       1.93115998
Si       5.46116241       5.11551342       9.83234157
Si       4.63566340       2.71109040       0.36891455
Si       4.93129588       5.35352550      14.93028720
Si       5.21052324       2.96125841      10.65020907
Si       3.82824432       4.55178692      11.05814646
Si       2.66028317       1.73163671       0.90565750
Si       1.54587128       0.72540875       7.93611143
Si       2.96861272       1.36462757      15.06502711
Si       6.94623272       6.29198982       8.83750478
Si       3.80605502       2.95143040       4.11389555
Si       4.54728854       6.73784069       6.05702636
Si       5.44918898       4.19663877       3.24669498
Si       5.51723517       1.14404323       9.47439783
Si       6.25405164       2.32090070      14.48024405
Si       4.66015775       1.20168576       5.10913943
22
Lattice="5.445736925029576 0.523510404261327 -0.006322343713800195 3.3581101573342327 5.569409969755017 0.2106042470646217 0.939947365145524 1.0431786216466619 15.807515255856556" Properties=species:S:1:pos:R:3 unique_starting_index=40 config_type=initial n_minim_iter=2 stress="-0.0003257939970934222 -5.1210444330012677e-05 2.5284235743457725e-05 -5.1210444330012677e-05 -0.00013671444847297606 1.7205241595677812e-05 2.5284235743457725e-05 1.7205241595677812e-05 -0.00039679745155895717" pbc="T T T"
Si       6.73976952       2.89254925      12.31163457
Si       1.55374742       2.57503317       4.24614747
Si       5.00181721       1.42296588       7.20499338
Si       4.01941607       4.53697360      13.19292407
Si       4.23987569       3.04290029      14.69299188
Si       6.49918550       6.16734548       6.73457755
Si       6.16326404       2.68652673       1.93108543
Si       5.46123248       5.11517067       9.83181247
Si       4.63565707       2.71099582       0.36888841
Si       4.93140766       5.35310852      14.92947025
Si       5.21061456       2.96097423      10.64962467
Si       3.82836274       4.55148482      11.05753632
Si       2.66026675       1.73154735       0.90560995
Si       1.54590215       0.72525801       7.93563612
Si       2.96877285       1.36434264      15.06419732
Si       6.94628124       6.29162380       8.83703484
Si       3.80610442       2.95125484       4.11367929
Si       4.54728562       6.73750780       6.05672027
Si       5.44916732       4.19645809       3.24651452
Si       5.51733000       1.14383936       9.47390755
Si       6.25420818       2.32057618      14.47949681
Si       4.66021595       1.20150906       5.10891579
22
Lattice="5.446080534558049 0.5234617582472169 -0.006277094363233953 3.3582800219940343 5.569346816957507 0.21052215413379546 0.9401618455007001 1.0428336696426135 15.80750083208145" Properties=species:S:1:pos:R:3 unique_starting_index=40 config_type=initial n_minim_iter=3 stress="0.0001856691824314542 3.2938478017432636e-06 6.196010389732852e-05 3.2938478017432636e-06 6.142428121452424e-06 -5.1646072365458664e-05 6.196010389732852e-05 -5.1646072365458664e-05 -0.00010469137738436243" pbc="T T T"
Si       6.74032339       2.89222876      12.31166010
Si       1.55389035       2.57494278       4.24607552
Si       5.00226818       1.42276037       7.20502645
Si       4.01977864       4.53662660      13.19289336
Si       4.24025777       3.04253819      14.69295727
Si       6.49959727       6.16710151       6.73448242
Si       6.16367850       2.68640329       1.93108704
Si       5.46165166       5.11486763       9.83177868
Si       4.63594958       2.71098785       0.36885326
Si       4.93182176       5.35269518      14.92943433
Si       5.21101394       2.96069134      10.64958194
Si       3.82873367       4.55120344      11.05750057
Si       2.66040747       1.73149428       0.90559838
Si       1.54599630       0.72506642       7.93556517
Si       2.96909694       1.36398214      15.06416317
Si       6.94676598       6.29133543       8.83700493
Si       3.80640596       2.95112042       4.11366497
Si       4.54758350       6.73725563       6.05671954
Si       5.44947436       4.19637509       3.24647206
Si       5.51773750       1.14362804       9.47391093
Si       6.25473198       2.32022496      14.47951727
Si       4.66055047       1.20133118       5.10896178
22
Lattice="5.445882479532348 0.5234284539635752 -0.006369636979462371 3.3581246191203715 5.569301288264924 0.21051720039567842 0.9398417130126571 1.0429547902908496 15.808111341706164" Properties=species:S:1:pos:R:3 unique_starting_index=40 config_type=initial n_minim_iter=4 stress="-5.466050396903891e-05 1.6469114707086471e-07 -4.094237312646073e-05 1.6469114707086471e-07 4.058077708320084e-06 -1.3076399639700015e-05 -4.094237312646073e-05 -1.3076399639700015e-05 4.78038632541217e-05" pbc="T T T"
Si       6.73986402       2.89228809      12.31206003
Si       1.55376048       2.57497546       4.24621177
Si       5.00198061       1.42277520       7.20525172
Si       4.01937598       4.53667917      13.19338609
Si       4.23982739       3.04261816      14.69347462
Si       6.49919855       6.16708075       6.73466510
Si       6.16342590       2.68635706       1.93106888
Si       5.46126566       5.11488897       9.83210272
Si       4.63577519       2.71098617       0.36879018
Si       4.93134298       5.35275671      14.93000361
Si       5.21060629       2.96073893      10.64990593
Si       3.82840751       4.55125902      11.05791914
Si       2.66026467       1.73147632       0.90560430
Si       1.54575818       0.72510039       7.93582465
Si       2.96870484       1.36407071      15.06468142
Si       6.94631953       6.29133105       8.83729380
Si       3.80621372       2.95111756       4.11379075
Si       4.54728128       6.73721123       6.05699026
Si       5.44916805       4.19639391       3.24653024
Si       5.51733899       1.14369459       9.47417034
Si       6.25422895       2.32031278      14.47999892
Si       4.66028153       1.20132067       5.10910423
22
Lattice="5.445954649537506 0.5233746021356966 -0.006224300695894944 3.3581289291470062 5.569207887574519 0.21075627093572943 0.9402245410788049 1.0433839331572141 15.808159583519343" Properties=species:S:1:pos:R:3 unique_starting_index=40 config_type=initial n_minim_iter=5 stress="-1.5852305641838908e-06 8.56630161842148e-06 0.00014864616177215193 8.56630161842148e-06 -4.822637782894465e-05 0.00020154627582459492 0.00014864616177215193 0.00020154627582459492 3.391514041972203e-05" pbc="T T T"
Si       6.74027288       2.89257041      12.31233536
Si       1.55389554       2.57508663       4.24627608
Si       5.00216116       1.42287688       7.20546508
Si       4.01970704       4.53693518      13.19361484
Si       4.24021970       3.04295044      14.69366495
Si       6.49939655       6.16711668       6.73498715
Si       6.16356736       2.68631369       1.93129586
Si       5.46156799       5.11508115       9.83231109
Si       4.63587306       2.71098129       0.36895412
Si       4.93168624       5.35308587      14.93032848
Si       5.21087133       2.96096995      10.65004860
Si       3.82875545       4.55151571      11.05818677
Si       2.66025757       1.73145478       0.90571076
Si       1.54597074       0.72521123       7.93589380
Si       2.96907036       1.36442277      15.06470914
Si       6.94653854       6.29143088       8.83762177
Si       3.80643410       2.95116114       4.11398656
Si       4.54744898       6.73719748       6.05737803
Si       5.44922452       4.19647626       3.24673957
Si       5.51759398       1.14395286       9.47427766
Si       6.25461775       2.32067793      14.48023041
Si       4.66044755       1.20135519       5.10929569
22
Lattice="5.446053471636219 0.523294419358848 -0.00638693986448535 3.358105861348769 5.569159401271769 0.21043893262311922 0.9398169256887531 1.0427270259435784 15.80786842535702" Properties=species:S:1:pos:R:3 unique_starting_index=40 config_type=initial n_minim_iter=6 stress="5.231528873125371e-05 -4.285158774138093e-05 -6.323994122992238e-05 -4.285158774138093e-05 7.95902376000573e-06 2.989399430222307e-05 -6.323994122992238e-05 2.989399430222307e-05 -5.565006253586604e-05" pbc="T T T"
Si       6.74010516       2.89201179      12.31191696
Si       1.55382367       2.57494539       4.24600771
Si       5.00197203       1.42244888       7.20524830
Si       4.01937698       4.53631704      13.19315321
Si       4.23990591       3.04228062      14.69325746
Si       6.49925960       6.16672288       6.73446840
Si       6.16363502       2.68614445       1.93101418
Si       5.46139302       5.11463853       9.83172709
Si       4.63597296       2.71096463       0.36867680
Si       4.93124379       5.35244156      14.92983212
Si       5.21059847       2.96047813      10.64954918
Si       3.82856806       4.55106623      11.05781757
Si       2.66018573       1.73137726       0.90554729
Si       1.54580295       0.72472988       7.93573306
Si       2.96868096       1.36371677      15.06424911
Si       6.94629393       6.29096162       8.83703392
Si       3.80649577       2.95093657       4.11374087
Si       4.54730130       6.73681126       6.05701205
Si       5.44910256       4.19638765       3.24631253
Si       5.51737962       1.14355467       9.47387727
Si       6.25429086       2.32005051      14.47979684
Si       4.66037565       1.20099919       5.10912396
22
Lattice="5.445960866494573 0.5233754644756747 -0.006289365682012349 3.3581329065630734 5.569184252428744 0.21033453434121693 0.9401480615240998 1.0422281593925038 15.808188615405863" Properties=species:S:1:pos:R:3 unique_starting_index=40 config_type=initial n_minim_iter=7 stress="-6.497126175964231e-05 -1.66403590942735e-05 9.069802452815605e-05 -1.66403590942735e-05 2.0294567141051078e-05 -8.486832153486785e-05 9.069802452815605e-05 -8.486832153486785e-05 4.160862790941291e-05" pbc="T T T"
Si       6.74031489       2.89172830      12.31224906
Si       1.55394071       2.57484128       4.24602587
Si       5.00202692       1.42225855       7.20549651
Si       4.01965203       4.53592237      13.19338668
Si       4.24019159       3.04185132      14.69357923
Si       6.49937643       6.16655975       6.73455431
Si       6.16361042       2.68618358       1.93112117
Si       5.46157308       5.11437796       9.83187254
Si       4.63597616       2.71103427       0.36869046
Si       4.93149380       5.35204042      14.93009798
Si       5.21074475       2.96021691      10.64974444
Si       3.82886583       4.55079823      11.05799027
Si       2.66014599       1.73138070       0.90555602
Si       1.54595418       0.72443133       7.93590915
Si       2.96895573       1.36325646      15.06452803
Si       6.94641645       6.29075561       8.83715099
Si       3.80663044       2.95084654       4.11383070
Si       4.54744945       6.73663409       6.05705032
Si       5.44910784       4.19639038       3.24631202
Si       5.51747329       1.14334831       9.47412293
Si       6.25449791       2.31969514      14.48017405
Si       4.66041425       1.20086132       5.10932404
22
Lattice="5.446094414927533 0.5236045251119752 -0.006493949545707405 3.3584404590333157 5.569195519957446 0.2102702163597736 0.9396019637857587 1.042427686564865 15.808220084283478" Properties=species:S:1:pos:R:3 unique_starting_index=40 config_type=initial n_minim_iter=8 stress="1.8139917257860304e-05 0.00017578300697272773 -3.058481555383367e-05 0.00017578300697272773 -0.00017760042268854555 -2.2786128992627945e-05 -3.058481555383367e-05 -2.2786128992627945e-05 -1.4251596430551269e-05" pbc="T T T"
Si       6.74017030       2.89214783      12.31211478
Si       1.55394910       2.57491918       4.24598502
Si       5.00188135       1.42246845       7.20541713
Si       4.01943713       4.53609154      13.19339321
Si       4.23984893       3.04213400      14.69355504
Si       6.49953189       6.16670808       6.73441694
Si       6.16378540       2.68646242       1.93097968
Si       5.46150283       5.11456589       9.83175194
Si       4.63625901       2.71122012       0.36853277
Si       4.93110904       5.35234239      14.93005882
Si       5.21051670       2.96053342      10.64952209
Si       3.82886475       4.55111797      11.05792371
Si       2.66016550       1.73146253       0.90544104
Si       1.54569903       0.72443430       7.93587150
Si       2.96849398       1.36351537      15.06435033
Si       6.94642076       6.29100145       8.83696329
Si       3.80685082       2.95097348       4.11377656
Si       4.54759900       6.73670351       6.05700164
Si       5.44923680       4.19663821       3.24604719
Si       5.51722896       1.14368591       9.47389408
Si       6.25414296       2.32013167      14.48003753
Si       4.66037076       1.20101097       5.10925069
22
Lattice="5.446143053320668 0.5234534920999548 -0.006623450282593133 3.35829273935802 5.569385642068544 0.21030821063014346 0.939169754023299 1.0428011865807107 15.808369032891685" Properties=species:S:1:pos:R:3 unique_starting_index=40 config_type=initial n_minim_iter=9 stress="3.1794501432718407e-06 -1.1789695494824431e-06 -1.2693528258689877e-05 -1.1789695494824431e-06 6.166990810771489e-05 7.996066109089407e-06 -1.2693528258689877e-05 7.996066109089407e-06 -1.9716244227513402e-05" pbc="T T T"
Si       6.73990755       2.89240609      12.31217264
Si       1.55379952       2.57511611       4.24602614
Si       5.00168137       1.42247320       7.20545850
Si       4.01900467       4.53643963      13.19357212
Si       4.23941575       3.04247661      14.69372917
Si       6.49924976       6.16689789       6.73447229
Si       6.16372699       2.68649705       1.93095839
Si       5.46112661       5.11482202       9.83182383
Si       4.63630049       2.71125611       0.36846653
Si       4.93044442       5.35284980      14.93023109
Si       5.21015670       2.96079106      10.64945600
Si       3.82861919       4.55163664      11.05802248
Si       2.66003966       1.73148489       0.90537215
Si       1.54546487       0.72445381       7.93589435
Si       2.96810491       1.36381792      15.06430280
Si       6.94599339       6.29129623       8.83698439
Si       3.80687824       2.95107867       4.11383062
Si       4.54725225       6.73702292       6.05710233
Si       5.44903775       4.19683387       3.24590970
Si       5.51697514       1.14377462       9.47379638
Si       6.25374904       2.32042072      14.48009092
Si       4.66026699       1.20093938       5.10929252
22
Lattice="5.446182835047937 0.5232319430945211 -0.006702046546712047 3.3581334875756648 5.568909456288912 0.21035987133370299 0.9388911293311976 1.0429666345865138 15.809244095041633" Properties=species:S:1:pos:R:3 unique_starting_index=40 config_type=initial n_minim_iter=10 stress="2.8189789863786445e-05 -6.364027192008346e-05 -8.699910975893357e-06 -6.364027192008346e-05 -0.00013290711797942303 -1.0877999816803492e-05 -8.699910975893357e-06 -1.0877999816803492e-05 4.7786536214747605e-05" pbc="T T T"
Si       6.73979330       2.89229448      12.31287662
Si       1.55368704       2.57496679       4.24629943
Si       5.00157001       1.42222112       7.20587973
Si       4.01866989       4.53611982      13.19433091
Si       4.23909177       3.04235610      14.69471269
Si       6.49899062       6.16623318       6.73489871
Si       6.16366342       2.68626553       1.93114805
Si       5.46100342       5.11437126       9.83232674
Si       4.63636620       2.71100104       0.36841557
Si       4.92979640       5.35270284      14.93121294
Si       5.20987001       2.96065858      10.64984038
Si       3.82840071       4.55167057      11.05877118
Si       2.65986423       1.73129393       0.90530432
Si       1.54524995       0.72425454       7.93618915
Si       2.96789116       1.36389712      15.06484227
Si       6.94557993       6.29078087       8.83745550
Si       3.80708787       2.95077779       4.11414197
Si       4.54687652       6.73654226       6.05744736
Si       5.44886957       4.19652469       3.24584581
Si       5.51682262       1.14364001       9.47410865
Si       6.25349322       2.32038716      14.48087085
Si       4.66023042       1.20061209       5.10969529
22
Lattice="5.446111837765587 0.5234651420204315 -0.006700033931813302 3.3582813185977356 5.56939886915495 0.21043457272621224 0.9388974469025889 1.0432971594490648 15.809094101662252" Properties=species:S:1:pos:R:3 unique_starting_index=40 config_type=initial n_minim_iter=11 stress="-6.558796608632138e-06 3.3352293824057406e-05 -2.696074398325415e-06 3.3352293824057406e-05 4.614216982302887e-05 6.993341032682372e-06 -2.696074398325415e-06 6.993341032682372e-06 -1.9950506908925565e-05" pbc="T T T"
Si       6.73981555       2.89295480      12.31281624
Si       1.55375721       2.57525126       4.24630666
Si       5.00152780       1.42255479       7.20583273
Si       4.01875711       4.53671028      13.19426434
Si       4.23912697       3.04294248      14.69465968
Si       6.49906197       6.16689966       6.73493924
Si       6.16366094       2.68673600       1.93120705
Si       5.46117275       5.11499131       9.83227915
Si       4.63644003       2.71139536       0.36843118
Si       4.92975625       5.35348216      14.93119419
Si       5.20985419       2.96122537      10.64969459
Si       3.82849843       4.55239405      11.05879714
Si       2.65982086       1.73151676       0.90528553
Si       1.54521474       0.72436788       7.93604099
Si       2.96788400       1.36429924      15.06458715
Si       6.94565018       6.29157930       8.83744038
Si       3.80727937       2.95114052       4.11418435
Si       4.54699960       6.73725029       6.05746877
Si       5.44892636       4.19709455       3.24578674
Si       5.51677332       1.14403274       9.47394576
Si       6.25345118       2.32102685      14.48076341
Si       4.66021019       1.20085486       5.10973873
22
Lattice="5.446067406847885 0.5233205213082707 -0.006683013374901611 3.3581340359225167 5.569114503057584 0.21045736091431297 0.9389172072003464 1.0432459112145525 15.809778579094798" Properties=species:S:1:pos:R:3 unique_starting_index=40 config_type=initial n_minim_iter=12 stress="-1.3913133361241645e-08 -1.2284476041456738e-06 2.156018725132316e-06 -1.2284476041456738e-06 1.2250793162481358e-06 1.0191344249803153e-06 2.156018725132316e-06 1.0191344249803153e-06 5.064617206598757e-06" pbc="T T T"
Si       6.73978209       2.89277950      12.31340486
Si       1.55369888       2.57511492       4.24654564
Si       5.00138343       1.42232698       7.20611820
Si       4.01871823       4.53641998      13.19494480
Si       4.23912336       3.04285018      14.69532349
Si       6.49879483       6.16640070       6.73527129
Si       6.16359729       2.68650625       1.93132993
Si       5.46116266       5.11453086       9.83276238
Si       4.63640614       2.71127990       0.36842842
Si       4.92939428       5.35319822      14.93192650
Si       5.20975515       2.96104993      10.65005948
Si       3.82840773       4.55236799      11.05940212
Si       2.65965159       1.73138352       0.90535373
Si       1.54523665       0.72412446       7.93627460
Si       2.96785837       1.36411768      15.06506098
Si       6.94551235       6.29123315       8.83783931
Si       3.80743639       2.95086884       4.11446499
Si       4.54677956       6.73696492       6.05771553
Si       5.44883238       4.19692189       3.24589743
Si       5.51679412       1.14383441       9.47424667
Si       6.25341572       2.32090388      14.48142225
Si       4.66018647       1.20056430       5.11008996
22
Lattice="5.446045565783324 0.5232273810151232 -0.006744756792537653 3.35804745185769 5.568858702280884 0.21040349627750904 0.9387285473074758 1.043125242501695 15.810280982829505" Properties=species:S:1:pos:R:3 unique_starting_index=40 config_type=initial n_minim_iter=13 stress="4.019309280824825e-06 5.518789716491867e-06 3.7223987221586293e-06 5.518789716491867e-06 3.887305862964044e-06 2.921283366862884e-06 3.7223987221586293e-06 2.921283366862884e-06 6.30369897517178e-06" pbc="T T T"
Si       6.73957224       2.89261743      12.31373200
Si       1.55359676       2.57500086       4.24669270
Si       5.00123895       1.42215267       7.20617575
Si       4.01854158       4.53622277      13.19525224
Si       4.23891401       3.04263986      14.69587845
Si       6.49848832       6.16589868       6.73531531
Si       6.16354731       2.68628700       1.93128675
Si       5.46098382       5.11406519       9.83301890
Si       4.63640550       2.71124623       0.36838558
Si       4.92886107       5.35287148      14.93246584
Si       5.20955048       2.96088233      10.65022803
Si       3.82826282       4.55234582      11.05981684
Si       2.65952372       1.73126416       0.90531796
Si       1.54512584       0.72375322       7.93653874
Si       2.96766072       1.36389836      15.06533889
Si       6.94531718       6.29090658       8.83806761
Si       3.80756610       2.95055294       4.11466332
Si       4.54657752       6.73671938       6.05785442
Si       5.44883804       4.19677611       3.24596751
Si       5.51679528       1.14366029       9.47437056
Si       6.25323764       2.32081070      14.48180786
Si       4.66007776       1.20025772       5.11024100
22
Lattice="5.4459647874284105 0.5229831974612587 -0.006878539469015574 3.3577702226137163 5.5685708834155 0.2102524457739608 0.9383065599089258 1.0428450777087348 15.81041765012807" Properties=species:S:1:pos:R:3 unique_starting_index=40 config_type=initial n_minim_iter=14 stress="-3.5418383698053346e-06 -6.790526042080296e-06 -7.568101749363701e-06 -6.790526042080296e-06 1.387514542769679e-06 -1.5543064730885575e-06 -7.568101749363701e-06 -1.5543064730885575e-06 -7.5281844333127194e-06" pbc="T T T"
Si       6.73902491       2.89218391      12.31365724
Si       1.55337527       2.57485767       4.24667381
Si       5.00097115       1.42177108       7.20606365
Si       4.01804461       4.53579268      13.19522385
Si       4.23832197       3.04227846      14.69589313
Si       6.49791497       6.16523397       6.73509648
Si       6.16330704       2.68595146       1.93113794
Si       5.46052188       5.11344740       9.83287622
Si       4.63633878       2.71108627       0.36838719
Si       4.92794193       5.35238203      14.93256992
Si       5.20908236       2.96050242      10.65008466
Si       3.82778536       4.55210081      11.05989226
Si       2.65935800       1.73107370       0.90519147
Si       1.54489508       0.72325977       7.93653839
Si       2.96721408       1.36346825      15.06528314
Si       6.94478042       6.29038236       8.83788513
Si       3.80747201       2.95010067       4.11469884
Si       4.54607785       6.73636732       6.05782037
Si       5.44872480       4.19640453       3.24586427
Si       5.51654307       1.14329456       9.47432129
Si       6.25276120       2.32045573      14.48176112
Si       4.65979634       1.19975803       5.11011848
22
Lattice="5.445935938125063 0.5226488323793208 -0.006943383783631094 3.35744049034044 5.568231148927815 0.21014302527057238 0.9380802733675571 1.0425297631826962 15.810996580194628" Properties=species:S:1:pos:R:3 unique_starting_index=40 config_type=initial n_minim_iter=15 stress="6.667655480117968e-06 -8.48084823551643e-06 8.472978783895411e-07 -8.48084823551643e-06 4.3933613781887296e-06 5.409144239757511e-06 8.472978783895411e-07 5.409144239757511e-06 -5.337678235933772e-06" pbc="T T T"
Si       6.73858411       2.89169032      12.31397580
Si       1.55322480       2.57470228       4.24679015
Si       5.00082695       1.42125623       7.20620840
Si       4.01768023       4.53525052      13.19555405
Si       4.23801992       3.04201426      14.69644123
Si       6.49741379       6.16436654       6.73511831
Si       6.16312668       2.68553825       1.93115863
Si       5.46016988       5.11262956       9.83304768
Si       4.63617345       2.71090726       0.36837625
Si       4.92703301       5.35180089      14.93337174
Si       5.20870829       2.96009445      10.65024262
Si       3.82746982       4.55184807      11.06029201
Si       2.65921379       1.73082376       0.90506897
Si       1.54477265       0.72253730       7.93669978
Si       2.96697872       1.36293115      15.06563077
Si       6.94433619       6.28977767       8.83794165
Si       3.80749098       2.94946998       4.11496268
Si       4.54557374       6.73601869       6.05806827
Si       5.44880445       4.19592295       3.24595485
Si       5.51647760       1.14287156       9.47466845
Si       6.25246167       2.32012993      14.48216697
Si       4.65955538       1.19900818       5.11012305
22
Lattice="5.445804831718314 0.5224188892392916 -0.006977275288436496 3.357147653387998 5.567974063936081 0.20995298145751942 0.9379738081247619 1.04192920659728 15.811730686665268" Properties=species:S:1:pos:R:3 unique_starting_index=40 config_type=initial n_minim_iter=16 stress="-6.124629601511812e-06 -3.266242197906496e-06 6.428333990975304e-06 -3.266242197906496e-06 6.657320731672104e-06 1.1105871181942243e-06 6.428333990975304e-06 1.1105871181942243e-06 5.88367956949456e-06" pbc="T T T"
Si       6.73809557       2.89111256      12.31439305
Si       1.55322686       2.57443098       4.24695269
Si       5.00066522       1.42067459       7.20630445
Si       4.01746882       4.53458515      13.19608718
Si       4.23776042       3.04149204      14.69705159
Si       6.49705460       6.16352156       6.73516165
Si       6.16295906       2.68515578       1.93117041
Si       5.45995373       5.11177391       9.83319145
Si       4.63595922       2.71087126       0.36838695
Si       4.92613159       5.35098908      14.93426623
Si       5.20830817       2.95967174      10.65052725
Si       3.82723891       4.55135118      11.06066133
Si       2.65908924       1.73059922       0.90492055
Si       1.54462539       0.72167239       7.93699269
Si       2.96693099       1.36229154      15.06618068
Si       6.94386637       6.28913030       8.83802517
Si       3.80745991       2.94885365       4.11521184
Si       4.54513110       6.73570185       6.05821387
Si       5.44884648       4.19556930       3.24610527
Si       5.51637893       1.14239244       9.47511812
Si       6.25208385       2.31968904      14.48273985
Si       4.65933533       1.19818568       5.11032928
22
Lattice="5.445892885325149 0.522122228466483 -0.007194009215365426 3.3569346563131046 5.567506585515706 0.2095676173997493 0.9373862527713384 1.0410640542642364 15.811786305224507" Properties=species:S:1:pos:R:3 unique_starting_index=40 config_type=initial n_minim_iter=17 stress="-2.6034125611342233e-07 8.848505320647025e-06 -3.6918228680713065e-06 8.848505320647025e-06 -8.65268310002974e-06 -7.684829235157949e-07 -3.6918228680713065e-06 -7.684829235157949e-07 -1.594016336770141e-07" pbc="T T T"
Si       6.73730630       2.89028944      12.31399060
Si       1.55334247       2.57386332       4.24692623
Si       5.00043328       1.41983451       7.20595964
Si       4.01699263       4.53364027      13.19577985
Si       4.23710326       3.04065206      14.69691691
Si       6.49643538       6.16223674       6.73470768
Si       6.16307443       2.68456359       1.93088663
Si       5.45961266       5.11046336       9.83269017
Si       4.63586487       2.71077567       0.36829703
Si       4.92472374       5.35009305      14.93454772
Si       5.20769490       2.95908216      10.65018811
Si       3.82684084       4.55049993      11.06032367
Si       2.65909806       1.73025717       0.90456714
Si       1.54422526       0.72050869       7.93678713
Si       2.96645755       1.36133517      15.06597793
Si       6.94344750       6.28815989       8.83737748
Si       3.80741550       2.94797414       4.11512913
Si       4.54483398       6.73511156       6.05783199
Si       5.44904493       4.19507867       3.24597978
Si       5.51608195       1.14169203       9.47491667
Si       6.25143111       2.31892006      14.48250827
Si       4.65924539       1.19698860       5.11018626
22
Lattice="5.445986740514627 0.5216656305930398 -0.007285351755812263 3.3565572386393914 5.567137488256453 0.20934060140644806 0.93710847376431 1.040453979645066 15.811796368122693" Properties=species:S:1:pos:R:3 unique_starting_index=40 config_type=initial n_minim_iter=18 stress="2.0458919636556458e-06 -2.8650826088518296e-06 2.3662867285722726e-06 -2.8650826088518296e-06 -6.07416321672827e-06 -7.016639654398122e-06 2.3662867285722726e-06 -7.016639654398122e-06 2.6535417287672194e-06" pbc="T T T"
Si       6.73668984       2.88953542      12.31370453
Si       1.55352658       2.57338892       4.24685210
Si       5.00040200       1.41905481       7.20576459
Si       4.01675684       4.53303781      13.19561690
Si       4.23673752       3.04008077      14.69668950
Si       6.49578544       6.16106918       6.73442574
Si       6.16317772       2.68404247       1.93092298
Si       5.45933894       5.10944316       9.83232669
Si       4.63561036       2.71072432       0.36824529
Si       4.92353498       5.34945947      14.93489969
Si       5.20737811       2.95842500      10.64997983
Si       3.82648139       4.54995704      11.06003266
Si       2.65907764       1.72990393       0.90449922
Si       1.54389531       0.71955592       7.93680094
Si       2.96614733       1.36048391      15.06579758
Si       6.94282011       6.28721875       8.83706431