22
Lattice="5.517985066561541 -0.71664890513095 -1.3790242539542032 -2.488083812289309 11.605939467553952 -2.323957022973143 -4.576104361929077 -5.780434384049413 10.84359618592665" Properties=species:S:1:pos:R:3 unique_starting_index=18 config_type=initial n_minim_iter=1 energy=-3586.0547920324393 free_energy=-3586.0547920324393 pbc="T T T"
Si       0.12305711      10.49366969      -1.30189002
Si      -1.53876332      -1.44771291       5.60945990
Si      -3.75926085      -3.88206011       9.53613124
Si       0.25543079      -3.13073092       8.55086485
Si      -5.56389731      -0.50343882       8.85665105
Si       4.29658846       2.27192024      -0.25324385
Si       2.44569356       0.97310101       0.01617500
Si      -2.06458740       1.76827208       8.24580324
Si      -1.69985576      -3.83073957       9.02795272
Si      -2.57891878       0.95927878       5.76669471
Si       1.20830821      -0.75700406       2.87356441
Si      -2.97219063       3.47541730       4.80252990
Si      -3.31647850      -2.88707699       6.40668785
Si      -0.89098960       7.54365765      -1.17011199
Si       1.15829017       1.18792147       3.73125981
Si       0.77124057       8.59648368      -1.99523153
Si      -0.90056510      -1.70423150       3.22833639
Si       2.51505853      -5.36129019       6.18506805
Si       0.26600078       2.76273939       2.62838033
Si      -3.26332920       2.70445499       6.76185490
Si      -1.20265603       4.16023081       3.26731486
Si      -1.34006424      -2.87523473       7.16863648
22
Lattice="5.5180386708274405 -0.7166057035367073 -1.3789445058554397 -2.4881403683216323 11.606242087515177 -2.324473068743075 -4.576015917509733 -5.780954676065903 10.843952356750998" Properties=species:S:1:pos:R:3 unique_starting_index=18 config_type=initial n_minim_iter=2 stress="0.0004255883075329118 8.113600374770822e-05 9.31553604795896e-05 8.113600374770822e-05 0.0003255057695813368 -0.00020961932895466627 9.31553604795896e-05 -0.00020961932895466627 0.0005058791222610591" pbc="T T T"
Si       0.12305019      10.49392478      -1.30230313
Si      -1.53870231      -1.44797474       5.60961681
Si      -3.75921476      -3.88248115       9.53641109
Si       0.25555779      -3.13112050       8.55114541
Si      -5.56384804      -0.50379760       8.85676291
Si       4.29663206       2.27197682      -0.25329728
Si       2.44572933       0.97311360       0.01618607
Si      -2.06450825       1.76799919       8.24588071
Si      -1.69971198      -3.83113680       9.02824408
Si      -2.57886209       0.95907688       5.76673047
Si       1.20836070      -0.75714117       2.87365500
Si      -2.97214567       3.47531475       4.80243629
Si      -3.31644717      -2.88736467       6.40686006
Si      -0.89101194       7.54384365      -1.17043174
Si       1.15836197       1.18778360       3.73133114
Si       0.77125640       8.59669766      -1.99557997
Si      -0.90053758      -1.70438647       3.22844216
Si       2.51516497      -5.36163578       6.18542050
Si       0.26601512       2.76273876       2.62831324
Si      -3.26327891       2.70424998       6.76182604
Si      -1.20260504       4.16017100       3.26719504
Si      -1.33997071      -2.87554262       7.16885483
22
Lattice="5.5178117487570635 -0.7166168653142713 -1.3788316380297223 -2.4881708690589424 11.606089588812612 -2.324641138900703 -4.575700907414372 -5.78103346457905 10.843566469832659" Properties=species:S:1:pos:R:3 unique_starting_index=18 config_type=initial n_minim_iter=3 stress="-0.0002387859505245036 3.8927202047480616e-05 -1.038691328343841e-05 3.8927202047480616e-05 -0.00011512069073776925 -0.0003147285463582082 -1.038691328343841e-05 -0.0003147285463582082 -3.951552814149967e-05" pbc="T T T"
Si       0.12293353      10.49376289      -1.30246688
Si      -1.53858266      -1.44810158       5.60942973
Si      -3.75902296      -3.88255075       9.53606091
Si       0.25563951      -3.13126638       8.55083006
Si      -5.56356298      -0.50394894       8.85635444
Si       4.29640979       2.27189558      -0.25335449
Si       2.44562571       0.97306099       0.01619392
Si      -2.06441239       1.76781580       8.24549235
Si      -1.69947701      -3.83121589       9.02791852
Si      -2.57871577       0.95895573       5.76643388
Si       1.20832974      -0.75723301       2.87353331
Si      -2.97200937       3.47519248       4.80211066
Si      -3.31625713      -2.88739794       6.40660308
Si      -0.89105873       7.54373259      -1.17055435
Si       1.15833414       1.18764211       3.73119595
Si       0.77117342       8.59652235      -1.99566970
Si      -0.90047325      -1.70441659       3.22831702
Si       2.51513824      -5.36171440       6.18527770
Si       0.26594284       2.76270245       2.62810971
Si      -3.26313612       2.70408499       6.76142933
Si      -1.20254572       4.16000425       3.26693616
Si      -1.33982769      -2.87559789       7.16858052
22
Lattice="5.517922198919596 -0.7167315637258488 -1.3788097431836621 -2.48835479369872 11.6061557820485 -2.3242100050485646 -4.575671506072289 -5.780657695030665 10.843202406105576" Properties=species:S:1:pos:R:3 unique_starting_index=18 config_type=initial n_minim_iter=4 stress="0.00013016090544238037 -3.445984500222699e-05 9.51459599452546e-05 -3.445984500222699e-05 7.187467011946333e-05 2.3675411466403927e-06 9.51459599452546e-05 2.3675411466403927e-06 -0.0001644756426425717" pbc="T T T"
Si       0.12282198      10.49384031      -1.30206666
Si      -1.53856234      -1.44793526       5.60933162
Si      -3.75904339      -3.88219249       9.53579422
Si       0.25573100      -3.13100239       8.55061013
Si      -5.56361717      -0.50358926       8.85620963
Si       4.29645620       2.27186810      -0.25327746
Si       2.44567044       0.97304246       0.01624808
Si      -2.06443493       1.76815663       8.24546524
Si      -1.69938287      -3.83089802       9.02766723
Si      -2.57872970       0.95919216       5.76638041
Si       1.20837156      -0.75717877       2.87346246
Si      -2.97206535       3.47544818       4.80214897
Si      -3.31627050      -2.88715237       6.40639421
Si      -0.89116204       7.54378246      -1.17027606
Si       1.15836283       1.18777783       3.73122897
Si       0.77110873       8.59650499      -1.99533111
Si      -0.90045659      -1.70430753       3.22820956
Si       2.51526466      -5.36159133       6.18502230
Si       0.26590927       2.76286689       2.62816535
Si      -3.26319659       2.70440034       6.76142112
Si      -1.20257580       4.16016472       3.26703151
Si      -1.33977918      -2.87534148       7.16837891
22
Lattice="5.517827156913789 -0.7167263594712375 -1.3790472140215524 -2.4881747645848065 11.605947373662577 -2.3239968044168293 -4.575885542278717 -5.78035902022167 10.843764473827823" Properties=species:S:1:pos:R:3 unique_starting_index=18 config_type=initial n_minim_iter=5 stress="-4.9671416126625765e-05 2.897604864368652e-05 -8.197782368206e-05 2.897604864368652e-05 0.00015466522012338868 4.804614925136034e-05 -8.197782368206e-05 4.804614925136034e-05 9.00978196633233e-05" pbc="T T T"
Si       0.12291798      10.49368740      -1.30189067
Si      -1.53867991      -1.44783088       5.60966049
Si      -3.75925608      -3.88191968       9.53631408
Si       0.25549280      -3.13076663       8.55096673
Si      -5.56371682      -0.50341501       8.85683509
Si       4.29635951       2.27186160      -0.25338883
Si       2.44562465       0.97303465       0.01621898
Si      -2.06460098       1.76831550       8.24602214
Si      -1.69960829      -3.83064281       9.02810359
Si      -2.57880081       0.95929477       5.76677170
Si       1.20825235      -0.75713202       2.87354408
Si      -2.97209332       3.47552016       4.80254036
Si      -3.31638150      -2.88697014       6.40674934
Si      -0.89107402       7.54366076      -1.17014067
Si       1.15823169       1.18787855       3.73144429
Si       0.77119773       8.59633567      -1.99525122
Si      -0.90052726      -1.70421101       3.22836812
Si       2.51500185      -5.36138370       6.18516675
Si       0.26583208       2.76292956       2.62835502
Si      -3.26329073       2.70451461       6.76192613
Si      -1.20259298       4.16017039       3.26732469
Si      -1.33996693      -2.87514510       7.16871985
22
Lattice="5.517880626281845 -0.7167191209591043 -1.3790627865963758 -2.4882874872486602 11.605086975437196 -2.323991410739979 -4.57582099270608 -5.779806791165166 10.844066002313442" Properties=species:S:1:pos:R:3 unique_starting_index=18 config_type=initial n_minim_iter=6 stress="6.593781136529345e-05 4.0071550242185186e-05 0.0001125970884754165 4.0071550242185186e-05 -0.00017333006898562464 3.984382254469048e-05 0.0001125970884754165 3.984382254469048e-05 0.00018983805448050543" pbc="T T T"
Si       0.12287205      10.49289578      -1.30183648
Si      -1.53864068      -1.44771229       5.60986136
Si      -3.75922330      -3.88148551       9.53659402
Si       0.25560149      -3.13045595       8.55121780
Si      -5.56368084      -0.50327227       8.85714694
Si       4.29636672       2.27167902      -0.25340951
Si       2.44566114       0.97294033       0.01625472
Si      -2.06456296       1.76826473       8.24636103
Si      -1.69958910      -3.83026785       9.02837764
Si      -2.57875549       0.95928992       5.76696977
Si       1.20827084      -0.75710814       2.87361672
Si      -2.97208849       3.47535506       4.80268729
Si      -3.31637789      -2.88664947       6.40690874
Si      -0.89114460       7.54310322      -1.17012182
Si       1.15823490       1.18786042       3.73162111
Si       0.77114054       8.59566018      -1.99522308
Si      -0.90049308      -1.70403922       3.22847142
Si       2.51509466      -5.36096812       6.18538843
Si       0.26582407       2.76279897       2.62846779
Si      -3.26329230       2.70440261       6.76214929
Si      -1.20257420       4.15988376       3.26745814
Si      -1.33992141      -2.87488928       7.16896197
22
Lattice="5.518011260378558 -0.716831798290907 -1.3792273122383758 -2.488512622544574 11.60499713445619 -2.3239388405316608 -4.576091556412126 -5.779662666837559 10.84416336675744" Properties=species:S:1:pos:R:3 unique_starting_index=18 config_type=initial n_minim_iter=7 stress="0.00011685618132499174 -7.416026050265849e-05 -2.5975907430450443e-05 -7.416026050265849e-05 4.4255081150000594e-05 -3.450379889657028e-05 -2.5975907430450443e-05 -3.450379889657028e-05 3.6940417628032026e-05" pbc="T T T"
Si       0.12271407      10.49275050      -1.30186061
Si      -1.53879690      -1.44774203       5.60989998
Si      -3.75950103      -3.88132480       9.53666488
Si       0.25543297      -3.13043587       8.55112276
Si      -5.56396365      -0.50317223       8.85734207
Si       4.29634487       2.27157318      -0.25366100
Si       2.44569838       0.97286132       0.01617877
Si      -2.06486967       1.76824163       8.24643355
Si      -1.69991517      -3.83021794       9.02838866
Si      -2.57893745       0.95931308       5.76701158
Si       1.20817731      -0.75721611       2.87351043
Si      -2.97231020       3.47541946       4.80268483
Si      -3.31658960      -2.88650311       6.40695412
Si      -0.89131064       7.54302959      -1.17011409
Si       1.15804871       1.18784753       3.73160084
Si       0.77102433       8.59550320      -1.99523935
Si      -0.90055855      -1.70399109       3.22849492
Si       2.51503772      -5.36101167       6.18535164
Si       0.26566072       2.76282675       2.62840264
Si      -3.26360787       2.70443037       6.76216718
Si      -1.20274489       4.15982519       3.26744326
Si      -1.34013603      -2.87493066       7.16902306
22
Lattice="5.517942246363637 -0.7167460353104995 -1.379201799538415 -2.4883084790546035 11.604884724856497 -2.323866878960947 -4.576086483080961 -5.779632017771552 10.844097604662533" Properties=species:S:1:pos:R:3 unique_starting_index=18 config_type=initial n_minim_iter=8 stress="2.9487026184075135e-05 0.00011216204223575117 5.843579876384793e-05 0.00011216204223575117 8.832203815357118e-05 4.4576748601643316e-06 5.843579876384793e-05 4.4576748601643316e-06 -1.1975473650000407e-05" pbc="T T T"
Si       0.12290031      10.49269274      -1.30177646
Si      -1.53877242      -1.44773772       5.60987889
Si      -3.75947985      -3.88128050       9.53661542
Si       0.25542758      -3.13034420       8.55109245
Si      -5.56384410      -0.50319644       8.85734252
Si       4.29633926       2.27164562      -0.25366185
Si       2.44570590       0.97289528       0.01619934
Si      -2.06477280       1.76825878       8.24646136
Si      -1.69994480      -3.83016135       9.02837814
Si      -2.57885928       0.95931965       5.76700124
Si       1.20815443      -0.75718945       2.87349665
Si      -2.97217874       3.47541081       4.80268131
Si      -3.31658046      -2.88647634       6.40690713
Si      -0.89119345       7.54297133      -1.17006183
Si       1.15807129       1.18788493       3.73163171
Si       0.77115864       8.59544320      -1.99517437
Si      -0.90055224      -1.70396536       3.22848791
Si       2.51493562      -5.36092126       6.18533755
Si       0.26571842       2.76286405       2.62840517
Si      -3.26348460       2.70441814       6.76215978
Si      -1.20263440       4.15981129       3.26746467
Si      -1.34015531      -2.87493185       7.16901554
22
Lattice="5.518016931958533 -0.71699662829133 -1.379375197017911 -2.488849876382482 11.604299299844817 -2.323777435632492 -4.576018473446487 -5.778934596158395 10.844568194466277" Properties=species:S:1:pos:R:3 unique_starting_index=18 config_type=initial n_minim_iter=9 stress="-4.188934605474006e-05 -9.52966705479001e-05 0.00012844684898203956 -9.52966705479001e-05 0.00012600457152256588 -4.314651137924466e-06 0.00012844684898203956 -4.314651137924466e-06 0.00010569887660055472" pbc="T T T"
Si       0.12246213      10.49205129      -1.30168699
Si      -1.53880139      -1.44755638       5.61009425
Si      -3.75949391      -3.88070729       9.53703372
Si       0.25538984      -3.13002987       8.55138519
Si      -5.56392525      -0.50280580       8.85792215
Si       4.29624814       2.27134133      -0.25385876
Si       2.44570144       0.97269690       0.01617753
Si      -2.06501569       1.76834916       8.24692898
Si      -1.69999287      -3.82973845       9.02884056
Si      -2.57902315       0.95950692       5.76727658
Si       1.20808454      -0.75719655       2.87354559
Si      -2.97241724       3.47544690       4.80295528
Si      -3.31659253      -2.88599817       6.40718098
Si      -0.89159221       7.54255702      -1.16999671
Si       1.15795641       1.18776981       3.73180363
Si       0.77079589       8.59481632      -1.99518782
Si      -0.90050640      -1.70375363       3.22864955
Si       2.51498290      -5.36074038       6.18549289
Si       0.26554646       2.76278088       2.62845166
Si      -3.26371137       2.70452416       6.76250692
Si      -1.20289625       4.15969540       3.26767074
Si      -1.34021975      -2.87474268       7.16935205
22
Lattice="5.518281584748841 -0.7169668349425832 -1.3795978451459523 -2.488870110961675 11.603624706101627 -2.323656287217821 -4.576605072746141 -5.778560681172113 10.844780512513438" Properties=species:S:1:pos:R:3 unique_starting_index=18 config_type=initial n_minim_iter=10 stress="0.00015600910703657457 1.7064481304598127e-05 -2.32405518553936e-06 1.7064481304598127e-05 -1.1831766934098265e-06 -2.456957748183758e-05 -2.32405518553936e-06 -2.456957748183758e-05 2.7444038258551614e-05" pbc="T T T"
Si       0.12254441      10.49143495      -1.30165163
Si      -1.53906621      -1.44748668       5.61016074
Si      -3.76002345      -3.88042256       9.53721404
Si       0.25505217      -3.12979687       8.55139989
Si      -5.56443409      -0.50276227       8.85824825
Si       4.29643852       2.27123735      -0.25408907
Si       2.44581328       0.97261666       0.01611058
Si      -2.06541466       1.76827554       8.24708870
Si      -1.70043158      -3.82948136       9.02897844
Si      -2.57934589       0.95950212       5.76738947
Si       1.20798602      -0.75715531       2.87348901
Si      -2.97269229       3.47529204       4.80309557
Si      -3.31698746      -2.88576819       6.40731704
Si      -0.89162131       7.54211610      -1.16993765
Si       1.15785099       1.18768721       3.73178589
Si       0.77091636       8.59428077      -1.99521489
Si      -0.90065113      -1.70362781       3.22871086
Si       2.51477911      -5.36046062       6.18541884
Si       0.26546747       2.76265511       2.62840741
Si      -3.26406372       2.70440930       6.76266475
Si      -1.20306728       4.15948884       3.26774548
Si      -1.34057696      -2.87462356       7.16944944
22
Lattice="5.518349465819806 -0.7171439891104346 -1.3797277339218712 -2.4892954241158787 11.602773283168853 -2.3235211350710525 -4.576585579049322 -5.777800982206821 10.844967741093681" Properties=species:S:1:pos:R:3 unique_starting_index=18 config_type=initial n_minim_iter=11 stress="7.70760245554917e-05 -9.103073523045436e-06 3.790719782617819e-05 -9.103073523045436e-06 9.558399746856099e-06 -1.3584027746839512e-05 3.790719782617819e-05 -1.3584027746839512e-05 3.3371955179886916e-05" pbc="T T T"
Si       0.12228267      10.49056329      -1.30150569
Si      -1.53907654      -1.44736255       5.61020926
Si      -3.76009848      -3.87978872       9.53737872
Si       0.25493502      -3.12940655       8.55152206
Si      -5.56448260      -0.50252148       8.85868923
Si       4.29651687       2.27101847      -0.25429426
Si       2.44581941       0.97232997       0.01623999
Si      -2.06566774       1.76832604       8.24735880
Si      -1.70059815      -3.82899368       9.02909671
Si      -2.57946149       0.95963453       5.76745601
Si       1.20785856      -0.75716076       2.87342284
Si      -2.97283684       3.47525489       4.80328155
Si      -3.31710246      -2.88522319       6.40739863
Si      -0.89198932       7.54154212      -1.16983839
Si       1.15767195       1.18756714       3.73180387
Si       0.77071515       8.59341528      -1.99525054
Si      -0.90061215      -1.70337446       3.22880517
Si       2.51467739      -5.36018116       6.18547460
Si       0.26537632       2.76249730       2.62830501
Si      -3.26416855       2.70451157       6.76287912
Si      -1.20326588       4.15931480       3.26785547
Si      -1.34067735      -2.87441451       7.16954139
22
Lattice="5.518428095615384 -0.7172542848800795 -1.3797610311162933 -2.4896292909148205 11.60225302903228 -2.3235726861257158 -4.576571552030766 -5.777466818312264 10.844910631664058" Properties=species:S:1:pos:R:3 unique_starting_index=18 config_type=initial n_minim_iter=12 stress="4.968450916027353e-05 -7.976237534196227e-06 1.8857777212677967e-05 -7.976237534196227e-06 -1.1714644095200528e-05 -2.9011693937179943e-05 1.8857777212677967e-05 -2.9011693937179943e-05 -2.0459372266978344e-05" pbc="T T T"
Si       0.12214248      10.48995614      -1.30153544
Si      -1.53905827      -1.44740293       5.61008669
Si      -3.76022737      -3.87948595       9.53732328
Si       0.25485970      -3.12930095       8.55147686
Si      -5.56451550      -0.50256697       8.85883312
Si       4.29666506       2.27093286      -0.25448934
Si       2.44586289       0.97213108       0.01630741
Si      -2.06578240       1.76818725       8.24729515
Si      -1.70074312      -3.82890003       9.02913217
Si      -2.57955476       0.95965959       5.76729245
Si       1.20774862      -0.75727859       2.87326706
Si      -2.97291652       3.47518170       4.80325214
Si      -3.31721989      -2.88494467       6.40734322
Si      -0.89227897       7.54120089      -1.16987095
Si       1.15753542       1.18746254       3.73170200
Si       0.77052322       8.59289662      -1.99533735
Si      -0.90060092      -1.70325535       3.22880188
Si       2.51454506      -5.36011656       6.18546402
Si       0.26533274       2.76237102       2.62809407
Si      -3.26419784       2.70453225       6.76280581
Si      -1.20335929       4.15915033       3.26775372
Si      -1.34077428      -2.87438864       7.16933867
22
Lattice="5.518310130806518 -0.7173782736756041 -1.3798169603288333 -2.4898786958463206 11.60170305362438 -2.3235484301170763 -4.576390173838272 -5.777027766191078 10.844936839584621" Properties=species:S:1:pos:R:3 unique_starting_index=18 config_type=initial n_minim_iter=13 stress="-7.144063608398947e-05 1.0919244104907488e-05 -1.733577993630798e-05 1.0919244104907488e-05 -3.2061175986266626e-05 -5.273365722957798e-06 -1.733577993630798e-05 -5.273365722957798e-06 -3.7146104246925294e-05" pbc="T T T"
Si       0.12205694      10.48930372      -1.30144747
Si      -1.53895801      -1.44736775       5.60991452
Si      -3.76035577      -3.87905847       9.53738621
Si       0.25472414      -3.12912229       8.55151416
Si      -5.56432525      -0.50261587       8.85916511
Si       4.29671647       2.27092228      -0.25469951
Si       2.44583703       0.97190427       0.01643565
Si      -2.06575054       1.76807814       8.24733486
Si      -1.70077748      -3.82870754       9.02914749
Si      -2.57961335       0.95980806       5.76714755
Si       1.20755610      -0.75743947       2.87307968
Si      -2.97286131       3.47516741       4.80332559
Si      -3.31729352      -2.88461791       6.40735820
Si      -0.89254873       7.54087154      -1.16985218
Si       1.15740248       1.18744733       3.73167569
Si       0.77024327       8.59234117      -1.99534734
Si      -0.90056803      -1.70309995       3.22882022
Si       2.51420689      -5.35995943       6.18549257
Si       0.26531872       2.76230282       2.62794895
Si      -3.26403467       2.70465054       6.76287248
Si      -1.20331993       4.15900283       3.26770097
Si      -1.34083888      -2.87443452       7.16929153
22
Lattice="5.518288431890082 -0.7175732170014759 -1.3798968886624536 -2.4903174605830882 11.601213505918713 -2.32358287601836 -4.576219790223045 -5.776569918342877 10.845120023490328" Properties=species:S:1:pos:R:3 unique_starting_index=18 config_type=initial n_minim_iter=14 stress="-0.00011009970882143685 6.650035463348571e-06 -4.530429616474841e-05 6.650035463348571e-06 -4.492325843621328e-05 1.3870555753680029e-05 -4.530429616474841e-05 1.3870555753680029e-05 -1.2654981920710527e-05" pbc="T T T"
Si       0.12176933      10.48876868      -1.30136546
Si      -1.53885638      -1.44734467       5.60986681
Si      -3.76043085      -3.87867355       9.53758117
Si       0.25463206      -3.12894364       8.55159148
Si      -5.56428724      -0.50264324       8.85955954
Si       4.29667991       2.27083370      -0.25489031
Si       2.44584274       0.97172599       0.01644696
Si      -2.06583379       1.76799407       8.24743876
Si      -1.70085215      -3.82858182       9.02929111
Si      -2.57973557       0.95997698       5.76709462
Si       1.20741904      -0.75752661       2.87298109
Si      -2.97288417       3.47522699       4.80338085
Si      -3.31740410      -2.88436090       6.40751280
Si      -0.89292394       7.54056219      -1.16986259
Si       1.15725821       1.18731407       3.73167886
Si       0.76991561       8.59169660      -1.99546782
Si      -0.90053116      -1.70296075       3.22888594
Si       2.51400896      -5.35973041       6.18560044
Si       0.26531889       2.76222690       2.62794595
Si      -3.26399231       2.70472557       6.76308220
Si      -1.20331888       4.15884708       3.26767442
Si      -1.34086361      -2.87441612       7.16932773
22
Lattice="5.518392928130508 -0.717724985939569 -1.3798361549138078 -2.490812272768745 11.600998760100257 -2.3238830228503895 -4.576020059556228 -5.776505706132965 10.845118875066115" Properties=species:S:1:pos:R:3 unique_starting_index=18 config_type=initial n_minim_iter=15 stress="-7.94056413882267e-05 -2.7103529234125715e-06 -3.0936329693176016e-05 -2.7103529234125715e-06 -5.6269584846856524e-05 6.443107540485464e-06 -3.0936329693176016e-05 6.443107540485464e-06 -1.857589495458445e-05" pbc="T T T"
Si       0.12150146      10.48843729      -1.30150702
Si      -1.53869321      -1.44754117       5.60977511
Si      -3.76041676      -3.87864810       9.53759066
Si       0.25470691      -3.12901730       8.55151329
Si      -5.56423555      -0.50284782       8.85964725
Si       4.29670246       2.27079245      -0.25500660
Si       2.44590624       0.97158758       0.01648624
Si      -2.06584055       1.76773262       8.24728213
Si      -1.70077894      -3.82868189       9.02923252
Si      -2.57976963       0.95998428       5.76687527
Si       1.20738369      -0.75763205       2.87288796
Si      -2.97295041       3.47515580       4.80323382
Si      -3.31745932      -2.88435344       6.40757502
Si      -0.89332860       7.54040334      -1.17002474
Si       1.15723912       1.18717330       3.73158068
Si       0.76964689       8.59132349      -1.99571337
Si      -0.90048486      -1.70295445       3.22889132
Si       2.51392698      -5.35971790       6.18569533
Si       0.26540067       2.76214217       2.62785400
Si      -3.26394896       2.70467172       6.76291719
Si      -1.20325732       4.15869854       3.26746227
Si      -1.34097405      -2.87465896       7.16918668
22
Lattice="5.518268454871122 -0.717891537214409 -1.3799685590623296 -2.4911117184844986 11.601279873331757 -2.3242733088910703 -4.5759797029711695 -5.776831443025182 10.845379582445783" Properties=species:S:1:pos:R:3 unique_starting_index=18 config_type=initial n_minim_iter=16 stress="-8.629842060325907e-05 1.560756475960635e-05 -4.8239660663088734e-05 1.560756475960635e-05 -3.990603134840303e-05 3.7852010933645905e-05 -4.8239660663088734e-05 3.7852010933645905e-05 -1.7219513417631782e-05" pbc="T T T"
Si       0.12139980      10.48840176      -1.30173072
Si      -1.53854197      -1.44805806       5.60978887
Si      -3.76051844      -3.87893087       9.53782449
Si       0.25437838      -3.12927943       8.55131598
Si      -5.56421289      -0.50339061       8.86008882
Si       4.29653408       2.27095981      -0.25525416
Si       2.44589257       0.97151590       0.01642862
Si      -2.06604695       1.76737545       8.24715047
Si      -1.70102556      -3.82904767       9.02933874
Si      -2.57984019       0.95997635       5.76662638
Si       1.20713088      -0.75777597       2.87271645
Si      -2.97299573       3.47516039       4.80317711
Si      -3.31795282      -2.88455832       6.40777611
Si      -0.89374590       7.54055670      -1.17022856
Si       1.15708739       1.18709477       3.73144846
Si       0.76941502       8.59131183      -1.99611964
Si      -0.90050497      -1.70306742       3.22898562
Si       2.51312413      -5.35995089       6.18577125
Si       0.26548982       2.76218566       2.62765954
Si      -3.26387912       2.70471361       6.76278262
Si      -1.20305467       4.15873823       3.26721454
Si      -1.34124474      -2.87525018       7.16911984
22
Lattice="5.5177306029673305 -0.7184608813995486 -1.3801670979122045 -2.4921635824613757 11.602227540247416 -2.3254880492340395 -4.575338735592992 -5.777795052527504 10.845834955208108" Properties=species:S:1:pos:R:3 unique_starting_index=18 config_type=initial n_minim_iter=17 stress="-2.569415134228864e-05 -4.402224465107082e-06 -1.8721881676237e-05 -4.402224465107082e-06 -1.5962157332220298e-05 4.9180839282163746e-05 -1.8721881676237e-05 4.9180839282163746e-05 -1.4453386754727342e-05" pbc="T T T"
Si       0.12069455      10.48837687      -1.30260687
Si      -1.53804398      -1.44933912       5.60973780
Si      -3.76048329      -3.87970716       9.53826095
Si       0.25401893      -3.13038749       8.55082454
Si      -5.56393468      -0.50467301       8.86069705
Si       4.29583671       2.27109724      -0.25575938
Si       2.44570883       0.97135798       0.01612663
Si      -2.06650708       1.76643605       8.24649568
Si      -1.70105767      -3.83009957       9.02939735
Si      -2.57974973       0.95981185       5.76593904
Si       1.20661713      -0.75812913       2.87236623
Si      -2.97296145       3.47529913       4.80265431
Si      -3.31862262      -2.88499584       6.40809248
Si      -0.89484778       7.54108372      -1.17094513
Si       1.15648860       1.18666631       3.73098084
Si       0.76811937       8.59141159      -1.99740411
Si      -0.90016296      -1.70334037       3.22942456
Si       2.51156023      -5.36090655       6.18608125
Si       0.26556301       2.76208861       2.62694192
Si      -3.26365821       2.70464646       6.76225553
Si      -1.20278594       4.15894864       3.26651362
Si      -1.34178268      -2.87676185       7.16890399
22
Lattice="5.517361825002661 -0.7188673043908942 -1.3804071049282622 -2.4928448848533558 11.603180077774581 -2.3263585540395497 -4.575028067376687 -5.77862097290856 10.846467162212512" Properties=species:S:1:pos:R:3 unique_starting_index=18 config_type=initial n_minim_iter=18 stress="3.126017271659776e-05 -2.1425658072765107e-06 3.2055664506211868e-06 -2.1425658072765107e-06 2.9368167557448745e-05 2.2912587299010195e-05 3.2055664506211868e-06 2.2912587299010195e-05 -2.9347699157791146e-05" pbc="T T T"
Si       0.12019680      10.48869951      -1.30323373
Si      -1.53778495      -1.45025666       5.60981405
Si      -3.76065352      -3.88033097       9.53887669
Si       0.25382281      -3.13134380       8.55084387
Si      -5.56388886      -0.50555041       8.86136396
Si       4.29537969       2.27125594      -0.25620381
Si       2.44559927       0.97131422       0.01579239
Si      -2.06704308       1.76586070       8.24629199
Si      -1.70120301      -3.83098643       9.02969163
Si      -2.57980683       0.95981494       5.76566394
Si       1.20625749      -0.75839839       2.87217041
Si      -2.97301337       3.47542448       4.80242763
Si      -3.31930987      -2.88530714       6.40843094
Si      -0.89558081       7.54160877      -1.17144616
Si       1.15607982       1.18655990       3.73069478
Si       0.76743606       8.59162235      -1.99831833