20
Lattice="5.682652331878969 0.42313825588629256 -1.8694361776107483e-15 -0.7728677387621776 6.349383123888712 -1.1372912358531094e-14 3.310778160255745e-15 3.0996099126494915e-14 17.079821680343727" Properties=species:S:1:pos:R:3 unique_starting_index=93 config_type=initial n_minim_iter=1 energy=-3242.1416574359887 free_energy=-3242.1416574359887 pbc="T T T"
Si       1.61660745       1.17695414      11.38810708
Si       3.29317715       5.59556724       2.84819624
Si      -0.00795682       0.41864018      12.51331673
Si       4.91774142       6.35388120       3.97340589
Si       2.20923667       0.07882727       3.44560971
Si       2.70054793       6.69369412      11.98552055
Si       3.11873815       1.54795839       4.61103031
Si       1.79104646       5.22456299      13.15094115
Si       0.06229901       3.77220279       9.06284558
Si       4.84748559       3.00031859       0.52293474
Si       3.74689623       2.14417313       2.67336989
Si       1.16288837       4.62834825      11.21328073
Si       1.37763309       2.18273075      16.76859049
Si       3.53215151       4.58979063       8.22867965
Si       4.91897305       2.66221185       4.58122189
Si      -0.00918845       4.11030953      13.12113273
Si       2.58540742       3.47744300      15.03243400
Si       2.32437718       3.29507838       6.49252316
Si       0.95883053       4.83760600      15.05538077
Si       3.95095407       1.93491538       6.51546993
20
Lattice="5.723516793005755 0.4547208168567771 -1.9982881539309668e-15 -0.7400627040852094 6.308090117187019 -1.1399808162194634e-14 3.1346815889413566e-15 3.0570290403715775e-14 16.998368698707896" Properties=species:S:1:pos:R:3 unique_starting_index=93 config_type=initial n_minim_iter=2 stress="0.013546462824766849 0.018176336158566602 -1.8869430539231927e-15 0.018176336158566602 0.007479187125936572 -7.011513323468398e-16 -1.8869430539231927e-15 -7.011513323468398e-16 0.003554072780727398" pbc="T T T"
Si       1.63512840       1.17714032      11.33421217
Si       3.34832570       5.58567061       2.83502782
Si      -0.00526298       0.41006567      12.45229115
Si       4.98871708       6.35274527       3.95310680
Si       2.22351377       0.08894267       3.42424176
Si       2.75994033       6.67386827      11.92342611
Si       3.14720018       1.56185061       4.59046120
Si       1.83625392       5.20096033      13.08964555
Si       0.08441326       3.75006849       9.02303586
Si       4.89904084       3.01274244       0.52385151
Si       3.78617593       2.14911320       2.65566269
Si       1.19727817       4.61369773      11.15484704
Si       1.39924082       2.17969736      16.68688937
Si       3.58421328       4.58311358       8.18770502
Si       4.97201218       2.67366522       4.55677396
Si       0.01144193       4.08914572      13.05595831
Si       2.62183069       3.47248328      14.96294799
Si       2.36162341       3.29032766       6.46376364
Si       0.98979016       4.81382526      14.99171006
Si       3.99366394       1.94898567       6.49252571
20
Lattice="5.847312280392342 0.457609291032428 -2.297151339572611e-15 -0.7254736559404887 5.929391203885948 -7.93334324954406e-15 1.6250258318258096e-15 3.6541201993371466e-14 16.2570428034047" Properties=species:S:1:pos:R:3 unique_starting_index=93 config_type=initial n_minim_iter=3 stress="-0.013043510401548136 0.017303348516218613 -1.5179001003369488e-16 0.017303348516218613 -0.006924495840439899 -1.5321212683319517e-16 -1.5179001003369488e-16 -1.5321212683319517e-16 -0.04129224282590906" pbc="T T T"
Si       1.67673282       1.09392218      10.84383515
Si       3.44510581       5.29307832       2.71531375
Si      -0.00038966       0.33713373      11.89717900
Si       5.12222829       6.04986676       3.76865760
Si       2.25975606       0.07520633       3.23566407
Si       2.86208258       6.31179416      11.36418547
Si       3.21848660       1.52556420       4.40376014
Si       1.90335204       4.86143630      12.53228155
Si       0.09613714       3.52187352       8.65741546
Si       5.02570150       2.86512698       0.52889406
Si       3.88738950       2.00051959       2.49844483
Si       1.23444913       4.38648091      10.62696623
Si       1.43260391       2.06828500      15.94501086
Si       3.68923473       4.31871550       7.81648945
Si       5.11149727       2.51235669       4.33724003
Si       0.01034136       3.87464381      12.46576144
Si       2.68226137       3.27406188      14.32799533
Si       2.43957727       3.11293861       6.19947392
Si       0.99177671       4.52300542      14.40261331
Si       4.13006193       1.86399508       6.27409191
20
Lattice="6.033477484490022 0.431966413477322 -1.787688486935061e-15 -0.7565099748376836 5.621385670100225 -6.290524194494841e-16 1.620163992511085e-15 5.422076238941917e-14 15.970043556605068" Properties=species:S:1:pos:R:3 unique_starting_index=93 config_type=initial n_minim_iter=4 stress="0.06630388914214855 -0.0060293850363498085 1.4048654436383382e-16 -0.0060293850363498085 0.021566223731351645 -1.5591570241535314e-16 1.4048654436383382e-16 -1.5591570241535314e-16 -0.018835778187704485" pbc="T T T"
Si       1.72916085       1.01667433      10.65571074
Si       3.54780668       5.03667775       2.67068896
Si       0.00172286       0.27348632      11.67542619
Si       5.27524466       5.77986576       3.69040442
Si       2.31902631       0.05237285       3.14075810
Si       2.95794121       6.00097923      11.12577988
Si       3.31557037       1.48246925       4.34122897
Si       1.96139716       4.57088283      12.32625075
Si       0.08590673       3.33319492       8.53131913
Si       5.19106079       2.72015716       0.54629735
Si       4.01975077       1.85748365       2.41187468
Si       1.25721675       4.19586844      10.39689646
Si       1.46800476       1.97105531      15.64948670
Si       3.80896276       4.08229677       7.66446492
Si       5.29311534       2.35294231       4.24126567
Si      -0.01614782       3.70040977      12.22628744
Si       2.75300442       3.09693279      14.09181173
Si       2.52396310       2.95641929       6.10678995
Si       0.97356401       4.27823982      14.21173583
Si       4.30340351       1.77511227       6.22671405
20
Lattice="6.108781374590703 0.44255688288462763 -3.8466647749968425e-16 -0.7300609276690313 5.28755213664594 1.500892493496588e-14 3.0008907733560087e-15 9.35889424163582e-14 15.869421064806792" Properties=species:S:1:pos:R:3 unique_starting_index=93 config_type=initial n_minim_iter=5 stress="0.08613902728510638 0.01939983594932744 3.1547107436951588e-15 0.01939983594932744 0.03706784839620031 1.9559592613176226e-15 3.1547107436951588e-15 1.9559592613176226e-15 0.03752220645996805" pbc="T T T"
Si       1.75789066       0.94784520      10.59225682
Si       3.62082980       4.78226382       2.65754629
Si       0.00607714       0.21196718      11.58937675
Si       5.37264332       5.51814184       3.65466622
Si       2.33541176       0.04506999       3.08189406
Si       3.04330870       5.68503903      11.01660459
Si       3.36079026       1.45135764       4.33281233
Si       2.01793020       4.27875138      12.26752287
Si       0.09820700       3.13274185       8.50478295
Si       5.28051346       2.59736717       0.57007241
Si       4.09120993       1.73581018       2.35131358
Si       1.28751053       3.99429884      10.28602411
Si       1.48938763       1.87535052      15.53611885
Si       3.88933283       3.85475850       7.60140832
Si       5.39526854       2.22002589       4.19527008
Si      -0.01654808       3.51008313      12.12998061
Si       2.79178533       2.92715478      14.02018146
Si       2.58693513       2.80295424       6.08547093
Si       0.97051382       4.02228493      14.18615950
Si       4.40820664       1.70782409       6.25144897
20
Lattice="6.109945437612587 0.4149845301474776 -1.4359568403002812e-15 -0.7524259077697046 5.172046882962899 7.03124219883666e-15 1.149539508728006e-15 7.032121093343724e-14 15.840497197687581" Properties=species:S:1:pos:R:3 unique_starting_index=93 config_type=initial n_minim_iter=6 stress="0.0694134637700449 0.018203668467365704 1.5711600203232561e-15 0.018203668467365704 0.0049023701915830815 4.375704814777824e-15 1.5711600203232561e-15 4.375704814777824e-15 0.0363164967744454" pbc="T T T"
Si       1.75615728       0.91635781      10.57214569
Si       3.60136227       4.67067361       2.65189709
Si       0.00427744       0.19207970      11.56402307
Si       5.35324210       5.39495172       3.64377447
Si       2.33722780       0.03617399       3.06900855
Si       3.02029174       5.55085743      10.98925715
Si       3.34773524       1.41345691       4.32426912
Si       2.00978431       4.17357451      12.24451772
Si       0.07994444       3.06055575       8.49654542
Si       5.27757510       2.52647567       0.57629682
Si       4.08726493       1.67296441       2.33720403
Si       1.27025461       3.91406700      10.25745263
Si       1.47766222       1.83438811      15.50185860
Si       3.87985732       3.75264330       7.58161000
Si       5.40061129       2.14921524       4.18420009
Si      -0.04309175       3.43781618      12.10444869
Si       2.77496315       2.85315956      13.99972643
Si       2.58255639       2.73387185       6.07947783
Si       0.94418399       3.92404544      14.18008401
Si       4.41333555       1.66298597       6.25983542
20
Lattice="5.9000902516641895 0.3379455703982417 4.1970855806442094e-16 -0.8226251752341127 5.342105869758603 2.285682812736195e-14 2.0603712946471624e-15 1.1541140090814247e-13 15.826043039987555" Properties=species:S:1:pos:R:3 unique_starting_index=93 config_type=initial n_minim_iter=7 stress="-0.019530371527261652 0.023486831367039256 -7.701987830512014e-16 0.023486831367039256 -0.004988164161347913 -1.1772502739505043e-15 -7.701987830512014e-16 -1.1772502739505043e-15 -0.010937084069829506" pbc="T T T"
Si       1.68909343       0.90464689      10.55194822
Si       3.38837166       4.77540455       2.63892670
Si      -0.01398316       0.17443622      11.54014421
Si       5.09144825       5.50561522       3.62712269
Si       2.25784756       0.00144480       3.05592493
Si       2.81961753       5.67860664      10.96894645
Si       3.19868503       1.40713893       4.31337928
Si       1.87878006       4.27291251      12.22640080
Si       0.00269016       3.14806246       8.49770330
Si       5.07477493       2.53198898       0.58468178
Si       3.91969519       1.63206550       2.33892668
Si       1.15776990       4.04798594      10.25194820
Si       1.37970855       1.88598499      15.47068282
Si       3.69775654       3.79406645       7.55766130
Si       5.20446917       2.14043094       4.18753076
Si      -0.12700408       3.53962051      12.10055228
Si       2.61105827       2.90262899      13.99666966
Si       2.46640682       2.77742245       6.08364814
Si       0.83923922       4.00934545      14.19564777
Si       4.23822587       1.67070599       6.28262625
20
Lattice="5.776755751949306 0.15367527699950273 -1.2412946958475615e-15 -1.0154429109455028 5.391817092843201 4.5393395867087474e-14 -1.3024060451932967e-14 1.789011930675386e-13 15.195773172705731" Properties=species:S:1:pos:R:3 unique_starting_index=93 config_type=initial n_minim_iter=8 stress="-0.08542662612412597 0.0035993207455376143 2.8077827536064276e-16 0.0035993207455376143 -0.04610418842843965 1.3203347495554081e-14 2.8077827536064276e-16 1.3203347495554081e-14 -0.03350930552814002" pbc="T T T"
Si       1.64659244       0.81100503      10.10229699
Si       3.11472042       4.73448734       2.50441041
Si      -0.05488371       0.08589797      11.04769339
Si       4.81619657       5.45959440       3.44980681
Si       2.18959477      -0.08851241       2.89124762
Si       2.57171808       5.63400478      10.48913420
Si       3.06679286       1.33896509       4.18010440
Si       1.69452000       4.20652728      11.77799099
Si      -0.16737446       3.14850691       8.19305339
Si       4.92868731       2.39698546       0.59516680
Si       3.80472104       1.41805055       2.22170420
Si       0.95659182       4.12744182       9.81959079
Si       1.24714618       1.90452869      14.80019177
Si       3.51416667       3.64096368       7.20230518
Si       5.08137293       1.96899864       4.03031404
Si      -0.32006008       3.57649373      11.62820062
Si       2.39327786       2.83435297      13.47460152
Si       2.36803500       2.71113940       5.87671493
Si       0.65256433       3.94737974      13.69684680
Si       4.10874853       1.59811263       6.09896021
20
Lattice="5.81252357537248 0.06990563179182363 -2.7632550398988885e-15 -1.122840440629024 5.511809680141777 3.819673335740358e-14 -1.916126827196673e-14 1.6359146087585702e-13 14.917249984228686" Properties=species:S:1:pos:R:3 unique_starting_index=93 config_type=initial n_minim_iter=9 stress="-0.05099473416825238 -0.007196749329752948 3.0819813055568678e-15 -0.007196749329752948 0.02405098928071931 5.933454374203843e-15 3.0819813055568678e-15 5.933454374203843e-15 -0.05182651674915834" pbc="T T T"
Si       1.65589189       0.79332932       9.90339942
Si       3.03379126       4.78838599       2.44477443
Si      -0.07335482       0.06388379      10.82982757
Si       4.76303796       5.51783152       3.37120258
Si       2.20099920      -0.11888398       2.84380525
Si       2.48868395       5.70059929      10.30243024
Si       3.05312906       1.31689723       4.13741302
Si       1.63655408       4.26481808      11.59603801
Si      -0.23920154       3.21265592       8.05510965
Si       4.92888469       2.36905939       0.59648465
Si       3.83072159       1.36857170       2.18128371
Si       0.85896156       4.21314361       9.63990870
Si       1.18392162       1.93259351      14.53470731
Si       3.50576153       3.64912180       7.07608232
Si       5.08881123       1.92341197       3.96348198
Si      -0.39912808       3.65830334      11.42210697
Si       2.35482284       2.87043144      13.21191573
Si       2.33486031       2.71128387       5.75329074
Si       0.60973217       3.99548319      13.42578036
Si       4.07995097       1.58623213       5.96715536
20
Lattice="5.860979925659526 0.018150303019141556 -5.067650737356537e-15 -1.187643103801484 5.51697641702489 3.267499587829509e-14 -2.6716522392522015e-14 1.4894134127194327e-13 14.740825900319074" Properties=species:S:1:pos:R:3 unique_starting_index=93 config_type=initial n_minim_iter=10 stress="-0.030580813105763043 0.002013263161509772 3.0855162260048033e-15 0.002013263161509772 -0.027776339390651505 4.147967308022488e-15 3.0855162260048033e-15 4.147967308022488e-15 -0.05288508903962956" pbc="T T T"
Si       1.67584423       0.76106552       9.77373056
Si       2.99749260       4.77406120       2.40331761
Si      -0.08788181       0.03976776      10.68643010
Si       4.76121864       5.49535896       3.31601715
Si       2.21200191      -0.13890463       2.80803758
Si       2.46133493       5.67403135      10.17845053
Si       3.06321825       1.29351762       4.10975044
Si       1.61011859       4.24160910      11.48016339
Si      -0.28422543       3.21227323       7.97440690
Si       4.95756226       2.32285349       0.60399395
Si       3.87658808       1.30468228       2.15849564
Si       0.79674876       4.23044444       9.52890859
Si       1.13988102       1.92928291      14.36825022
Si       3.53345582       3.60584381       6.99783727
Si       5.11857672       1.86829885       3.91847882
Si      -0.44523989       3.66682787      11.28889177
Si       2.34637281       2.86148147      13.04272368
Si       2.32696402       2.67364525       5.67231073
Si       0.58836293       3.97036923      13.26376580
Si       4.08497391       1.56475749       5.89335285
20
Lattice="5.870713819689746 -0.011992231170981749 -9.532137654879897e-15 -1.232158898816849 5.644732002890739 2.4969259734175825e-14 -3.959842306872266e-14 1.297845760417081e-13 14.661893980041846" Properties=species:S:1:pos:R:3 unique_starting_index=93 config_type=initial n_minim_iter=11 stress="0.016077997288204925 0.036193109369925376 -1.4823682502632397e-15 0.036193109369925376 0.0004742342288046601 9.289461981293392e-15 -1.4823682502632397e-15 9.289461981293392e-15 0.01790364285007582" pbc="T T T"
Si       1.69429454       0.76086333       9.69762629
Si       2.94426039       4.87187644       2.36667930
Si      -0.09881935      -0.02239577      10.60469674
Si       4.73737428       5.65513554       3.27374975
Si       2.19863171      -0.15162334       2.79597169
Si       2.43992322       5.78436311      10.12691868
Si       3.05896300       1.31119461       4.10899565
Si       1.57959193       4.32154517      11.43994264
Si      -0.32409502       3.28734491       7.96245865
Si       4.96264996       2.34539486       0.63151166
Si       3.93344806       1.28430834       2.16486667
Si       0.70510688       4.34843143       9.49581366
Si       1.06069270       1.98053809      14.30875140
Si       3.57786224       3.65220168       6.97780441
Si       5.10482718       1.85069915       3.88326025
Si      -0.46627225       3.78204062      11.21420724
Si       2.33870422       2.94221447      12.94171208
Si       2.29985072       2.69052530       5.61076509
Si       0.57062602       4.03107741      13.19609202
Si       4.06792891       1.60166237       5.86514503
20
Lattice="5.859111555863118 -0.052382127604827355 -1.2123388427767776e-14 -1.2815109100671331 5.722641314968501 2.1787213221228078e-14 -4.777538485376807e-14 1.2220216019020581e-13 14.590856967315277" Properties=species:S:1:pos:R:3 unique_starting_index=93 config_type=initial n_minim_iter=12 stress="0.036729325608456896 0.030424558540228273 2.4445569289599388e-15 0.030424558540228273 4.383996973772254e-05 1.5191930461263524e-14 2.4445569289599388e-15 1.5191930461263524e-14 0.006492786271618464" pbc="T T T"
Si       1.68500679       0.74964071       9.64292574
Si       2.89259387       4.92061847       2.34749726
Si      -0.09182143      -0.05218725      10.53496502
Si       4.66942209       5.72244644       3.23953654
Si       2.18829870      -0.16746222       2.78120901
Si       2.38930196       5.83772141      10.07663749
Si       3.03196226       1.30614964       4.10044104
Si       1.54563840       4.36410955      11.39586953
Si      -0.36300160       3.33025872       7.93931018
Si       4.94060226       2.34000047       0.64388169
Si       3.94502508       1.25471648       2.16465783
Si       0.63257558       4.41554271       9.46008631
Si       1.00905372       2.00893567      14.24423543
Si       3.56854694       3.66132351       6.94880695
Si       5.07877842       1.82726463       3.85434786
Si      -0.50117776       3.84299456      11.14977634
Si       2.30711801       2.97755498      12.86609331
Si       2.27048265       2.69270421       5.57066482
Si       0.53470922       4.06309402      13.14058107
Si       4.04289143       1.60716517       5.84515259
20
Lattice="5.759373620074326 -0.1567410718678367 -1.6434836824387117e-14 -1.4006639295315984 5.939058753022812 1.8584942169810626e-14 -6.144051127069886e-14 1.164768117826914e-13 14.6386841523125" Properties=species:S:1:pos:R:3 unique_starting_index=93 config_type=initial n_minim_iter=13 stress="-0.01580381923769898 0.005988064709180989 -6.762122745456308e-15 0.005988064709180989 0.03932129187118744 7.563704981007726e-15 -6.762122745456308e-15 7.563704981007726e-15 0.02252316042016481" pbc="T T T"
Si       1.65963617       0.71702791       9.66364599
Si       2.69907353       5.06528977       2.34430392
Si      -0.07205937      -0.10901181      10.52794837
Si       4.43076907       5.89132949       3.20860629
Si       2.16522508      -0.21440989       2.78483816
Si       2.19348463       5.99672757      10.10418024
Si       2.92725313       1.29439511       4.12411517
Si       1.43145658       4.48792257      11.44345725
Si      -0.46612084       3.44780171       7.99110396
Si       4.82483054       2.33451597       0.67176189
Si       3.88459861       1.17823753       2.18469043
Si       0.47411110       4.60408015       9.50403251
Si       0.89114837       2.09263977      14.29071958
Si       3.46756134       3.68967791       6.97137751
Si       4.95908782       1.78970358       3.86407626
Si      -0.60037811       3.99261410      11.18341834
Si       2.18621239       3.05745817      12.89427874
Si       2.17249731       2.72485951       5.57493666
Si       0.40962918       4.17156705      13.20973968
Si       3.94908052       1.61075063       5.89039760
20
Lattice="5.751876490037539 -0.19945692209238297 -1.9152859970156958e-14 -1.4515191523084598 5.994755777278513 1.850142780185435e-14 -7.061215393990295e-14 1.1671263344868403e-13 14.578408820072822" Properties=species:S:1:pos:R:3 unique_starting_index=93 config_type=initial n_minim_iter=14 stress="-0.04309758306226357 0.004426526158276819 -2.488797781708707e-15 0.004426526158276819 0.01587268279696569 1.2235512559547712e-14 -2.488797781708707e-15 1.2235512559547712e-14 0.0015373859695280788" pbc="T T T"
Si       1.65711059       0.71076056       9.61800123
Si       2.64324676       5.08453830       2.32879682
Si      -0.06245375      -0.14067502      10.46589918
Si       4.36281110       5.93597387       3.17669477
Si       2.16103185      -0.22772988       2.76906352
Si       2.13932550       6.02302873      10.05826793
Si       2.90764747       1.28605172       4.10665499
Si       1.39270988       4.50924713      11.39585940
Si      -0.50909256       3.47528380       7.96979806
Si       4.80944991       2.32001506       0.68059365
Si       3.87434718       1.14142303       2.18121486
Si       0.42601017       4.65387583       9.47041927
Si       0.85314762       2.12221359      14.22564648
Si       3.44720973       3.67308526       6.93644207
Si       4.94728564       1.75866424       3.84919552
Si      -0.64692829       4.03663462      11.13839993
Si       2.13700786       3.07606735      12.83896550
Si       2.16334949       2.71923151       5.54976109
Si       0.36528154       4.18925061      13.17499294
Si       3.93507581       1.60604824       5.88578853
20
Lattice="5.793705499881888 -0.23566973911934547 -2.191326247056123e-14 -1.4976381547428361 5.994332547229263 1.9303173575240664e-14 -7.956993873259185e-14 1.1781776675587913e-13 14.71499508933913" Properties=species:S:1:pos:R:3 unique_starting_index=93 config_type=initial n_minim_iter=15 stress="0.00479803387999527 -0.00016006605716725774 -1.2799681348912025e-14 -0.00016006605716725774 0.010445588111652573 1.7174956091115446e-14 -1.2799681348912025e-14 1.7174956091115446e-14 0.028102477100011045" pbc="T T T"
Si       1.66900941       0.71436093       9.70393086
Si       2.62705794       5.04430188       2.34643331
Si      -0.04551910      -0.16185218      10.53759107
Si       4.34158645       5.92051499       3.18009352
Si       2.17794366      -0.22527524       2.79933074
Si       2.11812370       5.98393805      10.15682829
Si       2.92668033       1.26060886       4.13141366
Si       1.36938703       4.49805395      11.48891121
Si      -0.53659473       3.46538411       8.05602887
Si       4.83266209       2.29327869       0.69853133
Si       3.88702996       1.10881761       2.22157015
Si       0.40903740       4.64984520       9.57906770
Si       0.83748330       2.13057405      14.35370859
Si       3.45858406       3.62808876       6.99621104
Si       4.97158882       1.72461244       3.89356826
Si      -0.67552147       4.03405037      11.25106580
Si       2.10780690       3.07846942      12.94669558
Si       2.18826046       2.68019339       5.58919804
Si       0.33591224       4.17311560      13.31635843
Si       3.96015512       1.58554721       5.95886088
20
Lattice="5.795618109056292 -0.26617284930420526 -2.5169202173430265e-14 -1.5331981212243286 6.010688429472681 2.057005766920696e-14 -9.065347326684492e-14 1.2085442802557517e-13 14.624145771721839" Properties=species:S:1:pos:R:3 unique_starting_index=93 config_type=initial n_minim_iter=16 stress="0.01243306512060603 -0.021868238371020147 -2.4755190134399774e-14 -0.021868238371020147 -0.011182571675967923 2.167374648527449e-14 -2.4755190134399774e-14 2.167374648527449e-14 0.001452819814187199" pbc="T T T"
Si       1.68054676       0.71494867       9.63697665
Si       2.58187325       5.02956691       2.32490377
Si      -0.04263372      -0.18666583      10.44709488
Si       4.30505372       5.93118141       3.13502200
Si       2.17779113      -0.22662773       2.78080476
Si       2.08462887       5.97114331      10.09287765
Si       2.91819309       1.24966086       4.10399505
Si       1.34422691       4.49485472      11.41606793
Si      -0.55745012       3.47113988       8.02750037
Si       4.81987012       2.27337570       0.71542748
Si       3.88353669       1.08191689       2.20973230
Si       0.37888331       4.66259869       9.52180518
Si       0.80930452       2.14697045      14.26015197
Si       3.45311548       3.59754513       6.94807909
Si       4.96864092       1.70260726       3.88041715
Si      -0.70622092       4.04190832      11.19249004
Si       2.07652702       3.08810156      12.85116356
Si       2.18589298       2.65641402       5.53909067
Si       0.29199226       4.17399482      13.25634318
Si       3.97042774       1.57052076       5.94427029
20
Lattice="5.783187470607959 -0.2853953171919584 -2.889155101354518e-14 -1.5558234369679675 6.048804173602826 2.24494042134053e-14 -1.0269472795850451e-13 1.2560338181552199e-13 14.57267350975559" Properties=species:S:1:pos:R:3 unique_starting_index=93 config_type=initial n_minim_iter=17 stress="0.004534405945191764 -0.007254005385140166 -1.8627009831353968e-14 -0.007254005385140166 -0.019126111306741658 1.5168519454578255e-14 -1.8627009831353968e-14 1.5168519454578255e-14 -0.014655505264463908" pbc="T T T"
Si       1.68569433       0.72119064       9.59275407
Si       2.54166971       5.04221822       2.30641731
Si      -0.04308236      -0.21331639      10.38629887
Si       4.27044640       5.97672525       3.09996212
Si       2.16826567      -0.22356112       2.77169923
Si       2.05909838       5.98696998      10.05803599
Si       2.90596804       1.25233868       4.09353023
Si       1.32139601       4.51107017      11.37986698
Si      -0.57415757       3.48596684       8.01494285
Si       4.80152162       2.27744201       0.72860609
Si       3.87323948       1.06006651       2.20980034
Si       0.35412457       4.70334234       9.49613709
Si       0.78104583       2.17299113      14.20657407
Si       3.44631821       3.59041772       6.92023731
Si       4.95371744       1.69544246       3.87919141
Si      -0.72635339       4.06796639      11.16552817
Si       2.04424966       3.11676390      12.79105399
Si       2.18311438       2.64664496       5.50471723
Si       0.26348592       4.18941254      13.22164246
Si       3.96387812       1.57399631       5.93530570
20
Lattice="5.758193872999613 -0.30299078814632063 -3.292921298547883e-14 -1.5752587245472802 6.091438799437243 2.506963676887297e-14 -1.1531762662298145e-13 1.3220919723302657e-13 14.568936107097503" Properties=species:S:1:pos:R:3 unique_starting_index=93 config_type=initial n_minim_iter=18 stress="0.010150065878207408 -0.003184622784712083 -3.414673370454323e-14 -0.003184622784712083 -0.016885212352845822 1.48544596423447e-14 -3.414673370454323e-14 1.48544596423447e-14 -0.0220545928711454" pbc="T T T"
Si       1.69038185       0.73013276       9.57898767
Si       2.49255331       5.05831525       2.29451961
Si      -0.04213222      -0.23882761      10.35796866
Si       4.22506738       6.02727562       3.07350061
Si       2.15322621      -0.22029075       2.77119993
Si       2.02970895       6.00873876      10.05566799
Si       2.89392672       1.24870312       4.09379271
Si       1.28900844       4.53974489      11.37826076
Si      -0.57627968       3.50022022       8.03431848
Si       4.75921484       2.28822779       0.74985043
Si       3.85887027       1.04146711       2.21818630
Si       0.32406489       4.74698090       9.50265435
Si       0.76288284       2.19706997      14.19617192
Si       3.42005232       3.59137804       6.91170387
Si       4.93149864       1.69295446       3.89236727
Si      -0.74856348       4.09549355      11.17683533
Si       2.01112044       3.14050818      12.77926093
Si       2.17181472       2.64793983       5.49479287
Si       0.23826798       4.20955067      13.22441691
Si       3.94466718       1.57889734       5.93994885
20
Lattice="5.569941663752136 -0.3707939876120869 -5.546850691295645e-14 -1.6437455316929914 6.337628506288385 5.1333825784340417e-14 -1.8485271876060304e-13 2.0031844471371263e-13 14.69565691182138" Properties=species:S:1:pos:R:3 unique_starting_index=93 config_type=initial n_minim_iter=19 stress="0.012472165337253331 -0.0030324972695876416 -4.712647066675976e-14 -0.0030324972695876416 0.025597637546513598 3.1798617043859326e-14 -4.712647066675976e-14 3.1798617043859326e-14 0.014568799526761203" pbc="T T T"
Si       1.67629508       0.79064900       9.60523926
Si       2.24990106       5.17618551       2.25741081
Si       0.00758731      -0.38827233      10.30418679
Si       3.91860883       6.35510685       2.95635833
Si       2.04567083      -0.19262523       2.79543708
Si       1.88052531       6.15945975      10.14326553
Si       2.80723404       1.23762107       4.13996262
Si       1.11896210       4.72921344      11.48779108
Si      -0.59903803       3.59115502       8.20378127
Si       4.52523418       2.37567949       0.85595281
Si       3.75706948       0.95103542       2.29066633
Si       0.16912667       5.01579910       9.63849479
Si       0.63288852       2.34441341      14.30658825
Si       3.29330763       3.62242111       6.95875979
Si       4.79760403       1.70001045       4.00497601
Si      -0.87140788       4.26682407      11.35280446
Si       1.86379132       3.27037384      12.84024441
Si       2.06240482       2.69646068       5.49241596