16
Lattice="6.9800477694106675 -0.6324671718392764 -0.5470320713919947 0.5518303466086901 6.986885204099961 -0.547032071391996 0.5518303466086905 0.4655625929183477 6.992786312656601" Properties=species:S:1:pos:R:3 unique_starting_index=52 config_type=initial n_minim_iter=1 energy=-2600.428732940407 free_energy=-2600.428732940407 pbc="T T T"
Si       4.74587061       1.38160877       2.43887941
Si       3.37431423       4.23822875       1.01571847
Si       2.16097095       3.05406305       4.04761249
Si       1.02062261       2.48024821       2.08319479
Si       2.55619290       0.59877151       2.15414779
Si       2.61668525       2.14624980       0.28208565
Si       5.56379751       4.84852339       6.40473932
Si       7.87295203       4.29957188       3.87492136
Si       5.71610699       7.01059120       3.69627374
Si       6.59379721       5.31462877       2.28437117
Si       4.09344488       5.99008279       4.92995024
Si       6.34898429       3.06823800       5.21709749
Si       6.60327054       0.88056537       5.97957091
Si       7.06958907       5.49132612       0.00965385
Si       1.97982127       6.83380252       5.43261413
Si       4.13954567       3.49240963       3.02064701
16
Lattice="6.949790367443705 -0.6333512484235035 -0.5477967249055208 0.5458642923608833 6.957208644968062 -0.547796724905526 0.5458642923608809 0.4605292131809521 6.9635297245895655" Properties=species:S:1:pos:R:3 unique_starting_index=52 config_type=initial n_minim_iter=2 stress="-0.004775683864328665 -0.0002948291611682408 -0.0002550029691999359 -0.0002948291611682408 -0.00467496194620129 -0.0002151383016037236 -0.0002550029691999359 -0.0002151383016037236 -0.004612300421303118" pbc="T T T"
Si       4.72240098       1.37160049       2.42384657
Si       3.35427728       4.21784178       1.00798105
Si       2.14715385       3.03609604       4.02855338
Si       1.01365289       2.46863847       2.07493503
Si       2.54531334       0.59355922       2.14384956
Si       2.60406774       2.13736790       0.27841185
Si       5.53520049       4.82427877       6.37515146
Si       7.83583198       4.27690129       3.85519375
Si       5.68739348       6.97783818       3.67668275
Si       6.56068371       5.28718569       2.27133217
Si       4.07125234       5.96028047       4.90467268
Si       6.31635752       3.05129713       5.19124903
Si       6.57066318       0.87104269       5.94673724
Si       7.03071902       5.46488604       0.00496225
Si       1.96494428       6.79691068       5.40712615
Si       4.11790057       3.47414832       3.00485247
16
Lattice="6.95766919625407 -0.6525960830874377 -0.5644419236423517 0.5282208172868353 6.968215342564314 -0.564441923642397 0.5282208172867986 0.44564394626143367 6.976820279946614" Properties=species:S:1:pos:R:3 unique_starting_index=52 config_type=initial n_minim_iter=3 stress="-0.0037019510671769318 -0.009901193009070065 -0.008563717394615665 -0.009901193009070065 -0.00031942558133829643 -0.007224949660270145 -0.008563717394615665 -0.007224949660270145 0.0017849247814331515" pbc="T T T"
Si       4.71119946       1.34569281       2.37969886
Si       3.30564780       4.21478462       0.98870597
Si       2.11973000       2.99144659       4.02830587
Si       0.99538589       2.46971234       2.09741290
Si       2.56431584       0.57178175       2.14167292
Si       2.60205057       2.15699019       0.25717538
Si       5.53366295       4.83287167       6.38718496
Si       7.84853162       4.27317220       3.86196279
Si       5.69560481       6.98931915       3.67201709
Si       6.54407113       5.26620459       2.27279341
Si       4.06690010       5.94417070       4.88370001
Si       6.29287882       3.05089235       5.17832980
Si       6.55711907       0.84518626       5.87084780
Si       6.95074043       5.46480722      -0.00968780
Si       1.93717650       6.72051682       5.40915938
Si       4.10713296       3.46506401       2.99699529
16
Lattice="6.973674873479379 -0.516506300083573 -0.4467354572728475 0.6650626019026439 6.9610783456713206 -0.4467354572729353 0.6650626019025706 0.5610932260207607 6.9527950275463075" Properties=species:S:1:pos:R:3 unique_starting_index=52 config_type=initial n_minim_iter=4 stress="-0.0006669071472394008 -0.004885618234771903 -0.004225657839640062 -0.004885618234771903 0.0010021571946090392 -0.0035650598643205975 -0.004225657839640062 -0.0035650598643205975 0.002040522217418121" pbc="T T T"
Si       4.80440829       1.46610976       2.43176297
Si       3.38923254       4.29506602       1.10036296
Si       2.25412182       3.05328596       4.09165830
Si       1.08268163       2.52074753       2.16550985
Si       2.65268804       0.64524665       2.18236188
Si       2.66705557       2.23553860       0.32400971
Si       5.80200801       5.06933946       6.54722494
Si       8.08341368       4.50528278       4.07289877
Si       5.97387923       7.18007002       3.87130668
Si       6.73001874       5.42102753       2.48274184
Si       4.32499292       6.08872567       5.00665104
Si       6.47680033       3.28130696       5.30365730
Si       6.71700845       1.06999809       5.88766088
Si       7.02599713       5.61415751       0.21035440
Si       2.18570011       6.75441220       5.52524026
Si       4.25868661       3.59292525       3.10758474
16
Lattice="6.985369714617778 -0.4237549144728844 -0.3665131392550553 0.7584588947944446 6.956989175091937 -0.3665131392551633 0.7584588947943541 0.6398888568788497 6.93718765166659" Properties=species:S:1:pos:R:3 unique_starting_index=52 config_type=initial n_minim_iter=5 stress="-0.0011573172818829796 0.00010494725508443897 9.077074177469348e-05 0.00010494725508443897 -0.0011931702103795084 7.658053269668336e-05 9.077074177469348e-05 7.658053269668336e-05 -0.001215475178489168" pbc="T T T"
Si       4.86655053       1.55462867       2.47650491
Si       3.45591295       4.34671837       1.18151008
Si       2.35184015       3.10424049       4.13107731
Si       1.14669658       2.55847358       2.20974212
Si       2.71197133       0.70006237       2.21331979
Si       2.71502154       2.28748727       0.37379188
Si       5.96871582       5.21626509       6.65091950
Si       8.23350156       4.64876804       4.20334724
Si       6.14677668       7.30279844       3.99449517
Si       6.85586940       5.52678489       2.62477715
Si       4.49975224       6.18654779       5.09083566
Si       6.60223794       3.43717097       5.38832640
Si       6.83323141       1.22004285       5.92237038
Si       7.10073735       5.71929715       0.35383092
Si       2.35317175       6.80162844       5.60860592
Si       4.36579011       3.68328523       3.18573870
16
Lattice="7.014793040610442 -0.2980481949610809 -0.25778716860509754 0.8873250562087693 6.964826514260088 -0.2577871686052504 0.8873250562086404 0.7486093442826239 6.929274611941053" Properties=species:S:1:pos:R:3 unique_starting_index=52 config_type=initial n_minim_iter=6 stress="-0.0012296709270184392 0.0019254475258417268 0.0016653537057980169 0.0019254475258417268 -0.0018874578544954563 0.0014050086120888875 0.0016653537057980169 0.0014050086120888875 -0.0022966829040220087" pbc="T T T"
Si       4.95476226       1.67758064       2.52436867
Si       3.53491926       4.42271236       1.29628095
Si       2.48788941       3.16115199       4.18973835
Si       1.23662480       2.62005196       2.28894175
Si       2.81311440       0.77401644       2.26284189
Si       2.79086247       2.37714059       0.43983733
Si       6.21161389       5.43498765       6.81718598
Si       8.46765174       4.85518806       4.39582591
Si       6.40327457       7.49652657       4.17102227
Si       7.03866251       5.67685698       2.83777089
Si       4.75960955       6.32760116       5.20864657
Si       6.78094529       3.67026628       5.51092960
Si       7.00669106       1.42184409       5.94829471
Si       7.18389764       5.88106421       0.54978971
Si       2.58129819       6.84702601       5.74044464
Si       4.52979630       3.82165230       3.30541483
16
Lattice="7.058001984192574 -0.18719607739828623 -0.16190920657231514 1.0038698531684593 6.98875380151277 -0.16190920657250962 1.003869853168295 0.8469346687182054 6.939135101455776" Properties=species:S:1:pos:R:3 unique_starting_index=52 config_type=initial n_minim_iter=7 stress="0.0005339049691050107 0.0023385322427202037 0.002022638001957553 0.0023385322427202037 -0.0002650032940911276 0.0017064385793811108 0.002022638001957553 0.0017064385793811108 -0.0007620233167102176" pbc="T T T"
Si       5.04091395       1.79772629       2.56775626
Si       3.60881387       4.49748961       1.40891986
Si       2.62082556       3.21340951       4.24750258
Si       1.32484620       2.68545490       2.36974791
Si       2.91608044       0.84592758       2.31591709
Si       2.87018594       2.46804841       0.50334912
Si       6.43174065       5.63344901       6.98553241
Si       8.69711848       5.03930696       4.56795514
Si       6.63596640       7.68956983       4.32841360
Si       7.21464842       5.82025881       3.03912262
Si       5.00601716       6.46404614       5.32153459
Si       6.95193145       3.89103597       5.62968194
Si       7.18294628       1.59622778       5.98003712
Si       7.26930904       6.04528282       0.71777869
Si       2.78286923       6.89924333       5.87874007
Si       4.70392173       3.96855667       3.43247502
16
Lattice="7.095140339001779 -0.11436481157347557 -0.0989161533670319 1.0819144863264547 7.013098943016099 -0.09891615336726042 1.08191448632626 0.9127785680247534 6.954148148816334" Properties=species:S:1:pos:R:3 unique_starting_index=52 config_type=initial n_minim_iter=8 stress="0.0028717255254640368 0.0023737181201028555 0.0020530708911969922 0.0023737181201028555 0.0020607967787884133 0.0017321138886702916 0.0020530708911969922 0.0017321138886702916 0.001556298524630447" pbc="T T T"
Si       5.09804970       1.89991058       2.58859340
Si       3.65327496       4.54785833       1.50703465
Si       2.73117121       3.23966599       4.28320614
Si       1.39467907       2.73828898       2.43343584
Si       2.99746718       0.90286990       2.35902156
Si       2.93402385       2.53970952       0.55348524
Si       6.56305143       5.75606744       7.11738837
Si       8.86526304       5.14379817       4.67029178
Si       6.77894370       7.83572724       4.41706629
Si       7.33115390       5.91309839       3.18276074
Si       5.17893140       6.55270289       5.39270529
Si       7.06306220       4.04747199       5.70715680
Si       7.31783087       1.69887081       5.98700300
Si       7.31339579       6.17459042       0.81834643
Si       2.90675805       6.92280668       5.99220502
Si       4.86301794       4.10278133       3.54856831
16
Lattice="7.04434649434086 -0.2849959226617582 -0.2464980268595575 0.905167052838378 6.991760351636922 -0.24649802685975172 0.9051670528382122 0.7636620978413454 6.954300417172721" Properties=species:S:1:pos:R:3 unique_starting_index=52 config_type=initial n_minim_iter=9 stress="0.0043464389209969725 -0.00029558304336142077 -0.00025565501527634505 -0.00029558304336142077 0.004447418386445263 -0.00021568841318016306 -0.00025565501527634505 -0.00021568841318016306 0.004510240137718889" pbc="T T T"
Si       4.96580637       1.78870512       2.49481932
Si       3.52374098       4.43582583       1.41050384
Si       2.59928692       3.13078355       4.18625420
Si       1.28307939       2.66011262       2.33818572
Si       2.87466117       0.81063082       2.29538779
Si       2.83817298       2.43149749       0.47137930
Si       6.17763400       5.42445197       6.91231972
Si       8.55323039       4.80609798       4.37169042
Si       6.38716793       7.58609597       4.12592280
Si       7.04957838       5.67829560       2.90328171
Si       4.82555333       6.32741102       5.20062937
Si       6.78420134       3.73660900       5.51189680
Si       7.10016238       1.39735222       5.88378956
Si       7.13323627       5.98454303       0.53484937
Si       2.57289426       6.79706638       5.84499636
Si       4.69794411       3.96351353       3.42811312
16
Lattice="6.959030947753133 -0.4236510337318767 -0.36642329096015225 0.7541264941942512 6.931008956921223 -0.3664232909603334 0.7541264941940968 0.6362337413721061 6.9114656778009325" Properties=species:S:1:pos:R:3 unique_starting_index=52 config_type=initial n_minim_iter=10 stress="-0.002645711481951581 -0.006901476914190972 -0.005969209755274838 -0.006901476914190972 -0.0002879732244711441 -0.005036041943720325 -0.005969209755274838 -0.005036041943720325 0.0011788323851892899" pbc="T T T"
Si       4.82548052       1.72513212       2.38275304
Si       3.38176960       4.31771823       1.36374439
Si       2.51299415       3.00149590       4.07611799
Si       1.18599245       2.58231976       2.24648980
Si       2.75782013       0.73209577       2.23162132
Si       2.74514372       2.32885484       0.40285346
Si       5.81800895       5.11692594       6.71810588
Si       8.25955065       4.49142880       4.09536276
Si       6.02348048       7.35028555       3.85436002
Si       6.76143626       5.44248131       2.64478928
Si       4.49139694       6.09217410       5.00452811
Si       6.50323775       3.44560527       5.30737566
Si       6.87749245       1.13450336       5.71894727
Si       6.89761293       5.79889576       0.29849976
Si       2.27630598       6.60869176       5.69534746
Si       4.57631008       3.86089457       3.33935616
16
Lattice="6.929533184682889 -0.39545663098462086 -0.34203745210047826 0.7769516690852212 6.897185093102602 -0.3420374521006853 0.7769516690850453 0.6554906518906433 6.874480622740933" Properties=species:S:1:pos:R:3 unique_starting_index=52 config_type=initial n_minim_iter=11 stress="-0.0061330974986518625 -0.007245178316061882 -0.0062664831920269835 -0.007245178316061882 -0.0036579411936409744 -0.00528684256182845 -0.0062664831920269835 -0.00528684256182845 -0.0021180869958908623" pbc="T T T"
Si       4.82199733       1.81150643       2.36090151
Si       3.37213815       4.31582978       1.45236613
Si       2.59754881       2.97728183       4.06147791
Si       1.20582249       2.59024651       2.25281870
Si       2.76845846       0.75039586       2.23855328
Si       2.75629620       2.33774226       0.41996355
Si       5.80975380       5.11572810       6.73725401
Si       8.27666827       4.48013016       4.09141797
Si       6.02090978       7.36809020       3.84374780
Si       6.74034770       5.42849476       2.66023594
Si       4.50092651       6.06915231       4.98846154
Si       6.48590010       3.45823438       5.28690955
Si       6.88719509       1.15523743       5.64223904
Si       6.82736817       5.82073772       0.33007188
Si       2.29837771       6.53365942       5.71241154
Si       4.66910347       3.93918155       3.40706796
16
Lattice="6.931012244007064 -0.29876314853607255 -0.258405544629099 0.8725136918320378 6.8823622400353655 -0.2584055446293287 0.8725136918318428 0.7361134436018073 6.8477602489214595" Properties=species:S:1:pos:R:3 unique_starting_index=52 config_type=initial n_minim_iter=12 stress="-0.0036857982512309307 -0.0013704981570812967 -0.0011853681567799649 -0.0013704981570812967 -0.00321759760708854 -0.001000059304503395 -0.0011853681567799649 -0.001000059304503395 -0.0029263187388356986" pbc="T T T"
Si       4.88912397       1.94897400       2.39816250
Si       3.43931394       4.37245411       1.58302905
Si       2.74435622       3.02035381       4.09868126
Si       1.26471617       2.63458969       2.28992423
Si       2.82086777       0.80119030       2.27708628
Si       2.80992253       2.38175053       0.46467476
Si       5.96878466       5.25388090       6.82802198
Si       8.41160830       4.61841474       4.21504805
Si       6.18386703       7.47714930       3.96277250
Si       6.84422610       5.52314793       2.77538451
Si       4.64418263       6.15006511       5.06553254
Si       6.59669246       3.58464050       5.35587100
Si       6.98566270       1.30709375       5.64146173
Si       6.86476114       5.91424428       0.48045507
Si       2.46464549       6.54319311       5.78327022
Si       4.83242276       4.07696910       3.52624285
16
Lattice="6.903014422242028 -0.3021094622589098 -0.2612998307025031 0.8645010114392313 6.855327580946684 -0.26129983070271573 0.8645010114390499 0.7293533872134139 6.821424886354334" Properties=species:S:1:pos:R:3 unique_starting_index=52 config_type=initial n_minim_iter=13 stress="-0.0036586832928595927 -0.000659256112024165 -0.000570202300760459 -0.000659256112024165 -0.0034334628978451077 -0.0004810624556290227 -0.000570202300760459 -0.0004810624556290227 -0.003293347879661874" pbc="T T T"
Si       4.88863612       2.01231853       2.39890990
Si       3.44895914       4.37031166       1.64560465
Si       2.80671423       3.01948708       4.08754336
Si       1.23751804       2.63206835       2.25275188
Si       2.77967096       0.78063523       2.27994819
Si       2.80285769       2.34116380       0.44392182
Si       5.92208610       5.21027644       6.76751818
Si       8.33853383       4.58352195       4.18061799
Si       6.13302223       7.41170143       3.93320567
Si       6.79481869       5.49720683       2.70815232
Si       4.56659809       6.11319462       5.04955110
Si       6.56280273       3.51172109       5.32168848
Si       6.94104545       1.29899535       5.61801238
Si       6.83322502       5.87436761       0.47582051
Si       2.44915027       6.51384703       5.74447769
Si       4.86492631       4.10439137       3.54996086
16
Lattice="6.927595379693769 -0.27040215039495075 -0.2338756144593575 0.8998944632348213 6.874218866368159 -0.2338756144595653 0.8998944632346435 0.7592137732750919 6.8361668552077175" Properties=species:S:1:pos:R:3 unique_starting_index=52 config_type=initial n_minim_iter=14 stress="0.0011377801035812552 0.002121827424149467 0.001835206161915964 0.002121827424149467 0.0004129042899133922 0.001548307998159174 0.001835206161915964 0.001548307998159174 -3.805836737969108e-05" pbc="T T T"
Si       4.92972111       2.03506425       2.43451516
Si       3.49383850       4.40432569       1.66298185
Si       2.83605291       3.06000501       4.11869810
Si       1.24922876       2.65680421       2.26773387
Si       2.79977050       0.78908227       2.30226678
Si       2.82921219       2.35705274       0.44906435
Si       6.01130488       5.28672070       6.79967094
Si       8.39577810       4.66425484       4.25163073
Si       6.22339733       7.45433748       4.00286215
Si       6.87224509       5.56275035       2.76526927
Si       4.64465924       6.17840851       5.10617929
Si       6.64044718       3.57765010       5.37806091
Si       6.98947595       1.35952078       5.66995428
Si       6.90064322       5.91198359       0.52822877
Si       2.51696608       6.57065781       5.77414844
Si       4.89262589       4.12776067       3.57017338
16
Lattice="6.930526062211258 -0.270903863704189 -0.2343095551965501 0.8998933675061058 6.877192183549754 -0.23430955519675725 0.899893367505929 0.7592128488418762 6.839171671137384" Properties=species:S:1:pos:R:3 unique_starting_index=52 config_type=initial n_minim_iter=15 stress="0.0029006399853410223 0.0009664431910278667 0.0008358938522190894 0.0009664431910278667 0.0025704758605463534 0.0007052183911868757 0.0008358938522190894 0.0007052183911868757 0.002365072827015954" pbc="T T T"
Si       4.93240631       2.05646642       2.43309357
Si       3.49594420       4.40669009       1.68436547
Si       2.85760164       3.05846038       4.11795622
Si       1.24386965       2.66792784       2.26605240
Si       2.79880813       0.78380993       2.31351662
Si       2.83927467       2.35435762       0.44222582
Si       6.00145745       5.28376587       6.79411244
Si       8.38827835       4.65554585       4.24950779
Si       6.21882663       7.44750984       3.99455000
Si       6.87587664       5.56558042       2.77196874
Si       4.65220762       6.18080329       5.10801435
Si       6.64384831       3.58472685       5.38016624
Si       6.99177519       1.34621852       5.66229990
Si       6.89167439       5.91584814       0.51616844
Si       2.50424086       6.56373272       5.77971066
Si       4.91552560       4.14708046       3.58688341
16
Lattice="6.9162315332264095 -0.2731589839706477 -0.23626004870123907 0.895263597828069 6.863481444727824 -0.23626004870144146 0.8952635978278972 0.7553068520275141 6.825885137622535" Properties=species:S:1:pos:R:3 unique_starting_index=52 config_type=initial n_minim_iter=16 stress="3.0027152997143396e-05 -0.0005106509512405553 -0.0004416710622347767 -0.0005106509512405553 0.0002044798533291014 -0.0003726245325488302 -0.0004416710622347767 -0.0003726245325488302 0.000313011069063851" pbc="T T T"
Si       4.92069525       2.06706866       2.42729098
Si       3.48981839       4.39585579       1.69569326
Si       2.86608066       3.05079752       4.10560255
Si       1.23263050       2.67295850       2.25205046
Si       2.78397240       0.77494214       2.32051259
Si       2.84234111       2.33878322       0.43244240
Si       5.97829638       5.27054703       6.76606473
Si       8.35514213       4.63770944       4.24046891
Si       6.20189676       7.41678555       3.97820238
Si       6.86437677       5.55614251       2.76495131
Si       4.64208560       6.17086584       5.09968624
Si       6.63260885       3.57637808       5.37153268
Si       6.96706019       1.32605546       5.64127765
Si       6.86414295       5.89547792       0.49924538
Si       2.48020428       6.53990831       5.76199187
Si       4.91914338       4.15013267       3.58952332
16
Lattice="6.907410657652073 -0.2558181763808428 -0.22126167674167632 0.9108716122771388 6.851866741170607 -0.2212616767418729 0.9108716122769719 0.7684748623079791 6.812230248190062" Properties=species:S:1:pos:R:3 unique_starting_index=52 config_type=initial n_minim_iter=17 stress="-0.005209136407980599 -0.0024966866415754084 -0.002159428545809089 -0.0024966866415754084 -0.00435619816230189 -0.001821844628857021 -0.002159428545809089 -0.001821844628857021 -0.0038255647896246157" pbc="T T T"
Si       4.90977788       2.10970816       2.43635803
Si       3.50288156       4.38254892       1.73658102
Si       2.90627318       3.05718444       4.08654222
Si       1.24238168       2.70733368       2.23137357
Si       2.77032843       0.78716514       2.35750871
Si       2.87786737       2.31887325       0.43920628
Si       5.98677989       5.29776410       6.76127332
Si       8.35576312       4.64620976       4.26809237
Si       6.23015367       7.41258885       3.98263313
Si       6.89947633       5.57677090       2.78587244
Si       4.67133300       6.20147791       5.11708435
Si       6.65885263       3.60156629       5.39931796
Si       6.95416435       1.31519319       5.61674936
Si       6.83650287       5.88711661       0.49203128
Si       2.46732575       6.51406773       5.75475747
Si       4.97136635       4.19419161       3.62763068
16
Lattice="7.00887026826499 -0.18973800070834115 -0.164107761114825 0.9930916527354865 6.940751538237684 -0.16410776111498412 0.9930916527353492 0.8378414266168844 6.8919507410204215" Properties=species:S:1:pos:R:3 unique_starting_index=52 config_type=initial n_minim_iter=18 stress="-0.0007317288040922175 -0.005865480558569705 -0.0050731581377301185 -0.005865480558569705 0.001272084015017195 -0.004280070263263952 -0.0050731581377301185 -0.004280070263263952 0.002518704107157061" pbc="T T T"
Si       4.92993712       2.29226690       2.56801705
Si       3.66063354       4.37605389       1.89826066
Si       3.08961983       3.18590310       4.05681523
Si       1.36615763       2.87964565       2.16724053
Si       2.75308919       0.91567855       2.53726427
Si       3.06856005       2.26881133       0.54047352
Si       6.14401679       5.48715986       6.92765964
Si       8.57144100       4.76888324       4.43153310
Si       6.44332023       7.59497873       4.08047255
Si       7.17711186       5.75147902       2.83242525
Si       4.78830699       6.46315387       5.28326004
Si       6.87781340       3.68283293       5.63431475
Si       7.05218009       1.34701292       5.70546184
Si       6.94405953       5.96817981       0.51073446
Si       2.51519462       6.61500554       5.83227917
Si       5.24310058       4.42344557       3.82591650
16
Lattice="7.034546693725369 -0.15467763090288578 -0.13378342560398754 1.0319747405015445 6.960158079431173 -0.13378342560414025 1.031974740501414 0.8706459131267096 6.906784649139823" Properties=species:S:1:pos:R:3 unique_starting_index=52 config_type=initial n_minim_iter=19 stress="-0.0033840241333619923 -0.005593042848999402 -0.004837521932046756 -0.005593042848999402 -0.0014732836839235464 -0.004081271114979479 -0.004837521932046756 -0.004081271114979479 -0.00028456614882327005" pbc="T T T"
Si       4.94677561       2.36585813       2.60977253
Si       3.71465230       4.38390910       1.96506631
Si       3.16499559       3.22782901       4.05496105
Si       1.40803993       2.93486281       2.15698960
Si       2.75798580       0.95733105       2.59338232
Si       3.13004082       2.26327709       0.57360403
Si       6.21036389       5.55938658       6.98384485
Si       8.64767719       4.82316908       4.49490899
Si       6.52568697       7.65824972       4.12505859
Si       7.26935740       5.81541418       2.86840276
Si       4.84801472       6.54653656       5.34134308
Si       6.95636763       3.72998730       5.70845667
Si       7.09323664       1.37918321       5.72661684
Si       6.97617763       6.00434479       0.53952027
Si       2.55381852       6.64099133       5.86391830
Si       5.34852944       4.51239272       3.90284847
16
Lattice="7.09125832384022 -0.05940932333372843 -0.051384177156017 1.135431737288387 7.000019203765829 -0.05138417715617766 1.1354317372882505 0.9579294559322717 6.93435507774228" Properties=species:S:1:pos:R:3 unique_starting_index=52 config_type=initial n_minim_iter=20 stress="-0.0006000177452477939 0.0006757777180654638 0.0005844921307760507 0.0006757777180654638 -0.0008308823846932207 0.000493118353524142 0.0005844921307760507 0.000493118353524142 -0.0009745088229271068" pbc="T T T"
Si       5.02876857       2.46530995       2.68981644
Si       3.82066285       4.44898154       2.05194483
Si       3.27683312       3.31627158       4.10683411
Si       1.49983359       3.01143596       2.19614282
Si       2.82251041       1.03943253       2.66351377
Si       3.22097652       2.31320317       0.64474181
Si       6.41914373       5.74418870       7.13467396
Si       8.85620607       4.99935319       4.65604599
Si       6.74300404       7.83267809       4.27618206
Si       7.46019931       5.96604235       3.00508867
Si       5.03487302       6.70822456       5.47070103
Si       7.13697834       3.88870117       5.84981506
Si       7.23686022       1.53589817       5.80088238
Si       7.09506325       6.12974127       0.68389693
Si       2.73247872       6.73108120       5.96719962
Si       5.53025979       4.66571312       4.03545800
16
Lattice="7.083760325905003 -0.043229785639028746 -0.03739020811955155 1.15011780128234 6.989904020257042 -0.03739020811971977 1.1501178012821969 0.9703196444654112 6.9223288008901855" Properties=species:S:1:pos:R:3 unique_starting_index=52 config_type=initial n_minim_iter=21 stress="0.004332515096084948 0.0005594323902539264 0.00048386299379725434 0.0005594323902539264 0.004141397286755861 0.000408220590610323 0.00048386299379725434 0.000408220590610323 0.00402249830637101" pbc="T T T"
Si       5.05394635       2.44574598       2.69098980
Si       3.82326758       4.47407907       2.03241598
Si       3.26178778       3.32148399       4.13448397
Si       1.49278144       2.99591119       2.21729303
Si       2.83974829       1.02933376       2.64510308
Si       3.20448599       2.33350753       0.63740163
Si       6.45386116       5.76115893       7.13775922
Si       8.86747177       5.03264913       4.67239446
Si       6.76557754       7.84025109       4.30677445
Si       7.45746399       5.97564506       3.03385238
Si       5.06383365       6.70050275       5.47605835
Si       7.14598340       3.91654307       5.84140180
Si       7.25976752       1.59000923       5.81114549
Si       7.11661791       6.14929851       0.73596413
Si       2.78967426       6.74317825       5.97904928
Si       5.51444533       4.65237094       4.02391811
