16
Lattice="5.463621837951468 0.2698871986976794 0.47165151437408387 2.340261080140986 5.1770999113623235 0.5993775229262532 3.7349124829549356 1.7487823705036296 13.185232828628397" Properties=species:S:1:pos:R:3 unique_starting_index=3 config_type=initial n_minim_iter=1 energy=-2610.181076261545 free_energy=-2610.181076261545 pbc="T T T"
Si       6.76627830       6.75520153       7.05479229
Si       6.77891710       3.69336326      13.32106689
Si       1.69044949       1.99000011       3.46866972
Si       5.44841055       2.18743823       2.67353114
Si       6.47341642       1.61829717       5.87785595
Si       7.63258783       2.11127213       7.59462033
Si       3.54855443       3.00250914       3.29168821
Si       7.38378234       3.38036197       2.14854093
Si       3.79048026       1.69626769       8.47586708
Si       5.79485774       1.14404625       8.05608955
Si       8.33835376       3.79751664       9.49373804
Si       2.88705516       2.33119503       5.19697960
Si       5.29268359       7.14261829      11.05459899
Si       4.96661317       2.49045764      10.04634472
Si       6.64230137       3.38834841      11.09171876
Si       4.88999226       0.67573345       1.02825684
16
Lattice="5.46266733700698 0.2697067744973187 0.4716799392257646 2.3396815811985627 5.175726260253313 0.6001960841077482 3.734413958912194 1.7505172710476082 13.182582158740011" Properties=species:S:1:pos:R:3 unique_starting_index=3 config_type=initial n_minim_iter=2 stress="-0.003910286011245353 0.0003483673468663652 -0.0007119095945323335 0.0003483673468663652 -0.0011670124596650769 -0.00023894967004079273 -0.0007119095945323335 -0.00023894967004079273 -0.0030233949764204284" pbc="T T T"
Si       6.76499765       6.75435482       7.05442650
Si       6.77782975       3.69447847      13.31878720
Si       1.69010838       1.99007768       3.46822278
Si       5.44747133       2.18716108       2.67342113
Si       6.47243348       1.61872815       5.87685557
Si       7.63127465       2.11182727       7.59328347
Si       3.54794358       3.00221862       3.29140851
Si       7.38236358       3.37950143       2.14888720
Si       3.78983811       1.69719760       8.47441035
Si       5.79388488       1.14499222       8.05456832
Si       8.33696148       3.79782517       9.49235123
Si       2.88643774       2.33137143       5.19628590
Si       5.29170306       7.14250282      11.05340568
Si       4.96581862       2.49135229      10.04463301
Si       6.64129172       3.38909467      11.08985604
Si       4.88909837       0.67553294       1.02821717
16
Lattice="5.464136655036691 0.2692258732952552 0.4724582349173912 2.339844517864529 5.174330441271622 0.6021082936384688 3.7368323671542147 1.7537373174973674 13.184334459293934" Properties=species:S:1:pos:R:3 unique_starting_index=3 config_type=initial n_minim_iter=3 stress="0.0014513286034976587 0.0003848582347511147 0.0017788788747414791 0.0003848582347511147 -0.0019567697041057877 0.0017600117218359627 0.0017788788747414791 0.0017600117218359627 -0.0010716241794635904" pbc="T T T"
Si       6.76702183       6.75397094       7.05757864
Si       6.78088775       3.69689586      13.32153882
Si       1.69066972       1.99056098       3.46921392
Si       5.44910691       2.18694027       2.67496658
Si       6.47496541       1.61957759       5.87834756
Si       7.63392406       2.11298768       7.59503424
Si       3.54916572       3.00227399       3.29263066
Si       7.38410837       3.37838884       2.15120064
Si       3.79154733       1.69894102       8.47620933
Si       5.79613226       1.14663630       8.05617847
Si       8.34000498       3.79890512       9.49497701
Si       2.88728065       2.33205601       5.19774723
Si       5.29376628       7.14350092      11.05693669
Si       4.96815078       2.49320830      10.04680316
Si       6.64425167       3.39077716      11.09227485
Si       4.89035143       0.67509809       1.02907338
16
Lattice="5.4631352294518525 0.2676370129051131 0.47091120276782783 2.337785024056719 5.173413228612061 0.60211528332302 3.7317240346078377 1.7540452905854023 13.186264045422151" Properties=species:S:1:pos:R:3 unique_starting_index=3 config_type=initial n_minim_iter=4 stress="-0.00046179194959930427 -0.0012362067790348894 -0.001429346543423252 -0.0012362067790348894 -0.000711761682679341 0.0008754740568343628 -0.001429346543423252 0.0008754740568343628 0.0004138148960998081" pbc="T T T"
Si       6.76205734       6.75210298       7.05743854
Si       6.77477320       3.69612548      13.32284769
Si       1.68847255       1.99051861       3.46978643
Si       5.44713901       2.18571600       2.67428804
Si       6.47239853       1.61853200       5.87753371
Si       7.62986426       2.11187023       7.59400571
Si       3.54726488       3.00191881       3.29170829
Si       7.38110221       3.37598938       2.15023023
Si       3.78754667       1.69856579       8.47782744
Si       5.79198640       1.14593825       8.05653782
Si       8.33491465       3.79758958       9.49445454
Si       2.88378380       2.33162681       5.19851541
Si       5.28760030       7.14255736      11.05890155
Si       4.96364066       2.49244850      10.04820774
Si       6.63942733       3.38939667      11.09284095
Si       4.88888820       0.67351158       1.02784821
16
Lattice="5.462651290689678 0.2685021719638148 0.47197205589555485 2.338504802075546 5.173871165568648 0.6019586785702549 3.734392068257357 1.7532806847457016 13.184827247084225" Properties=species:S:1:pos:R:3 unique_starting_index=3 config_type=initial n_minim_iter=5 stress="-0.0018016153403004238 0.0012593910899169475 0.0006409771158961401 0.0012593910899169475 -0.001194638439910273 -0.0001569718377947321 0.0006409771158961401 -0.0001569718377947321 0.0012761696209997008" pbc="T T T"
Si       6.76400483       6.75241560       7.05707833
Si       6.77747668       3.69584060      13.32188694
Si       1.68919589       1.99054092       3.46970470
Si       5.44757388       2.18656938       2.67486361
Si       6.47345596       1.61917452       5.87756907
Si       7.63111213       2.11274801       7.59390457
Si       3.54847756       3.00263028       3.29088670
Si       7.38104628       3.37696783       2.15127881
Si       3.78886096       1.69820927       8.47722775
Si       5.79269545       1.14623971       8.05663630
Si       8.33678780       3.79821224       9.49390937
Si       2.88442506       2.33165722       5.19824769
Si       5.29059596       7.14219007      11.05787271
Si       4.96574292       2.49201322      10.04790402
Si       6.64209113       3.38895395      11.09200228
Si       4.88842716       0.67404108       1.02864036
16
Lattice="5.4635594205679565 0.26781995484456744 0.4717745496683009 2.338219514128366 5.174276342659234 0.6017982367603271 3.734753919375873 1.753220359443084 13.179810479793003" Properties=species:S:1:pos:R:3 unique_starting_index=3 config_type=initial n_minim_iter=6 stress="1.6023317223684653e-05 0.0003171717144848002 3.93310887684648e-05 0.0003171717144848002 0.00014777147015466516 0.0001244580651325465 3.93310887684648e-05 0.0001244580651325465 -0.0015424706226863285" pbc="T T T"
Si       6.76424730       6.75243114       7.05455337
Si       6.77812501       3.69560563      13.31687441
Si       1.68921653       1.99068403       3.46865038
Si       5.44827008       2.18628965       2.67386298
Si       6.47437940       1.61866000       5.87519560
Si       7.63224450       2.11235438       7.59091349
Si       3.54885439       3.00283026       3.28923736
Si       7.38173580       3.37646786       2.15050196
Si       3.78905871       1.69795736       8.47394899
Si       5.79328775       1.14588498       8.05368531
Si       8.33777369       3.79785961       9.49013897
Si       2.88441544       2.33175035       5.19638401
Si       5.29063657       7.14248235      11.05387614
Si       4.96628972       2.49165585      10.04431089
Si       6.64295935       3.38849548      11.08770563
Si       4.88903003       0.67337511       1.02823224
16
Lattice="5.463374103552603 0.2640828846328313 0.4720387853302561 2.334696181435585 5.17132646461241 0.6026967658827658 3.7340498598800633 1.752195508879009 13.180615846170209" Properties=species:S:1:pos:R:3 unique_starting_index=3 config_type=initial n_minim_iter=7 stress="-0.0014218031319889227 -0.001224751150950586 0.0010911432864834515 -0.001224751150950586 0.0003340486688346267 0.00028227838456203625 0.0010911432864834515 0.00028227838456203625 0.0005973850280656599" pbc="T T T"
Si       6.75974654       6.74662519       7.05608265
Si       6.77616257       3.69180673      13.31829641
Si       1.68854541       1.98968833       3.47038476
Si       5.44697958       2.18285191       2.67439259
Si       6.47264379       1.61442959       5.87549841
Si       7.63133379       2.10861497       7.59178819
Si       3.54722510       3.00081946       3.28806314
Si       7.37893716       3.37115264       2.15079503
Si       3.78727312       1.69599464       8.47462236
Si       5.79221864       1.14377450       8.05486818
Si       8.33609349       3.79226777       9.49086781
Si       2.88314784       2.33052980       5.19761335
Si       5.28677689       7.13820161      11.05576525
Si       4.96517112       2.48804771      10.04602267
Si       6.64193042       3.38381365      11.08839737
Si       4.88783594       0.66938744       1.02852828
16
Lattice="5.465551626040233 0.26325197714634324 0.4702163847197953 2.3348100259568776 5.168948128201482 0.6021070364701376 3.7312237488142994 1.7516843657088805 13.176862558814864" Properties=species:S:1:pos:R:3 unique_starting_index=3 config_type=initial n_minim_iter=8 stress="0.0015290487672512292 0.0009879061868539641 -0.0013007857479918413 0.0009879061868539641 -0.001577028024163147 -0.0006613804036213345 -0.0013007857479918413 -0.0006613804036213345 5.2209179198209204e-05" pbc="T T T"
Si       6.75916749       6.74306246       7.05286359
Si       6.77440837       3.68994703      13.31383705
Si       1.68826112       1.98903660       3.47006110
Si       5.44839144       2.18182126       2.67222029
Si       6.47248486       1.61287621       5.87222995
Si       7.63193796       2.10797778       7.58779677
Si       3.54762364       3.00000098       3.28476667
Si       7.38047980       3.36919349       2.14766320
Si       3.78557930       1.69509850       8.47208114
Si       5.79135238       1.14387609       8.05199776
Si       8.33672503       3.78975230       9.48614305
Si       2.88291060       2.33011543       5.19637968
Si       5.28480602       7.13490880      11.05249207
Si       4.96403980       2.48583051      10.04306305
Si       6.64176049       3.38124555      11.08385690
Si       4.88881094       0.66792436       1.02677880
16
Lattice="5.46636178126847 0.25987160506933565 0.470039944830757 2.3318609248778133 5.167568159399211 0.6037499987299364 3.730483921818018 1.7540535838584959 13.17302632825672" Properties=species:S:1:pos:R:3 unique_starting_index=3 config_type=initial n_minim_iter=9 stress="0.0005925055039705146 0.00035269675926324006 -1.9529864403334661e-07 0.00035269675926324006 0.0006666513163790388 -7.15723289255506e-05 -1.9529864403334661e-07 -7.15723289255506e-05 0.0004456557307819137" pbc="T T T"
Si       6.75518532       6.74057035       7.05299428
Si       6.77306618       3.69006185      13.31098007
Si       1.68779326       1.98975107       3.47051449
Si       5.44846956       2.18014999       2.67212577
Si       6.47061981       1.61008332       5.87087356
Si       7.63115666       2.10739339       7.58534481
Si       3.54678134       3.00015021       3.28157936
Si       7.37855612       3.36563334       2.14707411
Si       3.78513968       1.69484153       8.47028750
Si       5.79011377       1.14512434       8.05070477
Si       8.33651379       3.78752431       9.48355850
Si       2.88303154       2.33157509       5.19649896
Si       5.28116495       7.13476451      11.05195593
Si       4.96375203       2.48404536      10.04146032
Si       6.64256173       3.37913060      11.08054176
Si       4.88776725       0.66395606       1.02654111
16
Lattice="5.467563618825807 0.25498652485662543 0.4690101591265156 2.327822422976983 5.163597099895597 0.6038378182775425 3.7275953982476535 1.7516211447028234 13.170495087185168" Properties=species:S:1:pos:R:3 unique_starting_index=3 config_type=initial n_minim_iter=10 stress="0.0010556412818918976 -1.5250523660381884e-05 -0.00014275551267268005 -1.5250523660381884e-05 0.0002630482878227833 -0.0005163954056755193 -0.00014275551267268005 -0.0005163954056755193 0.0009415570297082936" pbc="T T T"
Si       6.74908060       6.73199257       7.05208763
Si       6.76931247       3.68394695      13.30851471
Si       1.68603289       1.98885847       3.46935039
Si       5.44854651       2.17580708       2.67148398
Si       6.46855367       1.60378291       5.86995090
Si       7.62927816       2.10223580       7.58301110
Si       3.54495532       2.99736846       3.27819351
Si       7.37614148       3.35840665       2.14484902
Si       3.78200404       1.69137179       8.46830207
Si       5.78832041       1.14294648       8.04973518
Si       8.33523037       3.77902024       9.47999845
Si       2.88193908       2.33089826       5.19534205
Si       5.27441488       7.12732509      11.05116669
Si       4.96264242       2.47759525      10.04049233
Si       6.64139702       3.37153653      11.07738439
Si       4.88666080       0.65826016       1.02557366
16
Lattice="5.468118157352938 0.24851798656152532 0.46961744203756167 2.321677691624618 5.162582730770647 0.6081200928179931 3.7271781307619487 1.7581137430448353 13.168997744972026" Properties=species:S:1:pos:R:3 unique_starting_index=3 config_type=initial n_minim_iter=11 stress="0.0013197356504579254 -0.0007114793667297186 0.0003912329752823386 -0.0007114793667297186 -5.019206770856046e-05 -0.0012783408639566642 0.0003912329752823386 -0.0012783408639566642 0.0008343552340520052" pbc="T T T"
Si       6.73992684       6.72945893       7.05675817
Si       6.76664807       3.68694414      13.30958542
Si       1.68375102       1.99094469       3.47030189
Si       5.44728329       2.17344682       2.67369785
Si       6.46798218       1.60068632       5.87195104
Si       7.62816387       2.10274137       7.58464256
Si       3.54366006       2.99810577       3.27729958
Si       7.37163748       3.35298254       2.14426919
Si       3.78000528       1.69296608       8.46913068
Si       5.78545223       1.14699086       8.05229556
Si       8.33557842       3.77485874       9.48087229
Si       2.88123211       2.33655836       5.19336853
Si       5.26807910       7.12946420      11.05573613
Si       4.96282997       2.47448424      10.04109718
Si       6.64284798       3.37065582      11.07752493
Si       4.88325134       0.65091977       1.02643661
16
Lattice="5.467458849767428 0.2483882065148241 0.4692871703999808 2.320905727100482 5.164649596436817 0.6107642232044728 3.7254892088535563 1.7657205902202333 13.16927447114631" Properties=species:S:1:pos:R:3 unique_starting_index=3 config_type=initial n_minim_iter=12 stress="0.0005041525475922666 0.000488413418867402 -0.0007048856704650343 0.000488413418867402 0.0013630968322445977 0.0009251101378010268 -0.0007048856704650343 0.0009251101378010268 0.0016216956802878268" pbc="T T T"
Si       6.73722163       6.73506560       7.05942332
Si       6.76431902       3.69504265      13.31084798
Si       1.68310074       1.99371583       3.47110588
Si       5.44605702       2.17565465       2.67436622
Si       6.46665897       1.60409055       5.87264643
Si       7.62654640       2.10798512       7.58527686
Si       3.54321020       3.00115645       3.27787162
Si       7.37003981       3.35502384       2.14457037
Si       3.77805499       1.69748838       8.46964735
Si       5.78349132       1.15240055       8.05298413
Si       8.33424615       3.78036734       9.48187736
Si       2.88077040       2.34097390       5.19381006
Si       5.26595381       7.13711965      11.05926470
Si       4.96191547       2.47907949      10.04198577
Si       6.64181971       3.37683464      11.07843492
Si       4.88166696       0.65079267       1.02642198
16
Lattice="5.467047708688165 0.24478591009405146 0.47154523296856854 2.3172799994822664 5.165753191073276 0.6134220425738953 3.7299870044834007 1.7690834429289894 13.161760506005729" Properties=species:S:1:pos:R:3 unique_starting_index=3 config_type=initial n_minim_iter=13 stress="0.00044989517084467593 6.728213294290371e-05 0.0002219360494287251 6.728213294290371e-05 0.0008055896374525854 0.0002997321616444213 0.0002219360494287251 0.0002997321616444213 0.0001438891578494679" pbc="T T T"
Si       6.73306217       6.73610355       7.05867028
Si       6.76675478       3.69724147      13.30579852
Si       1.68360451       1.99565603       3.46990769
Si       5.44381353       2.17472182       2.67520227
Si       6.46785829       1.60343200       5.87364928
Si       7.62750674       2.10920624       7.58417685
Si       3.54357523       3.00243062       3.27644878
Si       7.36749952       3.35275782       2.14530818
Si       3.77870723       1.69815976       8.46698609
Si       5.78541566       1.15440647       8.05192356
Si       8.33735363       3.77896015       9.47958098
Si       2.88253416       2.34402586       5.19147909
Si       5.26543005       7.13886213      11.05741676
Si       4.96635541       2.47652177      10.03770919
Si       6.64615496       3.37658548      11.07440323
Si       4.87882637       0.64685225       1.02840702
16
Lattice="5.4655985546928765 0.2349761295581212 0.47393652578338863 2.307575607995262 5.1610242283221 0.6167149108070276 3.732043763516437 1.7684587766042148 13.157293974804952" Properties=species:S:1:pos:R:3 unique_starting_index=3 config_type=initial n_minim_iter=14 stress="0.00015839571058875578 -9.069706980838996e-06 0.0007099422241159793 -9.069706980838996e-06 2.4663716362475582e-05 0.0001501546876974084 0.0007099422241159793 0.0001501546876974084 -0.0006315407913269887" pbc="T T T"
Si       6.72148339       6.72637916       7.06083566
Si       6.76284179       3.69137921      13.30417029
Si       1.68023177       1.99576781       3.46679655
Si       5.43664106       2.16651730       2.67596754
Si       6.46428694       1.59778484       5.87862958
Si       7.62739102       2.10726764       7.58532036
Si       3.54184280       3.00030301       3.27285582
Si       7.36120685       3.34033824       2.14373433
Si       3.77688080       1.69180079       8.46636264
Si       5.78394913       1.15086303       8.05456750
Si       8.33802908       3.76451862       9.48223843
Si       2.88004484       2.34380475       5.19132815
Si       5.25604584       7.12964793      11.05907208
Si       4.97083419       2.46174688      10.03539404
Si       6.64621356       3.36648414      11.07349063
Si       4.87129380       0.63671198       1.03146275
16
Lattice="5.464445796916427 0.2299142413443987 0.4735412214783644 2.3024752245936058 5.154567189457406 0.6177085396946052 3.728536389896035 1.766381867798811 13.160164154558728" Properties=species:S:1:pos:R:3 unique_starting_index=3 config_type=initial n_minim_iter=15 stress="-0.0001042667848310679 -0.00043247100469302367 0.00022430814666525006 -0.00043247100469302367 -0.0010594098758557895 -0.00024488211942334017 0.00022430814666525006 -0.00024488211942334017 -0.0004377428943490933" pbc="T T T"
Si       6.71098788       6.71687143       7.06427409
Si       6.75582398       3.68540407      13.30728080
Si       1.67668742       1.99399187       3.46721793
Si       5.43287374       2.16003955       2.67571557
Si       6.46142420       1.59447943       5.88026127
Si       7.62310144       2.10537664       7.58689196
Si       3.53862263       2.99710315       3.27145540
Si       7.35782441       3.33150777       2.14068920
Si       3.77365557       1.68614866       8.46806723
Si       5.78202447       1.14781446       8.05700322
Si       8.33544183       3.75434069       9.48549662
Si       2.87676345       2.34096953       5.19215129
Si       5.24738738       7.11937575      11.06407045
Si       4.96952847       2.45132478      10.03834153
Si       6.64270953       3.35774024      11.07630324
Si       4.86649653       0.63154834       1.03208779
16
Lattice="5.462420231169192 0.22842710935949076 0.4731361038800681 2.2998310943798113 5.150975428552169 0.6235045476602855 3.725030709946918 1.7795870598428356 13.160338534131688" Properties=species:S:1:pos:R:3 unique_starting_index=3 config_type=initial n_minim_iter=16 stress="-0.0007205118772978847 -0.00021818967248857368 0.0005992748271070884 -0.00021818967248857368 -0.0016592659057286093 -0.00011734932675946288 0.0005992748271070884 -0.00011734932675946288 -0.0010974330319972207" pbc="T T T"
Si       6.70131147       6.72110464       7.07222065
Si       6.74750931       3.69774208      13.30914139
Si       1.67265554       1.99918358       3.46721701
Si       5.42997061       2.15834063       2.67539395
Si       6.45511421       1.60395677       5.88016575
Si       7.61838628       2.12324700       7.58914971
Si       3.53441255       3.00186400       3.27047444
Si       7.35695196       3.32816798       2.13823538
Si       3.76993246       1.68880902       8.47083497
Si       5.78119341       1.15685314       8.05724667
Si       8.33795363       3.75836183       9.48887247
Si       2.87490540       2.34607807       5.18994142
Si       5.24446475       7.12038675      11.07591396
Si       4.96884364       2.44570214      10.04209441
Si       6.64072223       3.36199378      11.07975483
Si       4.85697377       0.63053465       1.03404953
16
Lattice="5.461451587296443 0.22857237934328387 0.4698965575347786 2.2990713749136016 5.14993006974247 0.6255747948615541 3.7165927119402893 1.7883471938913869 13.15537693617998" Properties=species:S:1:pos:R:3 unique_starting_index=3 config_type=initial n_minim_iter=17 stress="-0.0007100263656932245 -0.00025209532386077124 0.00012282090449477746 -0.00025209532386077124 -0.0012181078601866853 -0.00043673538274119095 0.00012282090449477746 -0.00043673538274119095 -0.0008028680865641254" pbc="T T T"
Si       6.69555556       6.72530746       7.07143944
Si       6.73643816       3.70691275      13.30337223
Si       1.66987771       2.00297129       3.46697586
Si       5.42672115       2.15848285       2.67079424
Si       6.44885288       1.61178540       5.87740598
Si       7.61134932       2.13579975       7.58351620
Si       3.53085593       3.00591192       3.26710523
Si       7.35666254       3.32808332       2.13169249
Si       3.76348283       1.69006500       8.46864982
Si       5.77657952       1.16420023       8.05186078
Si       8.33629066       3.76231202       9.48512521
Si       2.87116882       2.35073539       5.18408379
Si       5.23824672       7.12320480      11.07736929
Si       4.96534666       2.44290634      10.04058722
Si       6.63507645       3.36546198      11.07559795
Si       4.85068656       0.63098548       1.03255261
16
Lattice="5.460461918813536 0.22766771213812786 0.46850719959809833 2.2975861952962173 5.147809442478822 0.6273863121736853 3.7120417643094425 1.7932435732347078 13.15526199463685" Properties=species:S:1:pos:R:3 unique_starting_index=3 config_type=initial n_minim_iter=18 stress="-0.000491664264132179 -4.338633592876077e-05 3.690566792530063e-05 -4.338633592876077e-05 -0.000504522347418724 -0.00039977294369799676 3.690566792530063e-05 -0.00039977294369799676 3.801681930578917e-05" pbc="T T T"
Si       6.69029359       6.72566836       7.07355157
Si       6.72903212       3.71139394      13.30272653
Si       1.66695384       2.00490296       3.46652906
Si       5.42282611       2.15740951       2.66799533
Si       6.44568580       1.61670992       5.87879878
Si       7.60707062       2.14312568       7.58301591
Si       3.52921207       3.00809359       3.26460567
Si       7.35539682       3.32584871       2.12820843
Si       3.75960879       1.68938705       8.46901541
Si       5.77294771       1.16950006       8.05039584
Si       8.33627964       3.76217594       9.48626190
Si       2.86985886       2.35372941       5.18315578
Si       5.23561729       7.12160500      11.08150907
Si       4.96371854       2.43716024      10.04255819
Si       6.63103306       3.36571470      11.07591374
Si       4.84511040       0.63029337       1.03259863
16
Lattice="5.46051995496701 0.2229960957834217 0.46819507926553616 2.2931376449964684 5.142325730849883 0.6306694509135821 3.7096443046113494 1.79766737890415 13.15491560545711" Properties=species:S:1:pos:R:3 unique_starting_index=3 config_type=initial n_minim_iter=19 stress="0.0010373808675106695 4.857288581162656e-05 0.00031971581053579916 4.857288581162656e-05 0.0004990218654043814 8.539940864837518e-05 0.00031971581053579916 8.539940864837518e-05 0.0013498043946275037" pbc="T T T"
Si       6.68348444       6.72033701       7.07821819
Si       6.72172407       3.71320509      13.30213290
Si       1.66309839       2.00683928       3.46560498
Si       5.41771969       2.15237323       2.66483339
Si       6.44356142       1.62025447       5.88152394
Si       7.60599480       2.14947726       7.58602219
Si       3.52647897       3.00825974       3.26120125
Si       7.35374632       3.31731664       2.12502294
Si       3.75634124       1.68546124       8.47077248
Si       5.77150828       1.17413615       8.04905836
Si       8.33956276       3.75678075       9.49040780
Si       2.86886203       2.35698214       5.18223089
Si       5.22968760       7.11484444      11.08882714
Si       4.96549491       2.42306275      10.04456056
Si       6.63056878       3.35951737      11.07693012
Si       4.83752472       0.62620214       1.03427525
16
Lattice="5.460150712706389 0.21948503962895918 0.4696960017489627 2.2897760423921443 5.140914651789813 0.6319537995443903 3.7124821287071765 1.7975391121263566 13.148132359194586" Properties=species:S:1:pos:R:3 unique_starting_index=3 config_type=initial n_minim_iter=20 stress="0.0014635309864177361 0.0001361708099498822 0.0005459532012886081 0.0001361708099498822 0.0008406300288663106 0.00033829916546086356 0.0005459532012886081 0.00033829916546086356 0.0012379868528689204" pbc="T T T"
Si       6.68062168       6.71781767       7.07656342
Si       6.72110325       3.71199074      13.29515613
Si       1.66044048       2.00731011       3.46413351
Si       5.41685847       2.14957254       2.66426282
Si       6.44362729       1.62089930       5.88113918
Si       7.60782318       2.15074213       7.58479430
Si       3.52435285       3.00724733       3.25851869
Si       7.35134166       3.31295398       2.12347643
Si       3.75691660       1.68212523       8.46849634
Si       5.77232119       1.17424636       8.04537550
Si       8.34329047       3.75150021       9.49003752
Si       2.87023592       2.35822222       5.18023526
Si       5.22859614       7.11050217      11.08664124
Si       4.97074287       2.41387223      10.04185452
Si       6.63216463       3.35418846      11.07239951
Si       4.83337698       0.62329740       1.03611315
16
Lattice="5.46039846326613 0.21979505857755033 0.47057872914022 2.290294549756077 5.142744689271656 0.6306542281309298 3.7150941340826273 1.7940987633845333 13.147631873114433" Properties=species:S:1:pos:R:3 unique_starting_index=3 config_type=initial n_minim_iter=21 stress="-0.00019958666256825766 5.176234226113767e-05 -3.669054894370381e-06 5.176234226113767e-05 0.0001480171372374321 0.000185131548648216 -3.669054894370381e-06 0.000185131548648216 -5.189696398685498e-05" pbc="T T T"
Si       6.68197638       6.71892516       7.07512002
Si       6.72235554       3.71015214      13.29188165
Si       1.66105208       2.00873467       3.46408724
Si       5.41822061       2.15100433       2.66427065
Si       6.44566004       1.62228292       5.88255183
Si       7.61169547       2.15046462       7.58465580
Si       3.52381389       3.00588454       3.25648352
Si       7.34981923       3.31383894       2.12371934
Si       3.75881041       1.67979249       8.46862200
Si       5.77421066       1.17320407       8.04399718
Si       8.34689508       3.74963996       9.49253840
Si       2.87205562       2.35909709       5.18002112
Si       5.23203879       7.10902942      11.08541876
Si       4.97347289       2.40727861      10.04309595
Si       6.63484129       3.34997976      11.07127892
Si       4.83237502       0.62420923       1.03691554
