8
Lattice="5.364241465940041 3.954377690931517e-16 5.4511821343744245e-17 1.5518201446437762e-16 5.273505861749553 0.3380185430016206 -9.26725882817548e-17 0.767828454073818 8.817183589342926" Properties=species:S:1:pos:R:3 unique_starting_index=34 config_type=initial n_minim_iter=1 energy=-1299.3367688990263 free_energy=-1299.3367688990263 pbc="T T T"
Si       0.88466743       2.61612699       5.55585774
Si       0.88466743       3.42520733       3.59934439
Si       0.82475558       5.23286252       8.47216184
Si       0.82475558       0.80847179       0.68304030
Si       4.47957404       1.17236862       7.83892691
Si       4.47957404       4.86896569       1.31627522
Si       4.53948589       3.82913895       5.26064136
Si       4.53948589       2.21219537       3.89456077
8
Lattice="5.3855815717692455 3.943584081146909e-16 5.669132963544612e-17 1.5476080289811214e-16 5.2730558979228235 0.35257890080598847 -9.126407391267e-17 0.7937465078019229 8.791613526454128" Properties=species:S:1:pos:R:3 unique_starting_index=34 config_type=initial n_minim_iter=2 stress="0.04045886678080325 3.932915673693244e-15 -9.081809597994865e-16 3.932915673693244e-15 0.016394123970103473 -0.008917715377396794 -9.081809597994865e-16 -0.008917715377396794 -0.0016531277110819582" pbc="T T T"
Si       0.88590774       2.62635016       5.54946733
Si       0.88590774       3.44045224       3.59472510
Si       0.82037663       5.25225550       8.46937498
Si       0.82037663       0.81454690       0.67481745
Si       4.49967383       1.20079755       7.81424241
Si       4.49967383       4.86600486       1.32995002
Si       4.56520494       3.84794810       5.24691366
Si       4.56520494       2.21885430       3.89727877
8
Lattice="5.408168905668396 3.89931271701336e-16 6.442513376961786e-17 1.5234782353618228e-16 5.254462434956383 0.4087967721918615 -8.588917032355473e-17 0.8899202929375818 8.71538600252957" Properties=species:S:1:pos:R:3 unique_starting_index=34 config_type=initial n_minim_iter=3 stress="-0.014045719577310708 1.6538266936609753e-16 7.862454773142342e-17 1.6538266936609753e-16 -0.022967178514089387 0.008292993774318152 7.862454773142342e-17 0.008292993774318152 -0.03579951236445096" pbc="T T T"
Si       0.88098881       2.66109449       5.53589284
Si       0.88098881       3.48328824       3.58828993
Si       0.79755774       5.31271717       8.47338785
Si       0.79755774       0.83166556       0.65079492
Si       4.52718010       1.30101717       7.74158455
Si       4.52718010       4.84336556       1.38259823
Si       4.61061116       3.90385692       5.21288631
Si       4.61061116       2.24052580       3.91129647
8
Lattice="5.408505151017322 3.8862515152055814e-16 6.598776893762153e-17 1.5099105049301935e-16 5.256343687145518 0.4130827038933348 -8.410796300038525e-17 0.8968558531253096 8.723254234536254" Properties=species:S:1:pos:R:3 unique_starting_index=34 config_type=initial n_minim_iter=4 stress="-0.013375522984243758 -1.6247870094815035e-16 1.3810689580592782e-16 -1.6247870094815035e-16 -0.01864847167786793 0.002162226676892103 1.3810689580592782e-16 0.002162226676892103 -0.018197217851702984" pbc="T T T"
Si       0.88033877       2.66466590       5.54357735
Si       0.88033877       3.48853364       3.59275959
Si       0.79538698       5.31959663       8.48652651
Si       0.79538698       0.83360291       0.64981043
Si       4.52816638       1.30878973       7.74784536
Si       4.52816638       4.84440981       1.38849158
Si       4.61311817       3.91020268       5.21797890
Si       4.61311817       2.24299686       3.91835804
8
Lattice="5.40823414162336 3.86310798750158e-16 6.768277352538787e-17 1.4844094104035216e-16 5.260296361290891 0.41682754318228504 -8.224947427806606e-17 0.9035523449290004 8.725443234036906" Properties=species:S:1:pos:R:3 unique_starting_index=34 config_type=initial n_minim_iter=5 stress="-0.012904541203906533 -1.3799292575416746e-16 1.85794396767049e-16 -1.3799292575416746e-16 -0.01390041646515253 0.006444466129678721 1.85794396767049e-16 0.006444466129678721 -0.017162903867713103" pbc="T T T"
Si       0.88023304       2.67014366       5.54649490
Si       0.88023304       3.49370505       3.59577588
Si       0.79485562       5.32872407       8.49216212
Si       0.79485562       0.83512464       0.65010865
Si       4.52800111       1.31533304       7.75008373
Si       4.52800111       4.84851567       1.39218705
Si       4.61337852       3.91704899       5.22124404
Si       4.61337852       2.24679972       3.92102674
8
Lattice="5.381312984297387 3.89076691005818e-16 6.560709319574102e-17 1.4900679504708986e-16 5.280662381126499 0.397007377867085 -8.275079153486745e-17 0.8721265224217654 8.744980127824782" Properties=species:S:1:pos:R:3 unique_starting_index=34 config_type=initial n_minim_iter=6 stress="-0.016334874343522616 -1.2558779969036718e-16 -1.3684118675939648e-16 -1.2558779969036718e-16 0.015813544659702077 0.0062850560605678075 -1.3684118675939648e-16 0.0062850560605678075 0.02417697855872414" pbc="T T T"
Si       0.88055239       2.66141153       5.54667067
Si       0.88055239       3.49137737       3.59531683
Si       0.79135176       5.31331582       8.49493317
Si       0.79135176       0.83947309       0.64705434
Si       4.50076060       1.28710944       7.76930321
Si       4.50076060       4.86567946       1.37268430
Si       4.58996122       3.91586754       5.21804809
Si       4.58996122       2.23692136       3.92393942
8
Lattice="5.38243595816957 3.873553147637642e-16 6.320793651562114e-17 1.4872750453925613e-16 5.2619260274233834 0.38141899658488143 -8.537964288974997e-17 0.8380818011050678 8.826937502276825" Properties=species:S:1:pos:R:3 unique_starting_index=34 config_type=initial n_minim_iter=7 stress="0.025221909690423434 -6.520792614313612e-15 1.6983641309923433e-15 -6.520792614313612e-15 0.01620994345167729 -0.01634057255713111 1.6983641309923433e-15 -0.01634057255713111 0.019706944373411465" pbc="T T T"
Si       0.88966934       2.64016262       5.58180611
Si       0.88966934       3.45984521       3.62655039
Si       0.79226256       5.26329707       8.56132736
Si       0.79226256       0.83671076       0.64702914
Si       4.49276662       1.24792310       7.84930965
Si       4.49276662       4.85208473       1.35904685
Si       4.59017340       3.88671467       5.25120739
Si       4.59017340       2.21329316       3.95714911
8
Lattice="5.400430424804248 3.8272683070998387e-16 6.543111477016361e-17 1.470852159198409e-16 5.227817988784011 0.4010189220442141 -8.47799208137017e-17 0.8650740241137949 8.839609506114884" Properties=species:S:1:pos:R:3 unique_starting_index=34 config_type=initial n_minim_iter=8 stress="0.009203114791482002 -9.688713976359717e-15 2.516362807396704e-15 -9.688713976359717e-15 0.001717872019619905 0.0017211157549627825 2.516362807396704e-15 0.0017211157549627825 0.004001743260693993" pbc="T T T"
Si       0.89404938       2.64235996       5.59927483
Si       0.89404938       3.45053205       3.64135360
Si       0.78892093       5.25495878       8.59369383
Si       0.78892093       0.83793323       0.64693460
Si       4.50638104       1.26916007       7.86064889
Si       4.50638104       4.82373195       1.37997954
Si       4.61150949       3.88437924       5.26724881
Si       4.61150949       2.20851278       3.97337962
8
Lattice="5.391403389596292 3.838863130296809e-16 6.546642864536494e-17 1.4705135282299476e-16 5.241429587445771 0.39512786133227396 -8.364430881328584e-17 0.859177156320537 8.80885964218966" Properties=species:S:1:pos:R:3 unique_starting_index=34 config_type=initial n_minim_iter=9 stress="-0.004997763393864403 -1.0802709002278218e-14 2.729095973041546e-15 -1.0802709002278218e-14 -0.011829286223293352 0.0031122205735823897 2.729095973041546e-15 0.0031122205735823897 -0.020113236872064514" pbc="T T T"
Si       0.89421773       2.64378911       5.57916351
Si       0.89421773       3.45681763       3.62482400
Si       0.78061333       5.25723193       8.56501087
Si       0.78061333       0.84337481       0.63897663
Si       4.49718566       1.26569141       7.83168989
Si       4.49718566       4.83491533       1.37229762
Si       4.61079006       3.89367819       5.24097038
Si       4.61079006       2.20692856       3.96301712
8
Lattice="5.381505333142134 3.8298008116630274e-16 6.388347844124766e-17 1.4674866228007878e-16 5.230557969931553 0.3793226251460345 -8.425463254909523e-17 0.8304957596792083 8.819351098911286" Properties=species:S:1:pos:R:3 unique_starting_index=34 config_type=initial n_minim_iter=10 stress="0.008234593527389894 -1.2352342878532034e-14 3.405136110145106e-15 -1.2352342878532034e-14 0.02226839379444623 0.006608747526806915 3.405136110145106e-15 0.006608747526806915 0.010657277259358482" pbc="T T T"
Si       0.91105970       2.62904384       5.57967713
Si       0.91105970       3.43200989       3.61899659
Si       0.75320982       5.20191435       8.57784592
Si       0.75320982       0.85913937       0.62082781
Si       4.47044563       1.23197879       7.83901083
Si       4.47044563       4.82907494       1.35966290
Si       4.62829552       3.88966624       5.22016467
Si       4.62829552       2.17138749       3.97850905
8
Lattice="5.380963763156144 3.812208667406547e-16 6.197442236918165e-17 1.4643104596590375e-16 5.211397889755056 0.3649567976760248 -8.598572701395395e-17 0.8007949186433804 8.864466275753854" Properties=species:S:1:pos:R:3 unique_starting_index=34 config_type=initial n_minim_iter=11 stress="0.0011948342283489711 -1.3005830124343722e-14 3.707218926789709e-15 -1.3005830124343722e-14 0.0026776617970118745 -0.01151018363985755 3.707218926789709e-15 -0.01151018363985755 0.023090736821921164" pbc="T T T"
Si       0.93104284       2.61518471       5.60026156
Si       0.93104284       3.39700809       3.62916151
Si       0.73422111       5.14891161       8.61661890
Si       0.73422111       0.86328120       0.61280417
Si       4.44992093       1.19170661       7.87891625
Si       4.44992093       4.82048620       1.35050682
Si       4.64674266       3.86937760       5.22751571
Si       4.64674266       2.14281521       4.00190736
8
Lattice="5.375367004026948 3.812505444623253e-16 5.960199223886866e-17 1.466563629070476e-16 5.207484476453906 0.34540732123767065 -8.762690410195381e-17 0.7651403221553225 8.901886029558204" Properties=species:S:1:pos:R:3 unique_starting_index=34 config_type=initial n_minim_iter=12 stress="0.003102783510250436 -1.1887762804193079e-14 3.4682957152748166e-15 -1.1887762804193079e-14 0.0024246620856061144 -0.008970878877504218 3.4682957152748166e-15 -0.008970878877504218 0.014780149071910338" pbc="T T T"
Si       0.96428047       2.61224495       5.61476596
Si       0.96428047       3.36037985       3.63252739
Si       0.70470033       5.10221203       8.64468180
Si       0.70470033       0.87041277       0.60261155
Si       4.41108654       1.13920777       7.91076675
Si       4.41108654       4.83341702       1.33652660
Si       4.67066667       3.85672517       5.22625822
Si       4.67066667       2.11589963       4.02103513
8
Lattice="5.373856855904731 3.8208155778775186e-16 6.081887736380628e-17 1.4659039985568942e-16 5.2191820074056965 0.35182319121285327 -8.61330694019131e-17 0.7800312909363265 8.863497571709846" Properties=species:S:1:pos:R:3 unique_starting_index=34 config_type=initial n_minim_iter=13 stress="-0.019365099133929847 -4.312924630461778e-16 -2.201388613464866e-16 -4.312924630461778e-16 -0.008739797295661378 -0.00592852585860476 -2.201388613464866e-16 -0.00592852585860476 0.018157277307584267" pbc="T T T"
Si       1.03432788       2.66012851       5.61131814
Si       1.03432788       3.33908479       3.60400263
Si       0.64051489       5.11665651       8.63049929
Si       0.64051489       0.88255679       0.58482147
Si       4.33952897       1.11950943       7.85983982
Si       4.33952897       4.87970387       1.35548095
Si       4.73334197       3.88216344       5.19248186
Si       4.73334197       2.11704986       4.02283891
8
Lattice="5.398422653735285 3.8368333481466566e-16 6.602813594081738e-17 1.462260138494402e-16 5.254129596935126 0.3893401790525953 -8.213686138920546e-17 0.8527389894316163 8.787180601534303" Properties=species:S:1:pos:R:3 unique_starting_index=34 config_type=initial n_minim_iter=14 stress="-0.013522479953169807 -2.5439607595629867e-16 -1.6511068069121325e-16 -2.5439607595629867e-16 0.00942861700031249 0.0038724055939518033 -1.6511068069121325e-16 0.0038724055939518033 0.031413225294363474" pbc="T T T"
Si       1.11013349       2.74728169       5.60286896
Si       1.11013349       3.35958690       3.57365182
Si       0.56767983       5.20955744       8.61297976
Si       0.56767983       0.89731115       0.56354102
Si       4.28828917       1.15889159       7.77257203
Si       4.28828917       4.94797699       1.40394875
Si       4.83074283       3.95074544       5.15180141
Si       4.83074283       2.15612315       4.02471937
8
Lattice="5.410932824141886 3.849777851328317e-16 7.212604290873489e-17 1.4542304619586326e-16 5.28673796557738 0.42935504327203244 -7.666991885575626e-17 0.930544952739147 8.691167625786656" Properties=species:S:1:pos:R:3 unique_starting_index=34 config_type=initial n_minim_iter=15 stress="-0.01730330068324651 -2.7658804974251203e-16 -3.874034572940722e-17 -2.7658804974251203e-16 -0.018110480618475436 0.0070636481482668845 -3.874034572940722e-17 0.0070636481482668845 -0.022430241149911045" pbc="T T T"
Si       1.10733417       2.79483708       5.56945879
Si       1.10733417       3.42244584       3.55106387
Si       0.57346621       5.32884427       8.54719969
Si       0.57346621       0.88843865       0.57332298
Si       4.30359866       1.24434933       7.68197017
Si       4.30359866       4.97293359       1.43855250
Si       4.83746662       3.99708011       5.13358431
Si       4.83746662       2.22020281       3.98693836
8
Lattice="5.4162393272536615 3.8199642078023067e-16 7.609870516860284e-17 1.4321076953341283e-16 5.279494066182235 0.4465211678061469 -7.254713403331398e-17 0.9590336750362817 8.678030344833209" Properties=species:S:1:pos:R:3 unique_starting_index=34 config_type=initial n_minim_iter=16 stress="-0.018536348133085617 -3.310405814460413e-16 2.709745550717937e-18 -3.310405814460413e-16 0.0037413967141430924 0.019085966780950026 2.709745550717937e-18 0.019085966780950026 -0.013381522666437214" pbc="T T T"
Si       1.13061749       2.80066056       5.57138052
Si       1.13061749       3.43786718       3.55317099
Si       0.53108979       5.33223184       8.57543172
Si       0.53108979       0.90629590       0.54911979
Si       4.28562184       1.27763699       7.66892558
Si       4.28562184       4.96089075       1.45562594
Si       4.88514954       4.02555977       5.11139555
Si       4.88514954       2.21296797       4.01315596
8
Lattice="5.417447227596396 3.8036764010787933e-16 7.700938192924418e-17 1.420566848033638e-16 5.274643819316971 0.4457254530447273 -7.132863938239877e-17 0.9554729039214752 8.701809000839106" Properties=species:S:1:pos:R:3 unique_starting_index=34 config_type=initial n_minim_iter=17 stress="-0.00843705831629411 -8.964332051736158e-15 3.2132968442450756e-15 -8.964332051736158e-15 -0.011154174150888234 -0.0027068097171302373 3.2132968442450756e-15 -0.0027068097171302373 0.0018679572092925078" pbc="T T T"
Si       1.12663595       2.79127748       5.58223854
Si       1.12663595       3.43883924       3.56529592
Si       0.53978020       5.32965957       8.59203088
Si       0.53978020       0.90045716       0.55550357
Si       4.29081128       1.27925379       7.69333769
Si       4.29081128       4.95086294       1.45419676
Si       4.87766703       4.01551552       5.12927080
Si       4.87766703       2.21460120       4.01826365
8
Lattice="5.4133994351871495 3.8085157481694303e-16 7.765755103119884e-17 1.4156173253718282e-16 5.288307889931272 0.4396708393313776 -6.944237931394009e-17 0.9482893764726336 8.686985540850708" Properties=species:S:1:pos:R:3 unique_starting_index=34 config_type=initial n_minim_iter=18 stress="0.010802699872362452 -8.810702857768387e-15 2.978836836159616e-15 -8.810702857768387e-15 0.00043440054581326117 -0.0035803386759927 2.978836836159616e-15 -0.0035803386759927 -0.007175592213535142" pbc="T T T"
Si       1.12639683       2.78879633       5.56942080
Si       1.12639683       3.44780094       3.55723558
Si       0.54324241       5.34034458       8.56506760
Si       0.54324241       0.89625268       0.56158878
Si       4.28700261       1.27779168       7.68089293
Si       4.28700261       4.95880559       1.44576345
Si       4.87015702       4.01455132       5.12491697
Si       4.87015702       2.22204595       4.00173941
8
Lattice="5.415734924088198 3.808261743368258e-16 7.940267378004879e-17 1.4082834961300877e-16 5.300259384493416 0.44204352427978433 -6.683080233231303e-17 0.955531336866705 8.663041812398653" Properties=species:S:1:pos:R:3 unique_starting_index=34 config_type=initial n_minim_iter=19 stress="0.0033119582314435187 -5.94892652772773e-15 1.9511325454522853e-15 -5.94892652772773e-15 -0.0034784512130809552 -0.00033867194587495705 1.9511325454522853e-15 -0.00033867194587495705 -0.011446497340787195" pbc="T T T"
Si       1.13284848       2.79699480       5.55800575
Si       1.13284848       3.45879592       3.54707958
Si       0.53930159       5.36338792       8.53793263
Si       0.53930159       0.89240280       0.56715271
Si       4.28288645       1.28643190       7.65757873
Si       4.28288645       4.96935882       1.44750661
Si       4.87643333       4.02029816       5.11969538
Si       4.87643333       2.23549256       3.98538996
8
Lattice="5.417931251774846 3.799776387248598e-16 8.095550133657952e-17 1.399108345313637e-16 5.303672607709654 0.44180262311598917 -6.429706520954649e-17 0.956735111479844 8.64573089120128" Properties=species:S:1:pos:R:3 unique_starting_index=34 config_type=initial n_minim_iter=20 stress="0.007355694408250234 -7.116932577187648e-15 2.424820060838837e-15 -7.116932577187648e-15 0.0005052161217274792 -0.00646745693777202 2.424820060838837e-15 -0.00646745693777202 0.004451565896613828" pbc="T T T"
Si       1.14073406       2.79210128       5.54767037
Si       1.14073406       3.46830644       3.53986314
Si       0.53040720       5.37101240       8.51539005
Si       0.53040720       0.88939532       0.57214346
Si       4.27719719       1.29483769       7.64182728
Si       4.27719719       4.96557003       1.44570624
Si       4.88752405       4.01959918       5.11591022
Si       4.88752405       2.24080854       3.97162330
8
Lattice="5.416677660592021 3.766532737823769e-16 8.299951236672535e-17 1.3774218464815793e-16 5.291167981280553 0.43263266599033295 -6.025041177985199e-17 0.9390690676910417 8.65374045773863" Properties=species:S:1:pos:R:3 unique_starting_index=34 config_type=initial n_minim_iter=21 stress="-0.003966965807779734 -1.2958004299209314e-14 4.660021900918117e-15 -1.2958004299209314e-14 -0.00010120666626096973 -0.0018507183518103707 4.660021900918117e-15 -0.0018507183518103707 0.00709079318912871" pbc="T T T"
Si       1.14106953       2.76767287       5.54401756
Si       1.14106953       3.46256418       3.54235557
Si       0.52619690       5.34338927       8.50848322
Si       0.52619690       0.88684778       0.57788990
Si       4.27560813       1.28651472       7.65290946
Si       4.27560813       4.94372233       1.43346366
Si       4.89048076       4.00196631       5.12107646
Si       4.89048076       2.22827074       3.96529666
