20
Lattice="5.390107415681669 -1.934898194227559 -4.567759391116227e-14 -3.047696494693851 8.4319528031657 -8.535170904893357e-14 2.1689959281891253e-13 2.362003459820288e-13 15.589448125922175" Properties=species:S:1:pos:R:3 unique_starting_index=93 config_type=initial n_minim_iter=1 energy=-3268.7841864168613 free_energy=-3268.7841864168613 pbc="T T T"
Si       2.26265618      -1.18948347       9.52414811
Si       0.07975475       7.68653807       1.72942405
Si       0.33152369      -1.21356862      10.44607579
Si       2.01088724       7.71062322       2.65135173
Si       1.74083329       0.59815896       2.63029901
Si       0.60157765       5.89889565      10.42502307
Si       2.62828018       0.77650665       4.55343399
Si      -0.28586925       5.72054795      12.34815805
Si      -0.50300442       5.33317760       8.69643233
Si       2.84541536       1.16387701       0.90170827
Si       3.78797769       0.96868447       2.78446836
Si      -1.44556675       5.52837013      10.57919242
Si      -1.47486132       4.48074620      15.29222300
Si       3.81727225       2.01630840       7.49749893
Si       4.59339879       0.11415199       4.54422553
Si      -2.25098785       6.38290262      12.33894959
Si       0.29223001       4.81981984      14.17847750
Si       2.05018092       1.67723476       6.38375343
Si      -1.21564084       6.26493098      14.18097776
Si       3.55805178       0.23212362       6.38625370
20
Lattice="5.389729823156573 -1.9349539906253974 -4.567149499138967e-14 -3.0475347718430377 8.432051717266688 -8.535545781315504e-14 2.168382681295689e-13 2.36133564331349e-13 15.58504047328006" Properties=species:S:1:pos:R:3 unique_starting_index=93 config_type=initial n_minim_iter=2 stress="-0.0005376030967452092 0.00022361575714424124 -1.5542476457613697e-15 0.00022361575714424124 -0.0008591327703530015 1.6492379519594695e-15 -1.5542476457613697e-15 1.6492379519594695e-15 -0.0016762744277678124" pbc="T T T"
Si       2.26246348      -1.18942577       9.52145643
Si       0.07973159       7.68652349       1.72893620
Si       0.33154533      -1.21361062      10.44313889
Si       2.01064973       7.71070834       2.65061865
Si       1.74069496       0.59818799       2.62960334
Si       0.60150010       5.89890973      10.42212357
Si       2.62807716       0.77649965       4.55215092
Si      -0.28588210       5.72059807      12.34467116
Si      -0.50300312       5.33322089       8.69396866
Si       2.84519818       1.16387683       0.90144842
Si       3.78772655       0.96866392       2.78370528
Si      -1.44553149       5.52843380      10.57622552
Si      -1.47484728       4.48076417      15.28793071
Si       3.81704234       2.01633355       7.49541047
Si       4.59310586       0.11412086       4.54288655
Si      -2.25091080       6.38297686      12.33540679
Si       0.29221511       4.81987726      14.17444138
Si       2.04997995       1.67722047       6.38192115
Si      -1.21559512       6.26503627      14.17692928
Si       3.55779019       0.23206145       6.38440904
20
Lattice="5.39016726817081 -1.9364599804109575 -4.5654763567620283e-14 -3.048702679707718 8.436050111399794 -8.539978929504786e-14 2.1682641458060834e-13 2.36120655997455e-13 15.5841885109309" Properties=species:S:1:pos:R:3 unique_starting_index=93 config_type=initial n_minim_iter=3 stress="0.0010570133547581524 -6.185191648182867e-05 -1.7589518084265852e-15 -6.185191648182867e-05 0.0021780636187855207 -1.5155306666084017e-16 -1.7589518084265852e-15 -1.5155306666084017e-16 -0.0009828841098821197" pbc="T T T"
Si       2.26248336      -1.18969844       9.52093217
Si       0.07898124       7.68928857       1.72883792
Si       0.33188871      -1.21428995      10.44258092
Si       2.00957589       7.71388008       2.65048667
Si       1.74057675       0.59842887       2.62968037
Si       0.60088785       5.90116125      10.42177462
Si       2.62805685       0.77650524       4.55192216
Si      -0.28659225       5.72308489      12.34401642
Si      -0.50368017       5.33551830       8.69344641
Si       2.84514477       1.16407183       0.90135216
Si       3.78794087       0.96861813       2.78367623
Si      -1.44647627       5.53097200      10.57577048
Si      -1.47582914       4.48267072      15.28728013
Si       3.81729374       2.01691941       7.49518588
Si       4.59349572       0.11362882       4.54239059
Si      -2.25203112       6.38596131      12.33448485
Si       0.29189154       4.82196030      14.17358158
Si       2.04957306       1.67762982       6.38148733
Si      -1.21642550       6.26812682      14.17597557
Si       3.55789010       0.23146331       6.38388132
20
Lattice="5.387215414183775 -1.9363449472832148 -4.5615436642233e-14 -3.048412232422729 8.431708401374014 -8.533804782064677e-14 2.1691740494065502e-13 2.3621974311073497e-13 15.590728354918022" Properties=species:S:1:pos:R:3 unique_starting_index=93 config_type=initial n_minim_iter=4 stress="-0.00041750422151760116 0.0010998187625570132 4.273998945708162e-16 0.0010998187625570132 3.230855908823909e-05 3.2923485976382607e-15 4.273998945708162e-16 3.2923485976382607e-15 0.0004904127174130789" pbc="T T T"
Si       2.26082253      -1.18837499       9.52503863
Si       0.07798066       7.68373844       1.72967446
Si       0.33237215      -1.21397958      10.44690858
Si       2.00643104       7.70934303       2.65154440
Si       1.73914460       0.59818570       2.63117559
Si       0.59965860       5.89717775      10.42653977
Si       2.62628642       0.77556480       4.55395787
Si      -0.28748322       5.71979865      12.34932205
Si      -0.50433852       5.33241405       8.69700321
Si       2.84314172       1.16294940       0.90163903
Si       3.78594724       0.96713171       2.78502018
Si      -1.44714404       5.52823174      10.58038435
Si      -1.47655177       4.48002086      15.29399361
Si       3.81535497       2.01534259       7.49862944
Si       4.59121656       0.11283724       4.54378177
Si      -2.25241337       6.38252621      12.33914595
Si       0.29137773       4.81921207      14.17940430
Si       2.04742547       1.67615138       6.38404012
Si      -1.21687113       6.26518016      14.18160830
Si       3.55567433       0.23018329       6.38624412
20
Lattice="5.387842939597593 -1.9383315181485412 -4.5594068424687595e-14 -3.0521584908352035 8.430917891323299 -8.527394801007815e-14 2.169255947105883e-13 2.362286616451895e-13 15.59131698669865" Properties=species:S:1:pos:R:3 unique_starting_index=93 config_type=initial n_minim_iter=5 stress="-2.4328867876290986e-05 -0.00026223424669694474 -4.0774040657881285e-15 -0.00026223424669694474 -0.0003462299239834829 2.934310678103397e-15 -4.0774040657881285e-15 2.934310678103397e-15 0.00031050405598804154" pbc="T T T"
Si       2.26114603      -1.18876818       9.52549572
Si       0.07453843       7.68135455       1.72983723
Si       0.33293731      -1.21377257      10.44721524
Si       2.00274716       7.70635894       2.65155675
Si       1.73875066       0.59735707       2.63136444
Si       0.59693380       5.89522930      10.42702293
Si       2.62579363       0.77416710       4.55421641
Si      -0.29010917       5.71841927      12.34987491
Si      -0.50672461       5.33128538       8.69736838
Si       2.84240907       1.16130099       0.90170989
Si       3.78539558       0.96514431       2.78517399
Si      -1.44971112       5.52744206      10.58083248
Si      -1.47875025       4.47955651      15.29453252
Si       3.81443471       2.01302986       7.49887403
Si       4.59116407       0.11078272       4.54383609
Si      -2.25547961       6.38180365      12.33949459
Si       0.28927156       4.81786843      14.17993197
Si       2.04641290       1.67471794       6.38427348
Si      -1.21974306       6.26422557      14.18203585
Si       3.55542752       0.22836080       6.38637736
20
Lattice="5.386079887236914 -1.9386420943622658 -4.556483303773843e-14 -3.052360670944743 8.428931090651785 -8.524103242606909e-14 2.1695537049234922e-13 2.362610870170513e-13 15.593457092169288" Properties=species:S:1:pos:R:3 unique_starting_index=93 config_type=initial n_minim_iter=6 stress="-0.001117243491953945 -0.00013922580379765561 -3.1952708828734773e-15 -0.00013922580379765561 0.00019741781887950226 1.5555953695033416e-15 -3.1952708828734773e-15 1.5555953695033416e-15 0.00017057143881438094" pbc="T T T"
Si       2.26066276      -1.18747952       9.52722420
Si       0.07305647       7.67776851       1.73049566
Si       0.33272118      -1.21307025      10.44824806
Si       2.00099805       7.70335924       2.65151952
Si       1.73811773       0.59713069       2.63177596
Si       0.59560150       5.89315830      10.42850451
Si       2.62469176       0.77366054       4.55547495
Si      -0.29097254       5.71662846      12.35220349
Si      -0.50700125       5.33025276       8.69904169
Si       2.84072048       1.16003623       0.90231314
Si       3.78413705       0.96464853       2.78587586
Si      -1.45041782       5.52564046      10.58260441
Si      -1.47929241       4.47898921      15.29596003
Si       3.81301164       2.01129978       7.49923148
Si       4.59022669       0.11053207       4.54425843
Si      -2.25650746       6.37975692      12.34098697
Si       0.28855871       4.81670992      14.18186310
Si       2.04516052       1.67357907       6.38513455
Si      -1.22048386       6.26292588      14.18336840
Si       3.55420309       0.22736311       6.38663985
20
Lattice="5.388783261980982 -1.9372595100813237 -4.5623393658958555e-14 -3.053409196239869 8.424243255566736 -8.5155417273577e-14 2.1695649049880486e-13 2.3626230668698644e-13 15.593537591548351" Properties=species:S:1:pos:R:3 unique_starting_index=93 config_type=initial n_minim_iter=7 stress="0.001038491707954453 0.00010789459803541644 -2.5857515950556892e-15 0.00010789459803541644 -0.0004669957717718244 2.6049570728604792e-15 -2.5857515950556892e-15 2.6049570728604792e-15 0.00021195263691077304" pbc="T T T"
Si       2.26204835      -1.18594538       9.52773705
Si       0.07332573       7.67292912       1.73096825
Si       0.33260370      -1.21217348      10.44816287
Si       2.00277038       7.69915723       2.65139408
Si       1.73932423       0.59699191       2.63197832
Si       0.59604985       5.88999183      10.42874712
Si       2.62611244       0.77349977       4.55557918
Si      -0.29073836       5.71348397      12.35234798
Si      -0.50663710       5.32777559       8.69944765
Si       2.84201117       1.15920816       0.90267885
Si       3.78640750       0.96451565       2.78606029
Si      -1.45103342       5.52246809      10.58282908
Si      -1.48012242       4.47686343      15.29555260
Si       3.81549650       2.01012031       7.49878380
Si       4.59334243       0.11114818       4.54402022
Si      -2.25796836       6.37583556      12.34078901
Si       0.28924830       4.81437303      14.18201933
Si       2.04612578       1.67261071       6.38525053
Si      -1.22091356       6.25987384      14.18298154
Si       3.55628764       0.22710990       6.38621274
20
Lattice="5.38783476830737 -1.9364197006459476 -4.562292124888072e-14 -3.0531959971605733 8.419683435078339 -8.508929637082528e-14 2.1700703156029096e-13 2.3631734513152277e-13 15.597170181384161" Properties=species:S:1:pos:R:3 unique_starting_index=93 config_type=initial n_minim_iter=8 stress="0.00012300569044479152 -0.00018266743445514516 -6.541716627094974e-15 -0.00018266743445514516 7.470982511845454e-05 3.06840872000997e-15 -6.541716627094974e-15 3.06840872000997e-15 2.8808367639975472e-05" pbc="T T T"
Si       2.26241822      -1.18387435       9.53145200
Si       0.07222056       7.66713808       1.73286691
Si       0.33197589      -1.21085663      10.45034807
Si       2.00266290       7.69412036       2.65176298
Si       1.73977044       0.59659144       2.63334656
Si       0.59486835       5.88667229      10.43193165
Si       2.62563647       0.77304452       4.55598248
Si      -0.29099769       5.71021921      12.35456757
Si      -0.50617788       5.32581040       8.70229008
Si       2.84081666       1.15745333       0.90370499
Si       3.78588272       0.96391927       2.78704592
Si      -1.45124393       5.51934446      10.58563101
Si      -1.48069289       4.47506314      15.29786185
Si       3.81533167       2.00820059       7.49927676
Si       4.59418104       0.11186092       4.54441442
Si      -2.25954226       6.37140281      12.34299951
Si       0.28929426       4.81204557      14.18606549
Si       2.04534452       1.67121816       6.38748040
Si      -1.22158186       6.25775650      14.18496513
Si       3.55622064       0.22550723       6.38638004
20
Lattice="5.387890236357381 -1.9352364616177926 -4.5641620593651424e-14 -3.053411344841437 8.414014551297619 -8.500040925157394e-14 2.1708230797684246e-13 2.3639932000018287e-13 15.602580600904465" Properties=species:S:1:pos:R:3 unique_starting_index=93 config_type=initial n_minim_iter=9 stress="0.0002874738546844788 -0.00023171830484783215 -6.736395974438656e-15 -0.00023171830484783215 0.0004214025997090686 5.889281569143659e-15 -6.736395974438656e-15 5.889281569143659e-15 -0.00017047612037692403" pbc="T T T"
Si       2.26337314      -1.18174468       9.53760654
Si       0.07110576       7.66052277       1.73631624
Si       0.33096202      -1.20889682      10.45401146
Si       2.00351688       7.68767491       2.65272116
Si       1.74025213       0.59576571       2.63502491
Si       0.59422678       5.88301237      10.43631521
Si       2.62604160       0.77307457       4.55807159
Si      -0.29156269       5.70570351      12.35936189
Si      -0.50602669       5.32327427       8.70584512
Si       2.84050560       1.15550382       0.90455481
Si       3.78567546       0.96284420       2.78789127
Si      -1.45119656       5.51593389      10.58918157
Si      -1.48190179       4.47215814      15.30175028
Si       3.81638069       2.00661995       7.50045998
Si       4.59659535       0.11308638       4.54488323
Si      -2.26211644       6.36569171      12.34617353
Si       0.28900685       4.80980936      14.19142141
Si       2.04547206       1.66896872       6.39013111
Si      -1.22277667       6.25608146      14.18740136
Si       3.55725558       0.22269663       6.38611106
20
Lattice="5.388221680038898 -1.9339175956307741 -4.5666214575356505e-14 -3.0535631652316546 8.408366293289005 -8.491271850937394e-14 2.1715176586004102e-13 2.3647495857483144e-13 15.607572818976372" Properties=species:S:1:pos:R:3 unique_starting_index=93 config_type=initial n_minim_iter=10 stress="0.0003393885096582498 -0.00023017782374526384 -5.054536011668178e-15 -0.00023017782374526384 0.00031110278528409497 4.1205652854345676e-15 -5.054536011668178e-15 4.1205652854345676e-15 0.0005706068872155987" pbc="T T T"
Si       2.26404480      -1.17901334       9.54266175
Si       0.07061373       7.65346204       1.73887534
Si       0.33057802      -1.20734826      10.45783082
Si       2.00408051       7.68179696       2.65404441
Si       1.74005989       0.59499890       2.63699059
Si       0.59459864       5.87944979      10.44077700
Si       2.62686655       0.77349258       4.55940966
Si      -0.29220803       5.70095611      12.36319607
Si      -0.50651819       5.32010904       8.70827694
Si       2.84117671       1.15433965       0.90449053
Si       3.78581728       0.96233629       2.78908458
Si      -1.45115875       5.51211240      10.59287098
Si      -1.48276867       4.46967200      15.30508449
Si       3.81742720       2.00477670       7.50129809
Si       4.59866231       0.11427116       4.54516197
Si      -2.26400378       6.36017753      12.34894838
Si       0.28808339       4.80783388      14.19624880
Si       2.04657514       1.66661481       6.39246239
Si      -1.22424221       6.25341279      14.19096345
Si       3.55890074       0.22103590       6.38717704
20
Lattice="5.389510429037407 -1.9297807540412668 -4.574682375007432e-14 -3.0526247803767705 8.394982673342101 -8.472299528472048e-14 2.1719405249426832e-13 2.365210080740725e-13 15.610612129848926" Properties=species:S:1:pos:R:3 unique_starting_index=93 config_type=initial n_minim_iter=11 stress="-0.0002417578477721123 0.0001434353825626282 -1.0400108274931824e-14 0.0001434353825626282 -0.000265973888097788 5.084801085882033e-15 -1.0400108274931824e-14 5.084801085882033e-15 -0.0009978117567156543" pbc="T T T"
Si       2.26513990      -1.17059775       9.54989238
Si       0.07174576       7.63579966       1.74458631
Si       0.33110700      -1.20346931      10.45976036
Si       2.00577866       7.66867123       2.65445429
Si       1.74051892       0.59351145       2.63924623
Si       0.59636674       5.87169046      10.44455229
Si       2.63152078       0.77520272       4.55913055
Si      -0.29463512       5.68999919      12.36443661
Si      -0.50813915       5.31303520       8.71124756
Si       2.84502481       1.15216672       0.90594150
Si       3.78651000       0.96199896       2.78818545
Si      -1.44962434       5.50320295      10.59349152
Si      -1.48655570       4.46364076      15.30483252
Si       3.82344136       2.00156116       7.49952646
Si       4.60362674       0.11992945       4.54530151
Si      -2.26674108       6.34527247      12.35060757
Si       0.28727181       4.80453469      14.20006922
Si       2.04961386       1.66066722       6.39476315
Si      -1.22829822       6.24726838      14.19097576
Si       3.56518388       0.21793353       6.38566970
20
Lattice="5.3899023384774445 -1.9304155272924937 -4.5742658839099295e-14 -3.0540968052335837 8.394265543634964 -8.469164921826228e-14 2.1721480752777666e-13 2.3654360998877335e-13 15.612103877777194" Properties=species:S:1:pos:R:3 unique_starting_index=93 config_type=initial n_minim_iter=12 stress="-0.0004092810285208408 0.00012911805214784364 -9.186686467871409e-15 0.00012911805214784364 -0.0003321220735067997 7.167688367027281e-15 -9.186686467871409e-15 7.167688367027281e-15 -0.0011431394079533305" pbc="T T T"
Si       2.26554973      -1.16935954       9.55177442
Si       0.07025582       7.63320955       1.74572248
Si       0.33180786      -1.20311922      10.46153124
Si       2.00399768       7.66696923       2.65547930
Si       1.74084148       0.59296481       2.63904564
Si       0.59496407       5.87088521      10.44509758
Si       2.63277187       0.77487864       4.55961516
Si      -0.29696633       5.68897138      12.36566710
Si      -0.50952047       5.31279530       8.71283458
Si       2.84532602       1.15105472       0.90678264
Si       3.78657371       0.96131699       2.78768067
Si      -1.45076817       5.50253302      10.59373261
Si      -1.48852297       4.46332102      15.30563634
Si       3.82432852       2.00052899       7.49958440
Si       4.60469778       0.12021207       4.54452788
Si      -2.26889224       6.34363794      12.35057982
Si       0.28559145       4.80468453      14.20237834
Si       2.05021409       1.65916548       6.39632640
Si      -1.23039414       6.24712510      14.19192607
Si       3.56619969       0.21672491       6.38587413
20
Lattice="5.388198055460269 -1.932239576411697 -4.5691310047336315e-14 -3.0548888457282395 8.397323572930793 -8.472696248352125e-14 2.172664271716453e-13 2.365998229930615e-13 15.615813989676944" Properties=species:S:1:pos:R:3 unique_starting_index=93 config_type=initial n_minim_iter=13 stress="9.687003909711426e-06 9.070023638078402e-05 -6.315016226604026e-15 9.070023638078402e-05 2.5359574541672077e-05 3.952611239425021e-15 -6.315016226604026e-15 3.952611239425021e-15 0.0009926435225505639" pbc="T T T"
Si       2.26511652      -1.17030808       9.55306180
Si       0.06819270       7.63539207       1.74515481
Si       0.33141739      -1.20247202      10.46423895
Si       2.00189183       7.66755602       2.65633196
Si       1.74183967       0.59324364       2.63997262
Si       0.59146955       5.87184035      10.44787961
Si       2.63197884       0.77407428       4.56097631
Si      -0.29866962       5.69100972      12.36888331
Si      -0.51042849       5.31522007       8.71549809
Si       2.84373771       1.14986392       0.90759109
Si       3.78666319       0.96029767       2.78678373
Si      -1.45335396       5.50478632      10.59469072
Si      -1.49118891       4.46396636      15.31011379
Si       3.82449813       2.00111763       7.50220680
Si       4.60342185       0.12099693       4.54429539
Si      -2.27011263       6.34408707      12.35220238
Si       0.28251756       4.80750329      14.20641508
Si       2.05079166       1.65758070       6.39850808
Si      -1.23097014       6.24816841      14.19625930
Si       3.56427936       0.21691559       6.38835231
20
Lattice="5.390974214965647 -1.9340367773960194 -4.5702705471381186e-14 -3.057970547708815 8.400943453704427 -8.473893193778689e-14 2.1719103705525572e-13 2.3651772430701327e-13 15.610395398090915" Properties=species:S:1:pos:R:3 unique_starting_index=93 config_type=initial n_minim_iter=14 stress="0.0003014639745924554 2.098160523840452e-06 -5.036291982292308e-15 2.098160523840452e-06 -0.0001290130336493067 2.3147860199968467e-15 -5.036291982292308e-15 2.3147860199968467e-15 0.0009908047385336174" pbc="T T T"
Si       2.26610622      -1.17144964       9.54875116
Si       0.06689746       7.63835631       1.74355346
Si       0.33109395      -1.20188028      10.46112412
Si       2.00190973       7.66878695       2.65592642
Si       1.74265426       0.59364727       2.63926254
Si       0.59034942       5.87325941      10.44446024
Si       2.63553299       0.77324814       4.55942866
Si      -0.30252931       5.69365853      12.36462636
Si      -0.51146724       5.31859267       8.71203914
Si       2.84447092       1.14831401       0.90684144
Si       3.79050959       0.95809990       2.78568302
Si      -1.45750592       5.50880678      10.59088072
Si      -1.49522889       4.46570643      15.30474196
Si       3.82823257       2.00120025       7.49954426
Si       4.60584413       0.12265446       4.54286871
Si      -2.27284045       6.34425221      12.34806641
Si       0.27972085       4.81048889      14.20327362
Si       2.05328282       1.65641778       6.39807593
Si      -1.23389769       6.24940804      14.19026143
Si       3.56690137       0.21749863       6.38506373
20
Lattice="5.390037166043927 -1.9362573608438687 -4.565602337575101e-14 -3.0582536221356165 8.408355839838716 -8.484730071568812e-14 2.1718019653490482e-13 2.3650591914581283e-13 15.609616246191772" Properties=species:S:1:pos:R:3 unique_starting_index=93 config_type=initial n_minim_iter=15 stress="0.0002938282622378768 -0.00013771995382575955 -9.158702727683268e-15 -0.00013771995382575955 0.00015128667808823014 1.853303601613479e-15 -9.158702727683268e-15 1.853303601613479e-15 0.00048237139477022095" pbc="T T T"
Si       2.26542336      -1.17212391       9.54934651
Si       0.06636020       7.64422238       1.74453839
Si       0.33143246      -1.20142426      10.46164817
Si       2.00035110       7.67352273       2.65684005
Si       1.74300815       0.59350283       2.63914680
Si       0.58877540       5.87859564      10.44395492
Si       2.63691374       0.77522938       4.55874645
Si      -0.30513019       5.69686909      12.36355457
Si      -0.51208275       5.32526115       8.71169752
Si       2.84386630       1.14683733       0.90688940
Si       3.79079980       0.95683156       2.78509602
Si      -1.45901625       5.51526692      10.58990414
Si      -1.49889166       4.47044743      15.30255474
Si       3.83067522       2.00165104       7.49774662
Si       4.60746019       0.12529744       4.54222897
Si      -2.27567664       6.34680103      12.34703710
Si       0.27695795       4.81715423      14.20291867
Si       2.05482560       1.65494425       6.39811055
Si      -1.23829789       6.25527906      14.18971076
Si       3.57008145       0.21681941       6.38490264
20
Lattice="5.385491752040627 -1.9382503602637164 -4.556258545625232e-14 -3.056352479384161 8.415177489887924 -8.497710859433319e-14 2.1720172360877426e-13 2.3652936180068305e-13 15.61116348377313" Properties=species:S:1:pos:R:3 unique_starting_index=93 config_type=initial n_minim_iter=16 stress="-6.603285287128525e-06 -3.436438937793498e-05 -1.0640448465283565e-14 -3.436438937793498e-05 0.00038036651058197707 2.2302501653346674e-15 -1.0640448465283565e-14 2.2302501653346674e-15 -0.0006182119268356705" pbc="T T T"
Si       2.26427305      -1.17076317       9.55239850
Si       0.06486624       7.64769030       1.74681676
Si       0.33083921      -1.19814092      10.46564341
Si       1.99830007       7.67506805       2.66006167
Si       1.74329392       0.59173633       2.64157692
Si       0.58584536       5.88519079      10.44715867
Si       2.63979640       0.77789574       4.55908538
Si      -0.31065712       5.69903138      12.36466712
Si      -0.51435594       5.33370395       8.71160043
Si       2.84349523       1.14322317       0.90601869
Si       3.79013677       0.95570424       2.78243742
Si      -1.46099749       5.52122289      10.58801916
Si      -1.50699138       4.47591435      15.30104259
Si       3.83613066       2.00101277       7.49546085
Si       4.61121647       0.13184176       4.54105804
Si      -2.28207719       6.34508537      12.34663978
Si       0.27169837       4.82639432      14.20685899
Si       2.05744091       1.65053281       6.40127725
Si      -1.24581106       6.26065178      14.19001079
Si       3.57495035       0.21627535       6.38442905
20
Lattice="5.383915722534635 -1.9463216573239503 -4.5418367181294096e-14 -3.0621931085868668 8.431597949417325 -8.514463781698816e-14 2.1715192440319465e-13 2.364751312259057e-13 15.607584214111963" Properties=species:S:1:pos:R:3 unique_starting_index=93 config_type=initial n_minim_iter=17 stress="-9.40714685327651e-05 -0.00010454216484720685 -1.323316904318286e-14 -0.00010454216484720685 0.0002502706300693439 4.437369541672364e-15 -1.323316904318286e-14 4.437369541672364e-15 -0.0009737716652693345" pbc="T T T"
Si       2.26457807      -1.17224568       9.55051232
Si       0.05714456       7.65752196       1.74672022
Si       0.33205147      -1.19527674      10.46645615
Si       1.98967116       7.68055302       2.66266404
Si       1.74532137       0.58856255       2.64324745
Si       0.57640126       5.89671374      10.44703956
Si       2.64527980       0.77942536       4.55850903
Si      -0.32355718       5.70585092      12.36230113
Si      -0.52074118       5.34975748       8.70797949
Si       2.84246381       1.13551881       0.90418738
Si       3.79362360       0.94932371       2.77862603
Si      -1.47190098       5.53595258      10.58241814
Si      -1.52258441       4.48609893      15.29439500
Si       3.84430703       1.99917736       7.49060290
Si       4.61992311       0.13809968       4.53877521
Si      -2.29820049       6.34717661      12.34256732
Si       0.25892637       4.84116028      14.20787106
Si       2.06279625       1.64411601       6.40407895
Si      -1.26087231       6.27222041      14.18540477
Si       3.58259494       0.21305588       6.38161266
20
Lattice="5.379201570663618 -1.9529078340527495 -4.525298898300724e-14 -3.0646732771060905 8.445964933970606 -8.532780909779272e-14 2.1710163823062892e-13 2.364203703515134e-13 15.603969944170391" Properties=species:S:1:pos:R:3 unique_starting_index=93 config_type=initial n_minim_iter=18 stress="0.0001961003272577684 -0.00011282678537021504 -9.71146237863168e-15 -0.00011282678537021504 0.00033522721337554294 5.003879554214686e-15 -9.71146237863168e-15 5.003879554214686e-15 0.00032991438307557837" pbc="T T T"
Si       2.26330499      -1.17428619       9.54730116
Si       0.05122331       7.66734329       1.74531619
Si       0.33121372      -1.19212448      10.46731402
Si       1.98331458       7.68518158       2.66532905
Si       1.74518952       0.58610050       2.64374873
Si       0.56933878       5.90695660      10.44573370
Si       2.64979291       0.78056360       4.55741167
Si      -0.33526461       5.71249349      12.35939664
Si      -0.52490774       5.36451193       8.70436755
Si       2.83943605       1.12854517       0.90238258
Si       3.79433608       0.94386049       2.77607923
Si      -1.47980778       5.54919661      10.57806420
Si      -1.53595267       4.49508825      15.28932296
Si       3.85048097       1.99796884       7.48733799
Si       4.62533320       0.14373987       4.53639885
Si      -2.31080489       6.34931722      12.33838382
Si       0.24902060       4.85382564      14.20788586
Si       2.06550770       1.63923146       6.40590089
Si      -1.27211505       6.28180489      14.18181557
Si       3.58664336       0.21125220       6.37983060
20
Lattice="5.376790027007728 -1.9582181026998295 -4.513897916595863e-14 -3.0663889312338086 8.460528346921414 -8.552459338875421e-14 2.1701594863375443e-13 2.363270556884208e-13 15.597811087401483" Properties=species:S:1:pos:R:3 unique_starting_index=93 config_type=initial n_minim_iter=19 stress="-5.539174605047287e-05 -3.7485994681852514e-05 -1.0122684706487963e-14 -3.7485994681852514e-05 -0.00015692200211539815 4.767469443004031e-15 -1.0122684706487963e-14 4.767469443004031e-15 -6.783852922634655e-05" pbc="T T T"
Si       2.26154942      -1.17780670       9.54115333
Si       0.04885169       7.68011694       1.74224778
Si       0.33067832      -1.19277065      10.46513588
Si       1.97972278       7.69508089       2.66623034
Si       1.74407006       0.58512597       2.64381659
Si       0.56633104       5.91718427      10.44272213
Si       2.65048217       0.78022919       4.55629313
Si      -0.34008106       5.72208105      12.35519867
Si      -0.52642218       5.37643674       8.69939138
Si       2.83682329       1.12587350       0.90048584
Si       3.79519320       0.94083103       2.77295554
Si      -1.48479210       5.56147921      10.57186109
Si      -1.54090261       4.50443051      15.28357388
Si       3.85130372       1.99787973       7.48466834
Si       4.62773349       0.14391558       4.53523952
Si      -2.31733238       6.35839466      12.33414507