16
Lattice="8.605972845818865 1.4042721550987114 0.042853408811531504 3.2034396911274383 7.430531109986324 1.070566948039474 3.0492988551476476 3.5908328161408405 9.874320209348348" Properties=species:S:1:pos:R:3 unique_starting_index=30 config_type=initial n_minim_iter=1 energy=-2610.5815236979424 free_energy=-2610.5815236979424 pbc="T T T"
Si       8.33308269       7.66810393       5.78078004
Si       6.52562870       4.75753215       5.20696053
Si       5.04443228       5.52446661       3.90836202
Si       9.81427911       6.90116947       7.07937855
Si       8.27012092       6.24088079       8.35979939
Si       6.58859047       6.18475529       2.62794118
Si       6.57503760       5.21716660       0.73724473
Si       8.28367379       7.20846948      10.25049583
Si       4.86655985       5.80126722       6.00615906
Si       9.99215154       6.62436886       4.98158150
Si      11.85093375       7.62588767       4.76774341
Si       3.00777764       4.79974841       6.21999716
Si       4.59233797       3.88148652       5.16948094
Si      10.26637342       8.54414956       5.81825963
Si       7.43365870       8.05811413       2.13248628
Si       7.42505269       4.36752195       8.85525428
16
Lattice="8.594739607168092 1.3835461175201105 0.041753740249682966 3.182384486465224 7.423394462276957 1.0718405190866076 3.036115577422276 3.586605568934549 9.870946347544796" Properties=species:S:1:pos:R:3 unique_starting_index=30 config_type=initial n_minim_iter=2 stress="-0.010515293204861617 -0.005498252231016964 0.0010521100231061912 -0.005498252231016964 -0.008417275944224104 0.002549715669475348 0.0010521100231061912 0.002549715669475348 -0.003180127728050699" pbc="T T T"
Si       8.30568086       7.64988867       5.78017902
Si       6.50755881       4.74365747       5.20436159
Si       5.02537209       5.51389673       3.90731020
Si       9.78786758       6.87964942       7.07723041
Si       8.24605291       6.22441467       8.35709690
Si       6.56718676       6.16913148       2.62744370
Si       6.55690412       5.20230390       0.73776472
Si       8.25633555       7.19124225      10.24677589
Si       4.84639854       5.79133913       6.00504551
Si       9.96684113       6.60220702       4.97949510
Si      11.82083770       7.59873301       4.76493299
Si       2.99240197       4.79481314       6.21960762
Si       4.57838672       3.87200911       5.16735596
Si      10.23485295       8.52153703       5.81718465
Si       7.40673442       8.04129354       2.13230125
Si       7.40650525       4.35225261       8.85223935
16
Lattice="8.59926785789205 1.3774332444950046 0.03958333330838749 3.177768726435639 7.42805518671312 1.070410035685417 3.0326924537343243 3.5865203211900365 9.87107264102745" Properties=species:S:1:pos:R:3 unique_starting_index=30 config_type=initial n_minim_iter=3 stress="-0.00016724245837674797 -0.009421855216401922 -0.003370491350723003 -0.009421855216401922 -0.0022854895507548835 0.003080564434433244 -0.003370491350723003 0.003080564434433244 0.0029416827108340667" pbc="T T T"
Si       8.30287332       7.64956324       5.77880085
Si       6.50685572       4.74244551       5.20226516
Si       5.02262406       5.51499447       3.90569017
Si       9.78710498       6.87701428       7.07537584
Si       8.24415873       6.22326410       8.35564309
Si       6.56557030       6.16874465       2.62542292
Si       6.55713894       5.20236859       0.73605299
Si       8.25259010       7.18964016      10.24501302
Si       4.84286384       5.79223062       6.00427932
Si       9.96686519       6.59977813       4.97678669
Si      11.82114721       7.59551249       4.76088220
Si       2.98858183       4.79649626       6.22018381
Si       4.57710678       3.87110023       5.16620363
Si      10.23262225       8.52090852       5.81486238
Si       7.40388214       8.04294946       2.12952306
Si       7.40584690       4.34905929       8.85154295
16
Lattice="8.592772248789352 1.378224277694771 0.04647897658808377 3.1750927418575925 7.439246347358457 1.0649441437861082 3.0392665498926945 3.583148719953069 9.854302845008759" Properties=species:S:1:pos:R:3 unique_starting_index=30 config_type=initial n_minim_iter=4 stress="-0.0004984487650464218 -0.005056636642930418 0.0007105868393939689 -0.005056636642930418 0.0026576827084459046 -0.005850914198229578 0.0007105868393939689 -0.005850914198229578 -0.008142351490556756" pbc="T T T"
Si       8.30018224       7.65496635       5.77244660
Si       6.50694930       4.74565299       5.19327936
Si       5.02049673       5.52082380       3.89828266
Si       9.78663481       6.87979555       7.06744331
Si       8.24496664       6.22690332       8.34430152
Si       6.56216490       6.17371602       2.62142444
Si       6.55399914       5.21135446       0.73731972
Si       8.25313240       7.18926488      10.22840624
Si       4.84342493       5.79539084       5.99424736
Si       9.96370661       6.60522850       4.97147860
Si      11.81570456       7.60227881       4.75449237
Si       2.99142698       4.79834054       6.21123360
Si       4.57806609       3.87180542       5.15788751
Si      10.22906545       8.52881392       5.80783846
Si       7.39812624       8.05405164       2.12442470
Si       7.40900530       4.34656770       8.84130126
16
Lattice="8.579572393929775 1.3881628981027039 0.05757133987007301 3.1784551537390877 7.449022277311275 1.0830177372858834 3.047544212650258 3.6064872807140156 9.876614651994684" Properties=species:S:1:pos:R:3 unique_starting_index=30 config_type=initial n_minim_iter=5 stress="-0.0013944968626871197 0.0006764074822134607 -8.257268395766682e-05 0.0006764074822134607 0.014839164038632693 0.0018158405670475836 -8.257268395766682e-05 0.0018158405670475836 0.0018607107958297662" pbc="T T T"
Si       8.29869436       7.67669404       5.80636705
Si       6.50687740       4.76697842       5.21083668
Si       5.01963242       5.53732214       3.91738156
Si       9.78593934       6.90635032       7.09982217
Si       8.24540385       6.25741240       8.37415601
Si       6.56016791       6.18626005       2.64304772
Si       6.55190507       5.22496490       0.75463630
Si       8.25366669       7.21870755      10.26256743
Si       4.84658620       5.81422690       6.01857665
Si       9.95898556       6.62944556       4.99862708
Si      11.80830989       7.62859105       4.78127244
Si       2.99726187       4.81508140       6.23593129
Si       4.57919171       3.88803717       5.17493158
Si      10.22638005       8.55563529       5.84227215
Si       7.39425867       8.07140323       2.14692250
Si       7.41131309       4.37226923       8.87028123
16
Lattice="8.589406576600732 1.3894071860617734 0.06488646333415442 3.1892074662084995 7.417495451458215 1.090447611369706 3.0613254340461937 3.59757543345417 9.89064166430567" Properties=species:S:1:pos:R:3 unique_starting_index=30 config_type=initial n_minim_iter=6 stress="0.009171390209471605 -0.004064180247640104 0.005968506153900589 -0.004064180247640104 -0.001023031408367608 0.002907279096165549 0.005968506153900589 0.002907279096165549 0.0030767095285192704" pbc="T T T"
Si       8.31659619       7.64805215       5.82851553
Si       6.52334329       4.75642592       5.21746021
Si       5.02976529       5.51928568       3.92678578
Si       9.81017418       6.88519239       7.11918996
Si       8.26491718       6.24329899       8.39140783
Si       6.57502230       6.16117908       2.65456791
Si       6.56721595       5.20883600       0.76322031
Si       8.27272353       7.19564207      10.28275543
Si       4.86108764       5.79293110       6.03208163
Si       9.97885183       6.61154697       5.01389411
Si      11.83121100       7.60722024       4.79210625
Si       3.00872848       4.79725783       6.25386949
Si       4.59065693       3.87667711       5.18436312
Si      10.24928255       8.52780096       5.86161262
Si       7.40779983       8.04189100       2.15596562
Si       7.43213965       4.36258707       8.89001012
16
Lattice="8.573815139307085 1.396988760927758 0.0389993031963836 3.190026489173937 7.39770907109733 1.076724885173671 3.0315064435791994 3.5840494211728555 9.88314475990423" Properties=species:S:1:pos:R:3 unique_starting_index=30 config_type=initial n_minim_iter=7 stress="0.000811832631382305 -0.0015383230492548889 -0.0029418092129593226 -0.0015383230492548889 -0.0023275635732296837 0.0017082992469088236 -0.0029418092129593226 0.0017082992469088236 -0.002257000254575358" pbc="T T T"
Si       8.29210776       7.62863265       5.80763108
Si       6.50324031       4.75011461       5.19123786
Si       5.01329747       5.50838847       3.90871190
Si       9.78205060       6.87035878       7.09015704
Si       8.23181181       6.23271994       8.36525593
Si       6.56353626       6.14602731       2.63361302
Si       6.56158580       5.20159240       0.74018395
Si       8.23376227       7.17715485      10.25868500
Si       4.84112466       5.77632739       6.01579725
Si       9.95422341       6.60241986       4.98307170
Si      11.80540020       7.59784475       4.74885124
Si       2.98994787       4.78090250       6.25001771
Si       4.57095574       3.86703801       5.16999813
Si      10.22439234       8.51170925       5.82887082
Si       7.39503762       8.02587431       2.12716806
Si       7.40031045       4.35287294       8.87170089
16
Lattice="8.566814484470195 1.3958294452892706 0.03697996032346348 3.1868787374384233 7.393491672209736 1.0722793476479824 3.027588253461897 3.5754802397014065 9.890230896969031" Properties=species:S:1:pos:R:3 unique_starting_index=30 config_type=initial n_minim_iter=8 stress="-0.0008239563268368866 0.0008028375878416259 -0.0017682502719703619 0.0008028375878416259 0.0024335218198507317 -0.0020187060138032137 -0.0017682502719703619 -0.0020187060138032137 0.00440865698494744" pbc="T T T"
Si       8.28353712       7.61953226       5.81009223
Si       6.49774436       4.74526910       5.18939798
Si       5.00724106       5.50436442       3.90750375
Si       9.77404041       6.86043694       7.09198645
Si       8.22329998       6.22494611       8.36722456
Si       6.55798149       6.13985525       2.63226564
Si       6.55659306       5.19775781       0.73548548
Si       8.22468842       7.16704354      10.26400472
Si       4.83596657       5.76896830       6.01668497
Si       9.94531491       6.59583306       4.98280523
Si      11.79459695       7.59143349       4.74468606
Si       2.98668453       4.77336787       6.25480415
Si       4.56551541       3.86140195       5.17233135
Si      10.21576607       8.50339941       5.82715885
Si       7.38687073       8.02059263       2.12160607
Si       7.39441074       4.34420873       8.87788413
16
Lattice="8.571667241938659 1.3920205811226045 0.03439708641275789 3.1850856152133686 7.393246486597364 1.0782149610643124 3.0227509397103733 3.5886112669663377 9.862383500445318" Properties=species:S:1:pos:R:3 unique_starting_index=30 config_type=initial n_minim_iter=9 stress="0.0012497908640623407 0.0019285754110227947 -0.002732694839089718 0.0019285754110227947 0.008519466781312709 -0.004313683119101759 -0.002732694839089718 -0.004313683119101759 0.0032775284209534566" pbc="T T T"
Si       8.28008561       7.62002064       5.80912522
Si       6.49941819       4.75385770       5.16587033
Si       5.00170997       5.51214689       3.89943968
Si       9.77779382       6.86173145       7.07555586
Si       8.21974507       6.23771463       8.34138682
Si       6.55975873       6.13616370       2.63360872
Si       6.55996782       5.19248676       0.73353649
Si       8.21953597       7.18139157      10.24145906
Si       4.83317664       5.77543986       6.00002536
Si       9.94632716       6.59843847       4.97497019
Si      11.79554771       7.59636285       4.72848062
Si       2.98395608       4.77751548       6.24651493
Si       4.56063274       3.86712281       5.16010954
Si      10.21887106       8.50675553       5.81488601
Si       7.38150924       8.02053434       2.11888678
Si       7.39799456       4.35334400       8.85610877
16
Lattice="8.59130207968465 1.3874565993488868 0.03566901323961121 3.1904321231811927 7.381442507406889 1.0994965757892186 3.024806492449849 3.616844256728192 9.832200908975938" Properties=species:S:1:pos:R:3 unique_starting_index=30 config_type=initial n_minim_iter=10 stress="-0.0010257485948990453 0.0005472014388001018 0.001028771067627682 0.0005472014388001018 -0.0006657732873283393 0.002250176300032131 0.001028771067627682 0.002250176300032131 -0.011835977356171153" pbc="T T T"
Si       8.29433964       7.61877092       5.82356863
Si       6.51220105       4.76697245       5.14379787
Si       5.00467936       5.52285359       3.89455354
Si       9.80186134       6.86288978       7.07281296
Si       8.23076063       6.26054718       8.32164757
Si       6.57578006       6.12519618       2.64571892
Si       6.57598582       5.17862765       0.74300801
Si       8.23055488       7.20711572      10.22435848
Si       4.84202631       5.78579540       5.98990109
Si       9.96451439       6.59994797       4.97746541
Si      11.81664729       7.59511132       4.73119426
Si       2.98989341       4.79063204       6.23617224
Si       4.56358974       3.87614590       5.15387947
Si      10.24295096       8.50959747       5.81348703
Si       7.38731861       8.01008174       2.13234073
Si       7.41922209       4.37566163       8.83502577
16
Lattice="8.63817217042018 1.3714878852373922 -0.016583998013714272 3.196601593678319 7.32533083857454 1.1286866401066031 2.9679363446227227 3.6597793461365646 9.80297018285196" Properties=species:S:1:pos:R:3 unique_starting_index=30 config_type=initial n_minim_iter=11 stress="0.00979541865166118 0.005101502159514043 -0.005626145266321661 0.005101502159514043 0.0022627522942368482 -0.006712039942887362 -0.005626145266321661 -0.006712039942887362 0.0002727340793926368" pbc="T T T"
Si       8.31176871       7.56923345       5.87277709
Si       6.49094140       4.78736462       5.04229574
Si       4.96692121       5.52972864       3.85286405
Si       9.83578890       6.82686943       7.06220877
Si       8.19443871       6.31400383       8.27790266
Si       6.60827140       6.04259424       2.63717017
Si       6.61358462       5.11704602       0.72972699
Si       8.18912549       7.23955205      10.18534583
Si       4.83878596       5.78951508       5.96231941
Si       9.96392415       6.56708299       4.95275342
Si      11.83052939       7.57278927       4.67873547
Si       2.97218072       4.78380880       6.23633736
Si       4.54060454       3.89432475       5.13702145
Si      10.26210557       8.46227332       5.77805137
Si       7.36209028       7.95470300       2.12516820
Si       7.44061983       4.40189507       8.78990462
16
Lattice="8.683610904400021 1.3586221516061845 -0.027531909651557773 3.209139677609063 7.272903265476084 1.2211112317768722 2.948491424345364 3.7669110490807904 9.829917499188745" Properties=species:S:1:pos:R:3 unique_starting_index=30 config_type=initial n_minim_iter=12 stress="0.021881711046056292 0.006421749389792754 -0.01238055269508339 0.006421749389792754 0.0014703104731254469 -0.00711768448310159 -0.01238055269508339 -0.00711768448310159 0.022672329431515353" pbc="T T T"
Si       8.36167044       7.54329488       6.04852200
Si       6.47957156       4.85514159       4.97497482
Si       4.91755000       5.57853928       3.86322375
Si       9.92369201       6.81989719       7.16027307
Si       8.17772895       6.44086306       8.32008662
Si       6.66351305       5.95757340       2.70341020
Si       6.66847115       5.05628067       0.77497376
Si       8.17277086       7.34215580      10.24852306
Si       4.85883395       5.82357769       5.98013056
Si       9.98240806       6.57485878       5.04336626
Si      11.85922597       7.57892745       4.72250347
Si       2.98201603       4.81950902       6.30099335
Si       4.53883584       3.94907149       5.17265317
Si      10.30240617       8.44936497       5.85084365
Si       7.31638167       7.90668636       2.20858474
Si       7.52486034       4.49175011       8.81491209
16
Lattice="8.703075673811767 1.34642978341678 -0.0007290681573759705 3.21407218943319 7.240710169733014 1.2960524138355405 2.9685156593180624 3.8435952403559743 9.835039279312037" Properties=species:S:1:pos:R:3 unique_starting_index=30 config_type=initial n_minim_iter=13 stress="0.013066574776129578 0.0041673320308549195 -0.005258215192808586 0.0041673320308549195 -0.003245114393806382 -0.003990460623086524 -0.005258215192808586 -0.003990460623086524 0.022903080457558463" pbc="T T T"
Si       8.40305944       7.52884784       6.18429636
Si       6.48260408       4.90188735       4.94606627
Si       4.89744935       5.61198947       3.87384447
Si       9.98821417       6.81874573       7.25651816
Si       8.19328944       6.52962784       8.35750184
Si       6.69237408       5.90110735       2.77286079
Si       6.69657852       5.01424574       0.83319608
Si       8.18908501       7.41648946      10.29716654
Si       4.88524782       5.84877615       5.99688701
Si      10.00041570       6.58195905       5.13347562
Si      11.88489054       7.58328291       4.78697114
Si       3.00077298       4.84745228       6.34339148
Si       4.55215444       3.98668334       5.19885082
Si      10.33350908       8.44405185       5.93151181
Si       7.27972366       7.87589685       2.29257183
Si       7.60593987       4.55483834       8.83779080
16
Lattice="8.767303865445308 1.360378266833407 0.04205340922404305 3.2487732259942805 7.279122261490456 1.3571928319271263 3.0325611802957324 3.926264168334291 9.86121726994378" Properties=species:S:1:pos:R:3 unique_starting_index=30 config_type=initial n_minim_iter=14 stress="0.0230762399479858 0.008151209930977251 -0.014741972009818851 0.008151209930977251 0.011445020701040667 -0.0010129442341856002 -0.014741972009818851 -0.0010129442341856002 0.042643205050972056" pbc="T T T"
Si       8.51399961       7.57497936       6.32795657
Si       6.53463866       4.99078534       4.93250694
Si       4.91815364       5.67957859       3.87699992
Si      10.13048464       6.88618611       7.38346359
Si       8.28243943       6.66035140       8.41281286
Si       6.76619884       5.90541330       2.84765066
Si       6.77176816       5.02774404       0.90105744
Si       8.27687011       7.53802066      10.35940607
Si       4.93591228       5.91261760       6.00781804
Si      10.11272599       6.65314710       5.25264547
Si      11.98118842       7.65776198       4.87798465
Si       3.06744985       4.90800272       6.38247886
Si       4.60697128       4.06535814       5.21746951
Si      10.44166699       8.50040656       6.04299400
Si       7.28520572       7.91835051       2.38356705
Si       7.76343255       4.64741419       8.87689646
16
Lattice="8.7753293892783 1.376557938679627 0.10838272967160992 3.264257461763976 7.33790948576992 1.3836234024747491 3.111821565286829 3.9667323983107363 9.828233595579254" Properties=species:S:1:pos:R:3 unique_starting_index=30 config_type=initial n_minim_iter=15 stress="0.005083746614011648 0.013462052229546145 0.005836699669007298 0.013462052229546145 0.015618629690413157 -0.0034210987150363075 0.005836699669007298 -0.0034210987150363075 0.022590110931387714" pbc="T T T"
Si       8.58782394       7.62314633       6.39040645
Si       6.56358447       5.05805349       4.92983328
Si       4.93681389       5.73278752       3.86337992
Si      10.21459452       6.94841230       7.45685981
Si       8.35063337       6.73241600       8.42378422
Si       6.80077504       5.94878382       2.89645551
Si       6.79459478       5.05960922       0.95989416
Si       8.35681364       7.62159060      10.36034557
Si       4.97870847       5.96453806       5.99225207
Si      10.17269994       6.71666176       5.32798765
Si      12.02310195       7.72347578       4.94136953
Si       3.12830646       4.95772404       6.37887020
Si       4.65779270       4.10910461       5.19874769
Si      10.49361572       8.57209522       6.12149203
Si       7.28350601       7.97098827       2.42695601
Si       7.86790240       4.71021155       8.89328372
16
Lattice="8.80041593141215 1.3892742458703724 0.1261439119616376 3.2827971757863152 7.361602486615034 1.4079616969775917 3.1385908848016153 4.016700271807447 9.758077411202722" Properties=species:S:1:pos:R:3 unique_starting_index=30 config_type=initial n_minim_iter=16 stress="0.012370343559183304 0.013858338067339123 0.005875392005257444 0.013858338067339123 0.016234826308239206 -0.0038177072361368796 0.005875392005257444 -0.0038177072361368796 0.01905781271715854" pbc="T T T"
Si       8.64274529       7.64687737       6.42753878
Si       6.57905870       5.12069964       4.86464424
Si       4.93282403       5.77771174       3.81883602
Si      10.28897996       6.98986527       7.47334700
Si       8.38072138       6.80800122       8.37758529
Si       6.84108262       5.95957578       2.91459773
Si       6.83121720       5.06637466       0.98945160
Si       8.39058679       7.70120235      10.30273142
Si       4.99922751       6.00848040       5.94729476
Si      10.22257649       6.75909661       5.34488826
Si      12.05073289       7.77124695       4.93466353
Si       3.17107110       4.99633006       6.35751949
Si       4.68044799       4.14608172       5.15104939
Si      10.54135601       8.62149529       6.14113363
Si       7.27207991       7.98994262       2.44502171
Si       7.94972408       4.77763438       8.84716131
16
Lattice="8.773650396977407 1.4009948738571922 0.10873372863308088 3.2783137359973864 7.378360299735794 1.3557319995682284 3.1210322759619444 3.9771253688838724 9.646996915411505" Properties=species:S:1:pos:R:3 unique_starting_index=30 config_type=initial n_minim_iter=17 stress="-0.013840907134121502 0.005661571383266236 0.008603724221874807 0.005661571383266236 0.0023914543582678406 -0.0031280249382652533 0.008603724221874807 -0.0031280249382652533 0.0004997091726039012" pbc="T T T"
Si       8.61115618       7.64032456       6.32309769
Si       6.56184022       5.11615598       4.78836496
Si       4.91266068       5.77211335       3.73402965
Si      10.26033573       6.98436719       7.37743299
Si       8.35306545       6.76205019       8.25277450
Si       6.81993096       5.99443035       2.85868815
Si       6.81258147       5.08381525       0.95466774
Si       8.36041493       7.67266529      10.15679490
Si       4.96723183       6.01133906       5.85637163
Si      10.20576458       6.74514149       5.25509102
Si      11.99165716       7.77335292       4.83134729
Si       3.18133925       4.98312762       6.28011535
Si       4.66466555       4.11975792       5.04227756
Si      10.50833086       8.63672262       6.06918509
Si       7.24994423       7.99219017       2.37763630
Si       7.92305218       4.76429037       8.73382635
16
Lattice="8.781733244523432 1.4027187037656512 0.07351401093834597 3.277161123918708 7.387762523443129 1.302361403515016 3.090964120561642 3.939053517704777 9.537208729237761" Properties=species:S:1:pos:R:3 unique_starting_index=30 config_type=initial n_minim_iter=18 stress="0.00984477701431979 -0.003361674639044687 0.0014201294231786226 -0.003361674639044687 -0.0009722305738933911 0.00554163279779428 0.0014201294231786226 0.00554163279779428 -0.011442926249663731" pbc="T T T"
Si       8.60213731       7.62660546       6.21466438
Si       6.54772117       5.10292928       4.69841976
Si       4.88988874       5.76602932       3.65099739
Si      10.25996975       6.96350543       7.26208676
Si       8.33253268       6.72623205       8.11558942
Si       6.81732581       6.00330270       2.79749472
Si       6.81522376       5.08573953       0.89832164
Si       8.33463472       7.64379522      10.01476250
Si       4.95743267       6.00693036       5.75836811
Si      10.19242582       6.72260439       5.15471604
Si      11.96938846       7.76144010       4.71554787
Si       3.18047003       4.96809465       6.19753627
Si       4.65853882       4.10326964       4.94127705
Si      10.49131966       8.62626510       5.97180709
Si       7.24392451       7.99969078       2.29825993
Si       7.90593398       4.72984396       8.61482421
16
Lattice="8.775644763509577 1.3994086879511651 0.04202254105275994 3.2704762152255213 7.375098085658652 1.2440574303828928 3.062393299559751 3.872638377260435 9.484388497625465" Properties=species:S:1:pos:R:3 unique_starting_index=30 config_type=initial n_minim_iter=19 stress="0.017452406500916652 -0.005348057566836706 -0.004259126184274163 -0.005348057566836706 -0.0008240206600901998 -0.0003311315321228878 -0.004259126184274163 -0.0003311315321228878 -0.0027084816744636308" pbc="T T T"
Si       8.57260269       7.59437235       6.11965365
Si       6.53591159       5.05277280       4.65081482
Si       4.86633871       5.73201405       3.59207558
Si      10.24217557       6.91513110       7.17839289
Si       8.30754071       6.64630433       8.02966849
Si       6.80097356       6.00084082       2.74079997
Si       6.80542372       5.07896478       0.83837389
Si       8.30309056       7.56818038       9.93209458
Si       4.93998955       5.98131926       5.69778334
Si      10.16852473       6.66582589       5.07268513
Si      11.94058904       7.72431132       4.63206328
Si       3.16792523       4.92283383       6.13840519
Si       4.64625417       4.06999534       4.87748404
Si      10.46226011       8.57714982       5.89298443
Si       7.24030530       7.98674119       2.22056655
Si       7.86820898       4.66040396       8.54990192
16
Lattice="8.773283675900837 1.391330731251683 0.02892333197871158 3.266169088605295 7.344523664948201 1.2065139012608181 3.052366937577823 3.817714856843587 9.434500534174122" Properties=species:S:1:pos:R:3 unique_starting_index=30 config_type=initial n_minim_iter=20 stress="0.013933817787260903 -0.0025943842084428866 -0.002202938412429616 -0.0025943842084428866 -0.0020142222560834613 0.007354311064392487 -0.002202938412429616 0.007354311064392487 0.006563401183400314" pbc="T T T"
Si       8.56495893       7.54209983       6.08430039
Si       6.52686077       5.01146943       4.58563737
Si       4.83477897       5.70244959       3.52418647
Si      10.25704073       6.85111967       7.14575130
Si       8.29942840       6.57948409       7.95552421
Si       6.79239130       5.97408516       2.71441356
Si       6.81143852       5.05518964       0.79803132
Si       8.28038118       7.49837961       9.87190644
Si       4.93415280       5.95753823       5.63536673
Si      10.15766691       6.59603103       5.03457104
Si      11.92266654       7.68012475       4.57958738
Si       3.16915317       4.87344450       6.09035038
Si       4.64577711       4.04666312       4.81699075
Si      10.44604259       8.50690613       5.85294702
Si       7.21575050       7.95175067       2.16615565
Si       7.87606920       4.60181858       8.50378212
16
Lattice="8.76454280410687 1.386930947413462 0.007869340583206274 3.25834924573043 7.334035488285546 1.1783321582452662 3.0287474340297846 3.784733366188659 9.41670787395809" Properties=species:S:1:pos:R:3 unique_starting_index=30 config_type=initial n_minim_iter=21 stress="0.00014324500054652345 -0.006599661682315934 -0.001482721721434487 -0.006599661682315934 -0.0024382967160498097 0.005706041930328674 -0.001482721721434487 0.005706041930328674 0.005721543211963686" pbc="T T T"
Si       8.54409155       7.51681764       6.04572515
Si       6.50754793       4.98888216       4.55718422
Si       4.82736086       5.68622653       3.49560830
Si      10.22427862       6.81947327       7.10730107
Si       8.28381582       6.53987917       7.91938195
Si       6.76782366       5.96582063       2.68352742
Si       6.80370983       5.04968731       0.76501629
Si       8.24792965       7.45601249       9.83789308
Si       4.92029869       5.93759171       5.60297986
Si      10.13134079       6.56810809       4.99992952
Si      11.89295410       7.65501131       4.53489684
Si       3.15868538       4.85068849       6.06801253
Si       4.63298090       4.02770018       4.78702006
Si      10.41865858       8.47799962       5.81588932
Si       7.19868481       7.94037379       2.13019239
Si       7.85295468       4.56532601       8.47271699
