24
Lattice="8.76881619712679 -1.0066709908257164e-12 -4.5108004484817305e-14 4.3844080985642675 7.594017587827752 2.3607793452932096e-14 4.384408098563782 2.531339195942134 18.293675973298377" Properties=species:S:1:pos:R:3 unique_starting_index=24 config_type=initial n_minim_iter=1 energy=-3925.5084554403793 free_energy=-3925.5084554403793 pbc="T T T"
Si       8.72809756       3.86504698      19.47566310
Si       9.82635387       5.62623073      19.47566310
Si       7.75199585       5.69675672      19.47566310
Si       9.98366978       5.19218262      13.55593530
Si       8.04923458       6.05002035      13.55593530
Si       8.27354292       3.94583145      13.55593530
Si      10.47673677       4.04555684       2.33439707
Si       8.79570814       7.05034177       2.33439707
Si       7.03400237       4.09213581       2.33439707
Si       8.76326609       6.89882984       4.43534408
Si       7.18143658       4.13979613       4.43534408
Si      10.36174461       4.14940845       4.43534408
Si       9.72281778       7.15215966      14.23373987
Si       6.48227067       4.84412737      14.23373987
Si      10.10135883       3.19174739      14.23373987
Si      11.80693809       4.37238110      14.25602885
Si       7.84756937       8.03891777      14.25602885
Si       6.65193982       2.77673555      14.25602885
Si       9.50050213       9.14560574      13.55200419
Si       4.86705355       3.65487332      13.55200419
Si      11.93889160       2.38755536      13.55200419
Si       4.37310272       1.33627872       3.30154972
Si       5.42501265       3.11907870       3.30154972
Si       3.35510761       3.13865942       3.30154972
24
Lattice="8.766161316139103 -1.0057500391899912e-12 -4.524589548360284e-14 4.383080658070427 7.591718393448391 2.3461578169254063e-14 4.383080658069939 2.530572797815681 18.294565754908998" Properties=species:S:1:pos:R:3 unique_starting_index=24 config_type=initial n_minim_iter=2 stress="-0.00010426323862137417 8.857108498468075e-16 4.96063731408075e-17 8.857108498468075e-16 -0.00010426323862168348 -2.1848689346576246e-16 4.96063731408075e-17 -2.1848689346576246e-16 -0.000346720479342687" pbc="T T T"
Si       8.72545862       3.86387957      19.47661635
Si       9.82337458       5.62452905      19.47661635
Si       7.74964943       5.69502742      19.47661635
Si       9.98066522       5.19062186      13.55660127
Si       8.04677876       6.04819870      13.55660127
Si       8.27103866       3.94461548      13.55660127
Si      10.47358122       4.04433874       2.33450452
Si       8.79303106       7.04821804       2.33450452
Si       7.03187036       4.09087926       2.33450452
Si       8.76061115       6.89675227       4.43555694
Si       7.17925351       4.13853568       4.43555694
Si      10.35861797       4.14814808       4.43555694
Si       9.71984990       7.14998466      14.23442565
Si       6.48032845       4.84264460      14.23442565
Si      10.09830428       3.19080677      14.23442565
Si      11.80336757       4.37105588      14.25672242
Si       7.84519254       8.03648823      14.25672242
Si       6.64992252       2.77589193      14.25672242
Si       9.49759714       9.14288380      13.55265928
Si       4.86555356       3.65371850      13.55265928
Si      11.93533194       2.38683373      13.55265928
Si       4.37177712       1.33587738       3.30171709
Si       5.42336813       3.11813136       3.30171709
Si       3.35409541       3.13770890       3.30171709
24
Lattice="8.766079815645142 -1.009163252121212e-12 -4.520873112308785e-14 4.383039907823449 7.591647811950196 2.3511595763352276e-14 4.383039907822959 2.5305492706496153 18.303717506517952" Properties=species:S:1:pos:R:3 unique_starting_index=24 config_type=initial n_minim_iter=3 stress="2.5059907220935103e-05 7.405929050053862e-16 -8.819121221872028e-16 7.405929050053862e-16 2.505990722137843e-05 -1.0317533302148755e-16 -8.819121221872028e-16 -1.0317533302148755e-16 0.0007367829184526475" pbc="T T T"
Si       8.72540322       3.86383934      19.48641426
Si       9.82327412       5.62450118      19.48641426
Si       7.74956079       5.69495435      19.48641426
Si       9.98063316       5.19070164      13.56338485
Si       8.04656270       6.04813104      13.56338485
Si       8.27104228       3.94446219      13.56338485
Si      10.47359898       4.04435352       2.33562458
Si       8.79284638       7.04822603       2.33562458
Si       7.03179278       4.09071532       2.33562458
Si       8.76051704       6.89676737       4.43775843
Si       7.17912449       4.13844662       4.43775843
Si      10.35859661       4.14808088       4.43775843
Si       9.71961439       7.14977056      14.24153850
Si       6.48046863       4.84254770      14.24153850
Si      10.09815512       3.19097662      14.24153850
Si      11.80338461       4.37098696      14.26390273
Si       7.84508070       8.03653744      14.26390273
Si       6.64977282       2.77577046      14.26390273
Si       9.49743245       9.14304218      13.55936801
Si       4.86533574       3.65349669      13.55936801
Si      11.93546995       2.38675600      13.55936801
Si       4.37172396       1.33587136       3.30340737
Si       5.42331843       3.11808833       3.30340737
Si       3.35407602       3.13768737       3.30340737
24
Lattice="8.766134045070348 -1.0132041009509367e-12 -4.521826162124515e-14 4.383067022536056 7.591694776010056 2.3503492298184632e-14 4.383067022535562 2.5305649253362335 18.30100158900331" Properties=species:S:1:pos:R:3 unique_starting_index=24 config_type=initial n_minim_iter=4 stress="8.307299200897386e-05 1.1936056377375707e-15 -6.133021789138823e-16 1.1936056377375707e-15 8.307299200796458e-05 -2.227869389514757e-16 -6.133021789138823e-16 -2.227869389514757e-16 3.0011017917967133e-05" pbc="T T T"
Si       8.72554305       3.86384032      19.48394269
Si       9.82331181       5.62462179      19.48394269
Si       7.74954596       5.69492669      19.48394269
Si       9.98092628       5.19112727      13.56139004
Si       8.04615598       6.04817208      13.56139004
Si       8.27131856       3.94408945      13.56139004
Si      10.47404332       4.04454470       2.33514886
Si       8.79256710       7.04851525       2.33514886
Si       7.03179040       4.09032885       2.33514886
Si       8.76053068       6.89707111       4.43701305
Si       7.17896308       4.13830657       4.43701305
Si      10.35890706       4.14801112       4.43701305
Si       9.71919608       7.14943150      14.23936947
Si       6.48107988       4.84235496      14.23936947
Si      10.09812487       3.19160234      14.23936947
Si      11.80382936       4.37093846      14.26193022
Si       7.84500879       8.03694686      14.26193022
Si       6.64956267       2.77550348      14.26193022
Si       9.49737057       9.14362732      13.55715689
Si       4.86496839       3.65315052      13.55715689
Si      11.93606187       2.38661095      13.55715689
Si       4.37170728       1.33589057       3.30280676
Si       5.42336436       3.11806428       3.30280676
Si       3.35412811       3.13773918       3.30280676
24
Lattice="8.7648721223 -1.0256970915107198e-12 -4.519755162672365e-14 4.382436061150893 7.590601918833313 2.3476690331707678e-14 4.3824360611503925 2.530200639610649 18.31296435482808" Properties=species:S:1:pos:R:3 unique_starting_index=24 config_type=initial n_minim_iter=5 stress="0.0007142447203729245 1.011423861183864e-15 -8.412509650389145e-16 1.011423861183864e-15 0.0007142447203754438 2.41841427774402e-16 -8.412509650389145e-16 2.41841427774402e-16 -2.088267013643393e-05" pbc="T T T"
Si       8.72461779       3.86325825      19.49798363
Si       9.82175469       5.62411152      19.49798363
Si       7.74824258       5.69383332      19.49798363
Si       9.98066494       5.19169503      13.57041208
Si       8.04327111       6.04766187      13.57041208
Si       8.27067900       3.94184618      13.57041208
Si      10.47392806       4.04466901       2.33622401
Si       8.78999323       7.04835328       2.33622401
Si       7.03069376       4.08818080       2.33622401
Si       8.75911149       6.89710453       4.43954383
Si       7.17711989       4.13706080       4.43954383
Si      10.35838368       4.14703775       4.43954383
Si       9.71582860       7.14791539      14.24817742
Si       6.48155276       4.84019669      14.24817742
Si      10.09723369       3.19309100      14.24817742
Si      11.80316986       4.37017783      14.27170784
Si       7.84347343       8.03675603      14.27170784
Si       6.64797177       2.77426923      14.27170784
Si       9.49656964       9.14201622      13.56553491
Si       4.86424027       3.65326245      13.56553491
Si      11.93380515       2.38592442      13.56553491
Si       4.37090842       1.33573812       3.30485281
Si       5.42263389       3.11744867       3.30485281
Si       3.35376456       3.13741437       3.30485281
24
Lattice="8.763238685596312 -1.0361351489676904e-12 -4.5147708923428684e-14 4.381619342799057 7.589187321152439 2.3470045522138196e-14 4.381619342798554 2.529729107050353 18.321737323208833" Properties=species:S:1:pos:R:3 unique_starting_index=24 config_type=initial n_minim_iter=6 stress="0.00010300356064736531 9.903147620141171e-16 -6.676811644161791e-16 9.903147620141171e-16 0.00010300356065019931 -8.11458576731781e-16 -6.676811644161791e-16 -8.11458576731781e-16 -4.893888869221445e-05" pbc="T T T"
Si       8.72323904       3.86254676      19.50828565
Si       9.81979336       5.62327323      19.50828565
Si       7.74668235       5.69255390      19.50828565
Si       9.97833162       5.19145919      13.57701716
Si       8.04137515       6.04575907      13.57701716
Si       8.27000798       3.94115563      13.57701716
Si      10.47290519       4.04453114       2.33711248
Si       8.78735718       7.04753638       2.33711248
Si       7.02945237       4.08630637       2.33711248
Si       8.75736072       6.89660832       4.44130665
Si       7.17515813       4.13579270       4.44130665
Si      10.35719589       4.14597287       4.44130665
Si       9.71262624       7.14628715      14.25467265
Si       6.48129717       4.83823749      14.25467265
Si      10.09579134       3.19384925      14.25467265
Si      11.80160111       4.36940258      14.27887858
Si       7.84166231       8.03578508      14.27887858
Si       6.64645133       2.77318624      14.27887858
Si       9.49520694       9.13996130      13.57163076
Si       4.86343435       3.65310978      13.57163076
Si      11.93107345       2.38530281      13.57163076
Si       4.36995989       1.33547499       3.30636483
Si       5.42170260       3.11675879       3.30636483
Si       3.35319422       3.13695279       3.30636483
24
Lattice="8.763378250140505 -1.0583321251124847e-12 -4.509110779532953e-14 4.381689125071174 7.589308187593165 2.340438417262839e-14 4.381689125070656 2.5297693958639225 18.344663955508306" Properties=species:S:1:pos:R:3 unique_starting_index=24 config_type=initial n_minim_iter=7 stress="-0.000436689131341676 1.0934190659882328e-15 -8.127845453900546e-16 1.0934190659882328e-15 -0.000436689131340552 -9.616555167579597e-16 -8.127845453900546e-16 -9.616555167579597e-16 -0.0002078636514361011" pbc="T T T"
Si       8.72416793       3.86289247      19.53542986
Si       9.81930865       5.62390482      19.53542986
Si       7.74665686       5.69181833      19.53542986
Si       9.97825201       5.19196584      13.59510938
Si       8.04125531       6.04543681      13.59510938
Si       8.27062612       3.94121298      13.59510938
Si      10.47524909       4.04720144       2.34006066
Si       8.78415182       7.04823110       2.34006066
Si       7.03073253       4.08318308       2.34006066
Si       8.75711904       6.89940851       4.44507462
Si       7.17313307       4.13418330       4.44507462
Si      10.35988133       4.14502381       4.44507462
Si       9.70889119       7.14605634      14.27173378
Si       6.48364371       4.83511824      14.27173378
Si      10.09759855       3.19744104      14.27173378
Si      11.80062523       4.37148086      14.29684403
Si       7.84062954       8.03390080      14.29684403
Si       6.64887867       2.77323396      14.29684403
Si       9.49519627       9.13977115      13.58710545
Si       4.86388349       3.65319561      13.58710545
Si      11.93105368       2.38564885      13.58710545
Si       4.36955153       1.33524596       3.31061890
Si       5.42224469       3.11651965       3.31061890
Si       3.35326984       3.13754182       3.31061890
24
Lattice="8.765395948435451 -1.0850532916499574e-12 -4.509811421451529e-14 4.382697974218669 7.591055565573747 2.3385256149016955e-14 4.382697974218138 2.530351855190774 18.377228671766925" Properties=species:S:1:pos:R:3 unique_starting_index=24 config_type=initial n_minim_iter=8 stress="-0.0004148765156047081 9.000849751431502e-16 -7.238086873295196e-16 9.000849751431502e-16 -0.00041487651560505675 -6.088636549462818e-16 -7.238086873295196e-16 -6.088636549462818e-16 -0.00031386040051740034" pbc="T T T"
Si       8.72729840       3.86443600      19.57401655
Si       9.82044208       5.62584412      19.57401655
Si       7.74844606       5.69183026      19.57401655
Si       9.98032660       5.19430498      13.62010648
Si       8.04222765       6.04606389      13.62010648
Si       8.27363228       3.94174151      13.62010648
Si      10.47986591       4.05260293       2.34519979
Si       8.78120098       7.04952864       2.34519979
Si       7.03511964       4.07997880       2.34519979
Si       8.75859666       6.90503151       4.44966813
Si       7.17155999       4.13265146       4.44966813
Si      10.36602988       4.14442741       4.44966813
Si       9.70742878       7.14946025      14.29575276
Si       6.48546243       4.83214981      14.29575276
Si      10.10329532       3.20050032      14.29575276
Si      11.80417972       4.37505805      14.32202047
Si       7.83978975       8.03519049      14.32202047
Si       6.65221706       2.77186184      14.32202047
Si       9.49548593       9.14168736      13.61006441
Si       4.86611457       3.65248836      13.61006441
Si      11.93458603       2.38793465      13.61006441
Si       4.36979830       1.33562166       3.31671477
Si       5.42381364       3.11654551       3.31671477
Si       3.35448067       3.13888764       3.31671477
24
Lattice="8.765365081413156 -1.107391671464007e-12 -4.495074796049031e-14 4.382682540707542 7.591028833948293 2.3348406738448547e-14 4.382682540707 2.5303429446489485 18.420615045846436" Properties=species:S:1:pos:R:3 unique_starting_index=24 config_type=initial n_minim_iter=9 stress="0.00037743396076455303 2.1239804683347006e-15 -1.0855185590772568e-15 2.1239804683347006e-15 0.0003774339607654052 -7.26819168727963e-16 -1.0855185590772568e-15 -7.26819168727963e-16 6.257663731846567e-05" pbc="T T T"
Si       8.72838343       3.86469153      19.62475009
Si       9.81961653       5.62665602      19.62475009
Si       7.74809397       5.69070936      19.62475009
Si       9.98024901       5.19530116      13.65340909
Si       8.04134200       6.04549860      13.65340909
Si       8.27450292       3.94125715      13.65340909
Si      10.48193253       4.05735701       2.35213369
Si       8.77598878       7.04894135       2.35213369
Si       7.03817262       4.07575856       2.35213369
Si       8.75803188       6.90917798       4.45657229
Si       7.16818970       4.13008910       4.45657229
Si      10.36987236       4.14278983       4.45657229
Si       9.70536861       7.14925817      14.32864715
Si       6.48660579       4.83046669      14.32864715
Si      10.10411953       3.20233206      14.32864715
Si      11.80546612       4.37796227      14.35454467
Si       7.83656968       8.03485243      14.35454467
Si       6.65405813       2.76924221      14.35454467
Si       9.49474979       9.14114480      13.64104440
Si       4.86689077       3.65212212      13.64104440
Si      11.93445337       2.38878999      13.64104440
Si       4.36894219       1.33598508       3.32437616
Si       5.42389610       3.11562239       3.32437616
Si       3.35520802       3.13942061       3.32437616
24
Lattice="8.76454361839142 -1.1635133582980847e-12 -4.501406598775197e-14 4.382271809196724 7.590317426103173 2.3189599155750084e-14 4.382271809196151 2.5301058087005566 18.55871853202515" Properties=species:S:1:pos:R:3 unique_starting_index=24 config_type=initial n_minim_iter=10 stress="0.0012597306317368737 2.0558750595292846e-15 -9.873595693223202e-16 2.0558750595292846e-15 0.0012597306317359241 -1.991624748756899e-15 -9.873595693223202e-16 -1.991624748756899e-15 0.0011619182765040472" pbc="T T T"
Si       8.73070923       3.86393008      19.78580728
Si       9.81747014       5.62905094      19.78580728
Si       7.74545017       5.68765308      19.78580728
Si       9.97941423       5.19684378      13.75911207
Si       8.03878051       6.04400435      13.75911207
Si       8.27543480       3.93978596      13.75911207
Si      10.48659988       4.07127449       2.37498482
Si       8.75995929       7.04602465       2.37498482
Si       7.04707037       4.06333496       2.37498482
Si       8.75572049       6.92067129       4.47887779
Si       7.15774897       4.12234073       4.47887779
Si      10.38016008       4.13762208       4.47887779
Si       9.70197085       7.14645994      14.43476737
Si       6.48908508       4.82892325      14.43476737
Si      10.10257361       3.20525090      14.43476737
Si      11.80881505       4.38202766      14.45463360
Si       7.82973156       8.03571999      14.45463360
Si       6.65508293       2.76288644      14.45463360
Si       9.48891644       9.13661769      13.74187091
Si       4.87208512       3.64933385      13.74187091
Si      11.93262798       2.39468256      13.74187091
Si       4.36591891       1.33668976       3.34820182
Si       5.42397600       3.11265181       3.34820182
Si       3.35691921       3.14097510       3.34820182
24
Lattice="8.76313996824991 -1.1932588239809606e-12 -4.5172156501248917e-14 4.381569984125995 7.589101829422581 2.311423685921385e-14 4.381569984125402 2.5297006098070165 18.632006305832245" Properties=species:S:1:pos:R:3 unique_starting_index=24 config_type=initial n_minim_iter=11 stress="9.541443322095542e-05 3.640429671658451e-15 -1.3683474716178205e-15 3.640429671658451e-15 9.541443322300831e-05 2.616274631432711e-17 -1.3683474716178205e-15 2.616274631432711e-17 0.0005537730486277113" pbc="T T T"
Si       8.73072668       3.86272366      19.87045675
Si       9.81569890       5.62966927      19.87045675
Si       7.74299301       5.68580997      19.87045675
Si       9.97794634       5.19676570      13.81476851
Si       8.03677478       6.04277216      13.81476851
Si       8.27469748       3.93866505      13.81476851
Si      10.48938985       4.07614215       2.38794568
Si       8.75154149       7.04600701       2.38794568
Si       7.04848726       4.05605375       2.38794568
Si       8.75366625       6.92508982       4.49147528
Si       7.15214223       4.11835244       4.49147528
Si      10.38361011       4.13476064       4.49147528
Si       9.69981779       7.14460781      14.49156625
Si       6.48895831       4.82798472      14.49156625
Si      10.10064250       3.20561038      14.49156625
Si      11.80908038       4.38328038      14.50767606
Si       7.82570671       8.03532342      14.50767606
Si       6.65463150       2.75959911      14.50767606
Si       9.48582324       9.13378388      13.79566264
Si       4.87327857       3.64807196      13.79566264
Si      11.93031678       2.39634706      13.79566264
Si       4.36396675       1.33470456       3.35980940
Si       5.42526767       3.11195379       3.35980940
Si       3.35547423       3.14244273       3.35980940
24
Lattice="8.76370876994309 -1.1943918167220023e-12 -4.522996079977979e-14 4.381854384972587 7.58959442613859 2.2874031698086095e-14 4.381854384971993 2.529864808712352 18.671227313958564" Properties=species:S:1:pos:R:3 unique_starting_index=24 config_type=initial n_minim_iter=12 stress="-0.0001063197138971005 4.1105936545158395e-15 -1.8416117546139406e-15 4.1105936545158395e-15 -0.00010631971389679726 1.6824821952346779e-16 -1.8416117546139406e-15 1.6824821952346779e-16 1.406881162877129e-05" pbc="T T T"
Si       8.73130885       3.86167686      19.91519963
Si       9.81745198       5.63069685      19.91519963
Si       7.74236416       5.68681439      19.91519963
Si       9.97834304       5.19575894      13.84337027
Si       8.03858592       6.04361909      13.84337027
Si       8.27419605       3.93981007      13.84337027
Si      10.49113579       4.07653046       2.39408482
Si       8.75146983       7.04732488       2.39408482
Si       7.04851937       4.05533276       2.39408482
Si       8.75435351       6.92577359       4.50059851
Si       7.15234404       4.11860574       4.50059851
Si      10.38442745       4.13480877       4.50059851
Si       9.70190358       7.14701530      14.52347802
Si       6.48696806       4.82858732      14.52347802
Si      10.10225335       3.20358548      14.52347802
Si      11.80897838       4.38261563      14.53469510
Si       7.82747101       8.03556746      14.53469510
Si       6.65467561       2.76100501      14.53469510
Si       9.48837306       9.13566278      13.82608684
Si       4.87151409       3.64934072      13.82608684
Si      11.93123785       2.39418460      13.82608684
Si       4.36384077       1.33579203       3.36439458
Si       5.42495768       3.11130095       3.36439458
Si       3.35676340       3.14250069       3.36439458
24
Lattice="8.764309650065986 -1.2169137377718684e-12 -4.5116515450142685e-14 4.382154825034055 7.5901148035896355 2.2972757657691668e-14 4.38215482503345 2.5300382678626936 18.780575597433074" Properties=species:S:1:pos:R:3 unique_starting_index=24 config_type=initial n_minim_iter=13 stress="2.348843853995647e-05 4.602899530028098e-15 -1.4161674050221593e-15 4.602899530028098e-15 2.3488438540906273e-05 1.1783621856547335e-16 -1.4161674050221593e-15 1.1783621856547335e-16 -0.00036813257445437433" pbc="T T T"
Si       8.73296521       3.86227479      20.04089859
Si       9.81730774       5.63183232      20.04089859
Si       7.74265469       5.68612174      20.04089859
Si       9.97872490       5.19613729      13.92446532
Si       8.03926909       6.04376062      13.92446532
Si       8.27493366       3.94033095      13.92446532
Si      10.49488570       4.08185846       2.41346646
Si       8.74618246       7.04790840       2.41346646
Si       7.05185948       4.05046200       2.41346646
Si       8.75476750       6.93063803       4.52122860
Si       7.14912608       4.11653205       4.52122860
Si      10.38903406       4.13305877       4.52122860
Si       9.70273271       7.14914243      14.60978239
Si       6.48591311       4.82824180      14.60978239
Si      10.10428182       3.20284463      14.60978239
Si      11.80927174       4.38216664      14.61204816
Si       7.82891492       8.03604601      14.61204816
Si       6.65474098       2.76201620      14.61204816
Si       9.49107745       9.13734800      13.90893101
Si       4.86990421       3.65084018      13.90893101
Si      11.93194598       2.39204068      13.90893101
Si       4.36245753       1.33673469       3.38002938
Si       5.42543381       3.10963170       3.38002938
Si       3.35857183       3.14374766       3.38002938
24
Lattice="8.765231155735906 -1.2674221668524993e-12 -4.4749469896607106e-14 4.382615577869058 7.590912850909494 2.2936305633585814e-14 4.382615577868426 2.5303042836359624 18.961362441436318" Properties=species:S:1:pos:R:3 unique_starting_index=24 config_type=initial n_minim_iter=14 stress="0.00023792497965851998 5.514132109889863e-15 -5.501768091705529e-16 5.514132109889863e-15 0.00023792497965970832 -4.1254460674848875e-16 -5.501768091705529e-16 -4.1254460674848875e-16 9.145795260333951e-07" pbc="T T T"
Si       8.73558394       3.86103501      20.24948933
Si       9.81891507       5.63472011      20.24948933
Si       7.74119315       5.68606984      20.24948933
Si       9.97925929       5.19967073      14.05854117
Si       8.03778485       6.04245670      14.05854117
Si       8.27864801       3.93969752      14.05854117
Si      10.50068142       4.09081951       2.44579065
Si       8.73736711       7.04844711       2.44579065
Si       7.05764363       4.04255833       2.44579065
Si       8.75555057       6.93866745       4.55257373
Si       7.14362388       4.11319550       4.55257373
Si      10.39651771       4.12996200       4.55257373
Si       9.70126631       7.15090558      14.74902577
Si       6.48696239       4.82609029      14.74902577
Si      10.10746345       3.20482908      14.74902577
Si      11.80971637       4.38237125      14.74254098
Si       7.83035842       8.03632876      14.74254098
Si       6.65561737       2.76312494      14.74254098
Si       9.49256184       9.13896543      14.04602884
Si       4.86960429       3.65131699      14.04602884
Si      11.93352602       2.39154253      14.04602884
Si       4.35980412       1.33710840       3.40829966
Si       5.42735838       3.10714693       3.40829966
Si       3.36068292       3.14665677       3.40829966
24
Lattice="8.763436778614734 -1.299283360115935e-12 -4.4471851285715966e-14 4.3817183893084986 7.5893588747385765 2.308135240932437e-14 4.381718389307855 2.5297862915789784 19.128390942347306" Properties=species:S:1:pos:R:3 unique_starting_index=24 config_type=initial n_minim_iter=15 stress="-0.00047550114918634283 6.187087060664374e-15 -5.239537181899194e-16 6.187087060664374e-15 -0.0004755011491850359 -6.358305780699121e-16 -5.239537181899194e-16 -6.358305780699121e-16 0.00018573328635588252" pbc="T T T"
Si       8.73337758       3.86256222      20.44328514
Si       9.81510689       5.63204573      20.44328514
Si       7.74182456       5.68410904      20.44328514
Si       9.97749160       5.20087733      14.17992078
Si       8.03403499       6.04032252      14.17992078
Si       8.27878244       3.93751714      14.17992078
Si      10.49843307       4.09095676       2.47543660
Si       8.73478367       7.04643137       2.47543660
Si       7.05709228       4.04132887       2.47543660
Si       8.75533251       6.93704700       4.58025523
Si       7.14154750       4.11381688       4.58025523
Si      10.39342901       4.12785312       4.58025523
Si       9.69806217       7.14517023      14.87184682
Si       6.48994267       4.82618309      14.87184682
Si      10.10230419       3.20736367      14.87184682
Si      11.80667297       4.38203284      14.86743812
Si       7.82858444       8.03386231      14.86743812
Si       6.65505162       2.76282185      14.86743812
Si       9.48885447       9.13544357      14.17616011
Si       4.87091924       3.64986724      14.17616011
Si      11.93053531       2.39340618      14.17616011
Si       4.35589787       1.33664322       3.43535180
Si       5.42791999       3.10399660       3.43535180
Si       3.36133600       3.14871830       3.43535180
24
Lattice="8.765775296225861 -1.272556576532697e-12 -4.4397619436179034e-14 4.382887648114036 7.591384090397024 2.287479218688527e-14 4.382887648113409 2.530461363465137 19.131216042444443" Properties=species:S:1:pos:R:3 unique_starting_index=24 config_type=initial n_minim_iter=16 stress="-9.351067212307714e-05 5.485601574627744e-15 -1.5976506632833394e-16 5.485601574627744e-15 -9.351067212248553e-05 -4.472026529103147e-16 -1.5976506632833394e-16 -4.472026529103147e-16 0.00018876757090855825" pbc="T T T"
Si       8.73293152       3.86106127      20.44762919
Si       9.82130681       5.63240991      20.44762919
Si       7.74308625       5.68929624      20.44762919
Si       9.98019662       5.19815165      14.17874359
Si       8.03972003       6.04402798      14.17874359
Si       8.27740793       3.94058779      14.17874359
Si      10.49683238       4.08253617       2.47435247
Si       8.74755349       7.04925542       2.47435247
Si       7.05293870       4.05097584       2.47435247
Si       8.75972141       6.92991539       4.58044626
Si       7.15020625       4.12118358       4.58044626
Si      10.38739692       4.13166846       4.58044626
Si       9.70282095       7.14609556      14.86999141
Si       6.49143895       4.82984165      14.86999141
Si      10.10306468       3.20683021      14.86999141
Si      11.80875206       4.38284715      14.87194876
Si       7.83151672       8.03525569      14.87194876
Si       6.65705580       2.76466458      14.87194876
Si       9.49107378       9.13838165      14.18292979
Si       4.87194217       3.65032018      14.18292979
Si      11.93430863       2.39406560      14.18292979
Si       4.35706420       1.33643382       3.43680206
Si       5.42985668       3.10511138       3.43680206
Si       3.36174075       3.14983814       3.43680206
24
Lattice="8.76680009772676 -1.297359874210767e-12 -4.3906928409596244e-14 4.383400048864507 7.592271594530625 2.2736883113029643e-14 4.383400048863867 2.5307571981763273 19.353501621818623" Properties=species:S:1:pos:R:3 unique_starting_index=24 config_type=initial n_minim_iter=17 stress="-0.0004139594109254484 4.6525045676072466e-15 -8.894417979642619e-17 4.6525045676072466e-15 -0.00041395941092642465 -4.493749549017114e-16 -8.894417979642619e-17 -4.493749549017114e-16 -0.0010414344686148697" pbc="T T T"
Si       8.73204982       3.86325671      20.70717853
Si       9.82189596       5.63054862      20.70717853
Si       7.74645320       5.69073711      20.70717853
Si       9.98132449       5.19703243      14.33944891
Si       8.04217497       6.04556436      14.33944891
Si       8.27689952       3.94194565      14.33944891
Si      10.49725871       4.08038172       2.51271656
Si       8.75125574       7.05070186       2.51271656
Si       7.05188453       4.05345886       2.51271656
Si       8.76328234       6.92733624       4.61706457
Si       7.15270899       4.12555701       4.61706457
Si      10.38440765       4.13164919       4.61706457
Si       9.70369572       7.14582532      15.03651335
Si       6.49328520       4.83073435      15.03651335