12
Lattice="11.043216615540164 0.49430896769341126 1.2227281715073046 4.821364784462762 5.325918300163968 0.32386503489637314 6.268623261184287 -0.45006736539813824 6.335791627827442" Properties=species:S:1:pos:R:3 unique_starting_index=78 config_type=initial n_minim_iter=3 energy=-1961.970190707606 free_energy=-1961.970190707606 pbc="T T T"
Si       7.76728814       3.08678021       4.16658705
Si      14.59601042       0.94828797       2.70225311
Si      17.37934229       5.70733833       3.08764033
Si       9.32939379       2.39041044       2.98253203
Si       7.84086953       3.74948064       2.15246764
Si      12.29838877       4.67637677       6.10413284
Si      10.86478222       1.28875353       1.92419900
Si      12.40894296       2.90730456       7.27489259
Si       8.97723134       0.40281240       2.29695464
Si      13.16337067       1.99139532       1.52540020
Si       9.39574960       2.44187366       5.35901213
Si      10.52252863       3.68562210       6.69226002
