16
Lattice="5.459228186249389 0.22998209135716122 0.4663553876135068 2.2977114501342686 5.174765683136158 0.6290978690861485 3.708032456768321 1.81165455141969 13.132676522518286" Properties=species:S:1:pos:R:3 unique_starting_index=3 config_type=initial n_minim_iter=1 energy=-2610.2310128059125 free_energy=-2610.2310128059125 pbc="T T T"
Si       6.68822525       6.78694867       7.05519065
Si       6.70802769       3.77856748      13.25391261
Si       1.65218413       2.04833713       3.46043518
Si       5.40805651       2.19499792       2.65754548
Si       6.44460343       1.64335817       5.86600990
Si       7.61826188       2.14082408       7.57068196
Si       3.51602648       3.04640772       3.25614160
Si       7.33477660       3.36795602       2.11780061
Si       3.77503392       1.70398338       8.45579107
Si       5.77905647       1.16655862       8.01817878
Si       8.36008477       3.77498124       9.50055089
Si       2.85934818       2.40025249       5.17786312
Si       5.23067109       7.12770863      11.06505899
Si       4.98357224       2.34565592      10.07102928
Si       6.63305222       3.35995908      11.04895216
Si       4.82914128       0.66276150       1.02912602
16
Lattice="5.4590876911840445 0.23001009944010337 0.4661744477953807 2.297670235322544 5.174864572462296 0.6289060573853681 3.7075105123247445 1.8113878445588587 13.132814417841194" Properties=species:S:1:pos:R:3 unique_starting_index=3 config_type=initial n_minim_iter=2 stress="-0.00031584942175319085 -2.3433599557647308e-05 -0.0003249588255071042 -2.3433599557647308e-05 7.094548102536771e-05 -0.0001572000241682152 -0.0003249588255071042 -0.0001572000241682152 0.00022073368652993403" pbc="T T T"
Si       6.68785369       6.78695310       7.05493489
Si       6.70746768       3.77835487      13.25391446
Si       1.65208920       2.04831518       3.46045893
Si       5.40784856       2.19504204       2.65736858
Si       6.44421960       1.64324935       5.86585095
Si       7.61781895       2.14072667       7.57056587
Si       3.51585281       3.04643301       3.25596620
Si       7.33455731       3.36802012       2.11754116
Si       3.77461984       1.70380965       8.45588574
Si       5.77869193       1.16642909       8.01811112
Si       8.35959528       3.77489393       9.50038360
Si       2.85914561       2.40019127       5.17785009
Si       5.23024029       7.12761287      11.06496431
Si       4.98311689       2.34546135      10.07105837
Si       6.63254123       3.35974844      11.04885406
Si       4.82900255       0.66278198       1.02896707
16
Lattice="5.459357556534514 0.23011350977718673 0.46632111431893064 2.2978896542484213 5.174986186405423 0.6289524545187213 3.708089819978984 1.8114654490897832 13.132672287972278" Properties=species:S:1:pos:R:3 unique_starting_index=3 config_type=initial n_minim_iter=3 stress="0.0006722935457709996 2.271436387995095e-05 0.00010905028506404804 2.271436387995095e-05 0.00015055085569866077 -3.3736235628326316e-05 0.00010905028506404804 -3.3736235628326316e-05 0.0007946326849256513" pbc="T T T"
Si       6.68844052       6.78717906       7.05496454
Si       6.70828047       3.77851798      13.25388153
Si       1.65241501       2.04841316       3.46054142
Si       5.40819817       2.19525164       2.65746738
Si       6.44461267       1.64329942       5.86582956
Si       7.61836166       2.14089347       7.57066828
Si       3.51616272       3.04659983       3.25587134
Si       7.33501707       3.36820440       2.11778297
Si       3.77496477       1.70382715       8.45595128
Si       5.77927734       1.16656573       8.01805366
Si       8.36033073       3.77512601       9.50042577
Si       2.85951761       2.40028742       5.17787367
Si       5.23098126       7.12783493      11.06488006
Si       4.98367107       2.34552980      10.07107791
Si       6.63321457       3.35980590      11.04871544
Si       4.82927642       0.66288445       1.02908021
16
Lattice="5.459247935468761 0.23016403092207555 0.46634007591285337 2.297894145075546 5.174998318362531 0.6289399739603011 3.7081496131542604 1.8115202582408918 13.13180392695377" Properties=species:S:1:pos:R:3 unique_starting_index=3 config_type=initial n_minim_iter=4 stress="-6.369987118401053e-05 5.035635683244947e-06 4.007499987983195e-05 5.035635683244947e-06 -0.00020082087159723557 0.00011691781357847859 4.007499987983195e-05 0.00011691781357847859 -2.492680145860214e-05" pbc="T T T"
Si       6.68839581       6.78724373       7.05455307
Si       6.70833146       3.77859672      13.25305460
Si       1.65249783       2.04845850       3.46037996
Si       5.40812457       2.19535413       2.65734139
Si       6.44448567       1.64331382       5.86543264
Si       7.61825160       2.14097505       7.57023791
Si       3.51614379       3.04666994       3.25560364
Si       7.33490984       3.36826766       2.11776338
Si       3.77492473       1.70382904       8.45546754
Si       5.77926903       1.16664871       8.01751298
Si       8.36028148       3.77523062       9.49984935
Si       2.85955238       2.40032832       5.17757103
Si       5.23107141       7.12791257      11.06416525
Si       4.98367491       2.34555896      10.07047501
Si       6.63319966       3.35981624      11.04794587
Si       4.82919544       0.66293235       1.02905250
16
Lattice="5.459308047983929 0.23020660920144428 0.4662941659070281 2.2979602092493643 5.175377231120771 0.6286864535657348 3.708180562267918 1.8111435339768327 13.130977940132462" Properties=species:S:1:pos:R:3 unique_starting_index=3 config_type=initial n_minim_iter=5 stress="0.00013059184930129848 -0.000138510914779616 -2.38386887479489e-05 -0.000138510914779616 0.00036861594573219994 2.4381028552212148e-05 -2.38386887479489e-05 2.4381028552212148e-05 -0.00021454338191053058" pbc="T T T"
Si       6.68848005       6.78750164       7.05391717
Si       6.70846488       3.77838703      13.25216106
Si       1.65257640       2.04850875       3.46014939
Si       5.40822912       2.19553440       2.65711882
Si       6.44450902       1.64317859       5.86496423
Si       7.61829957       2.14089415       7.56970959
Si       3.51620319       3.04685362       3.25517293
Si       7.33500893       3.36849930       2.11755187
Si       3.77494225       1.70353568       8.45493837
Si       5.77928254       1.16647914       8.01695464
Si       8.36038872       3.77522770       9.49913362
Si       2.85959462       2.40034684       5.17718936
Si       5.23120841       7.12804675      11.06322761
Si       4.98375095       2.34531731      10.06986511
Si       6.63324833       3.35958356      11.04706204
Si       4.82926182       0.66298271       1.02895376
16
Lattice="5.459228297706138 0.23043458227988609 0.46631893359273824 2.298167758800985 5.175361478739215 0.6284347310278641 3.708287929002934 1.8106054058709635 13.130935436436744" Properties=species:S:1:pos:R:3 unique_starting_index=3 config_type=initial n_minim_iter=6 stress="-0.00015552666116356383 0.00027980125478968776 0.0001941642540812892 0.00027980125478968776 0.00011502647248574945 -0.00016527359029228805 0.0001941642540812892 -0.00016527359029228805 9.347545480059658e-06" pbc="T T T"
Si       6.68870320       6.78730733       7.05369425
Si       6.70868462       3.77795022      13.25206871
Si       1.65270899       2.04840243       3.46009993
Si       5.40831931       2.19572079       2.65709540
Si       6.44447141       1.64306565       5.86487522
Si       7.61827596       2.14083342       7.56966234
Si       3.51630632       3.04687529       3.25490613
Si       7.33504806       3.36868939       2.11750109
Si       3.77497487       1.70314609       8.45493016
Si       5.77919993       1.16635191       8.01689985
Si       8.36051063       3.77504667       9.49900911
Si       2.85967911       2.40021591       5.17711185
Si       5.23156781       7.12763195      11.06289642
Si       4.98388608       2.34493583      10.06988830
Si       6.63332369       3.35916323      11.04682089
Si       4.82923158       0.66314849       1.02894747
16
Lattice="5.4594057871529715 0.23023012938675905 0.4659928332650128 2.2980474500158814 5.174938835604228 0.6282174464374451 3.707591225254742 1.810151847141626 13.130748762539088" Properties=species:S:1:pos:R:3 unique_starting_index=3 config_type=initial n_minim_iter=7 stress="0.00019657016265947858 0.000106812946250464 -0.0001362268155491469 0.000106812946250464 -7.07734366504518e-05 -4.8459153327216576e-05 -0.0001362268155491469 -4.8459153327216576e-05 -0.0001139268994213509" pbc="T T T"
Si       6.68828250       6.78648275       7.05331763
Si       6.70815140       3.77726984      13.25172263
Si       1.65255661       2.04821798       3.46000873
Si       5.40842554       2.19553918       2.65684285
Si       6.44428721       1.64252374       5.86441461
Si       7.61798045       2.14032671       7.56920518
Si       3.51612646       3.04663173       3.25445530
Si       7.33507963       3.36821594       2.11714275
Si       3.77448802       1.70261634       8.45480992
Si       5.77876889       1.16601512       8.01649604
Si       8.36018883       3.77431512       9.49851903
Si       2.85936659       2.39996361       5.17694808
Si       5.23096047       7.12688288      11.06247286
Si       4.98347406       2.34435404      10.06972549
Si       6.63271353       3.35840987      11.04621596
Si       4.82936353       0.66293363       1.02864586
16
Lattice="5.459282712194202 0.2301148213923538 0.46607033406052906 2.297891244614016 5.174902791649284 0.6282824684968608 3.707629558655515 1.8101370606185792 13.131063240597104" Properties=species:S:1:pos:R:3 unique_starting_index=3 config_type=initial n_minim_iter=8 stress="-4.8361015492916574e-05 -4.030095882514875e-05 9.88264612264713e-06 -4.030095882514875e-05 -7.980768660276154e-06 1.3751581176585768e-06 9.88264612264713e-06 1.3751581176585768e-06 7.002015138757432e-05" pbc="T T T"
Si       6.68807141       6.78637552       7.05358344
Si       6.70810428       3.77719595      13.25209367
Si       1.65252780       2.04821050       3.46011090
Si       5.40830905       2.19547702       2.65698766
Si       6.44417437       1.64239539       5.86460733
Si       7.61784131       2.14019886       7.56946169
Si       3.51601174       3.04659716       3.25455102
Si       7.33486287       3.36808453       2.11730579
Si       3.77445592       1.70254639       8.45504808
Si       5.77868524       1.16594468       8.01671724
Si       8.36004217       3.77418148       9.49882930
Si       2.85930787       2.39995020       5.17710003
Si       5.23083652       7.12684281      11.06278826
Si       4.98344065       2.34427002      10.07000913
Si       6.63261236       3.35830611      11.04649820
Si       4.82925913       0.66283625       1.02872774
16
Lattice="5.459406908307083 0.22983297225145444 0.46664430455511025 2.2976900758544523 5.17530780646678 0.6286963742781283 3.7090175611451266 1.8106212451984822 13.130632030142262" Properties=species:S:1:pos:R:3 unique_starting_index=3 config_type=initial n_minim_iter=9 stress="6.0152195826897344e-05 -7.70937452499614e-05 8.133244070340552e-05 -7.70937452499614e-05 -6.063076732054796e-05 -0.00018540781696469084 8.133244070340552e-05 -0.00018540781696469084 -0.00010864535859315703" pbc="T T T"
Si       6.68848456       6.78679906       7.05416994
Si       6.70989244       3.77774015      13.25216086
Si       1.65284846       2.04841685       3.46022675
Si       5.40882279       2.19623442       2.65768372
Si       6.44494407       1.64214009       5.86492855
Si       7.61869692       2.14013138       7.57001460
Si       3.51611710       3.04718033       3.25469797
Si       7.33493970       3.36840780       2.11814842
Si       3.77486468       1.70253555       8.45525493
Si       5.77909880       1.16625219       8.01661823
Si       8.36123459       3.77424392       9.49911320
Si       2.85985076       2.40063990       5.17722637
Si       5.23159771       7.12762962      11.06308686
Si       4.98447213       2.34380077      10.06964888
Si       6.63366268       3.35850086      11.04613791
Si       4.82958302       0.66266623       1.02921563
16
Lattice="5.459339022019164 0.22991434856780454 0.4667215503866076 2.2976994380848197 5.175640284670086 0.6290955138113009 3.7091246975527814 1.8116889507709069 13.13080295231417" Properties=species:S:1:pos:R:3 unique_starting_index=3 config_type=initial n_minim_iter=10 stress="-3.587582233179303e-05 8.622247741996617e-05 -3.332215607829082e-05 8.622247741996617e-05 0.00010293769874927526 0.00014241190548381513 -3.332215607829082e-05 0.00014241190548381513 3.8077430063387445e-06" pbc="T T T"
Si       6.68844943       6.78768464       7.05472766
Si       6.71014070       3.77895626      13.25254144
Si       1.65290902       2.04877467       3.46042526
Si       5.40886657       2.19685677       2.65796301
Si       6.44499583       1.64260169       5.86515842
Si       7.61867283       2.14077574       7.57027586
Si       3.51608896       3.04773520       3.25491685
Si       7.33486363       3.36891556       2.11848484
Si       3.77472007       1.70309949       8.45545042
Si       5.77895047       1.16700899       8.01668575
Si       8.36133177       3.77512483       9.49944608
Si       2.85994546       2.40128655       5.17749064
Si       5.23162023       7.12882487      11.06374508
Si       4.98458513       2.34439753      10.06980488
Si       6.63369693       3.35944942      11.04629485
Si       4.82960221       0.66281387       1.02932202
16
Lattice="5.459356757195284 0.2296085353485657 0.4669683537200987 2.2974417888195946 5.175530434943088 0.6291927178277638 3.7096652158852335 1.8115136324057104 13.130465077392829" Properties=species:S:1:pos:R:3 unique_starting_index=3 config_type=initial n_minim_iter=11 stress="-1.997179598699687e-05 -4.612725495905921e-06 6.216347242230906e-06 -4.612725495905921e-06 -1.52612420469899e-05 -1.4077732399545614e-05 6.216347242230906e-06 -1.4077732399545614e-05 -5.797379026914965e-05" pbc="T T T"
Si       6.68825801       6.78733718       7.05475981
Si       6.71089005       3.77865984      13.25240513
Si       1.65309012       2.04868631       3.46046596
Si       5.40894841       2.19708653       2.65819687
Si       6.44534622       1.64211269       5.86544232
Si       7.61874148       2.14022478       7.57024209
Si       3.51603196       3.04781803       3.25490910
Si       7.33476396       3.36877791       2.11875536
Si       3.77473930       1.70261605       8.45536780
Si       5.77901857       1.16684689       8.01650574
Si       8.36176586       3.77454734       9.49940546
Si       2.86018093       2.40134522       5.17755230
Si       5.23161782       7.12852840      11.06376154
Si       4.98507014       2.34359130      10.06952043
Si       6.63397829       3.35900329      11.04591318
Si       4.82976608       0.66257142       1.02953638
16
Lattice="5.459384827315804 0.22937041725186708 0.46709601092529796 2.2972498074933054 5.175356080240043 0.6291943665374579 3.7099293937738054 1.8112078262417355 13.13041640320789" Properties=species:S:1:pos:R:3 unique_starting_index=3 config_type=initial n_minim_iter=12 stress="-2.2956409548588963e-05 -5.4692529383223634e-06 1.578758739500734e-07 -5.4692529383223634e-06 1.388269897246098e-06 -1.7753736148917124e-05 1.578758739500734e-07 -1.7753736148917124e-05 -4.8981070988067954e-05" pbc="T T T"
Si       6.68814111       6.78695688       7.05470679
Si       6.71131063       3.77826191      13.25243238
Si       1.65325321       2.04860495       3.46048522
Si       5.40886828       2.19720149       2.65826751
Si       6.44533285       1.64162974       5.86576333
Si       7.61888010       2.13975628       7.57027942
Si       3.51611108       3.04788454       3.25492252
Si       7.33473787       3.36856825       2.11891798
Si       3.77465662       1.70207731       8.45527081
Si       5.77896267       1.16650707       8.01652374
Si       8.36203609       3.77387517       9.49947968
Si       2.86024384       2.40123575       5.17759495
Si       5.23163056       7.12808507      11.06384550
Si       4.98524726       2.34273105      10.06943020
Si       6.63396200       3.35856351      11.04582007
Si       4.82994262       0.66241302       1.02968432
16
Lattice="5.4594006020450445 0.22921885854019663 0.4671708775167971 2.297123077815954 5.1751376243714 0.6292826051088742 3.7100457047072712 1.8111764987819947 13.130715224104641" Properties=species:S:1:pos:R:3 unique_starting_index=3 config_type=initial n_minim_iter=13 stress="-8.79159338206009e-06 6.50608265888279e-05 -2.1702877896142175e-05 6.50608265888279e-05 1.941867114084522e-05 7.042619537746874e-05 -2.1702877896142175e-05 7.042619537746874e-05 3.299784274760308e-06" pbc="T T T"
Si       6.68797512       6.78672353       7.05488383
Si       6.71154853       3.77816028      13.25279571
Si       1.65329121       2.04858840       3.46056281
Si       5.40882372       2.19732274       2.65840657
Si       6.44526653       1.64136499       5.86604907
Si       7.61888987       2.13955891       7.57045644
Si       3.51623178       3.04800893       3.25506981
Si       7.33474899       3.36838423       2.11914056
Si       3.77468023       1.70171166       8.45547353
Si       5.77892463       1.16633203       8.01675074
Si       8.36217897       3.77351077       9.49981277
Si       2.86020052       2.40115760       5.17773441
Si       5.23145090       7.12789474      11.06430292
Si       4.98529647       2.34214322      10.06956965
Si       6.63396665       3.35831062      11.04607218
Si       4.83010167       0.66235281       1.02981852
16
Lattice="5.459325755644487 0.22834151099353694 0.46740735996333194 2.29634566049591 5.174231121946008 0.6290452433492016 3.7103097560833933 1.8095370332224858 13.13108874807928" Properties=species:S:1:pos:R:3 unique_starting_index=3 config_type=initial n_minim_iter=14 stress="1.3272429659888481e-05 -2.673563694191046e-05 -2.3489301058515613e-05 -2.673563694191046e-05 -5.4260353527341786e-05 7.2811386145368115e-06 -2.3489301058515613e-05 7.2811386145368115e-06 6.240313939055516e-05" pbc="T T T"
Si       6.68689373       6.78479178       7.05477361
Si       6.71182672       3.77604478      13.25318079
Si       1.65316559       2.04803972       3.46056404
Si       5.40856562       2.19675943       2.65861635
Si       6.44504382       1.63966296       5.86637516
Si       7.61877745       2.13770043       7.57079335
Si       3.51616792       3.04757815       3.25519953
Si       7.33442775       3.36701458       2.11940950
Si       3.77440801       1.69982435       8.45551883
Si       5.77897473       1.16460254       8.01713233
Si       8.36222748       3.77094957       9.50012437
Si       2.85982105       2.40014095       5.17770096
Si       5.23048474       7.12571928      11.06467940
Si       4.98539427       2.33946165      10.06975660
Si       6.63373804       3.35603925      11.04633191
Si       4.83034456       0.66170393       1.03014240
16
Lattice="5.45908489858916 0.2278568539556697 0.4677744280124429 2.295823337519539 5.174183196428995 0.6291138979252958 3.7108778312486823 1.8090524251903215 13.131216651090025" Properties=species:S:1:pos:R:3 unique_starting_index=3 config_type=initial n_minim_iter=15 stress="6.477045391076307e-06 -1.8537424503450346e-06 2.5429723148941678e-05 -1.8537424503450346e-06 -3.3094905918115445e-05 4.4579919223642124e-05 2.5429723148941678e-05 4.4579919223642124e-05 4.602948174226196e-05" pbc="T T T"
Si       6.68597529       6.78463111       7.05483532
Si       6.71243822       3.77557029      13.25349757
Si       1.65314949       2.04807397       3.46058592
Si       5.40843298       2.19696609       2.65903941
Si       6.44487341       1.63888699       5.86658672
Si       7.61867874       2.13707410       7.57107400
Si       3.51608467       3.04794439       3.25555599
Si       7.33420791       3.36668725       2.11993507
Si       3.77438721       1.69885359       8.45564399
Si       5.77893106       1.16373714       8.01745693
Si       8.36254331       3.76976975       9.50044855
Si       2.85975828       2.39985657       5.17774164
Si       5.23023083       7.12526103      11.06517344
Si       4.98569695       2.33784981      10.06994418
Si       6.63358453       3.35527209      11.04661781
Si       4.83052227       0.66154934       1.03060107
16
Lattice="5.458869336056993 0.22760226885632634 0.4679154653709926 2.295475668148092 5.174913466320191 0.6291269030350429 3.7110262015869693 1.8090849498499058 13.13073246512326" Properties=species:S:1:pos:R:3 unique_starting_index=3 config_type=initial n_minim_iter=16 stress="2.649020448891784e-05 -4.317113758428897e-06 6.858087491404274e-06 -4.317113758428897e-06 1.9744332140838334e-05 3.591029530653465e-05 6.858087491404274e-06 3.591029530653465e-05 3.405586085195036e-05" pbc="T T T"
Si       6.68538321       6.78559449       7.05457809
Si       6.71268575       3.77599922      13.25311770
Si       1.65320799       2.04850247       3.46048394
Si       5.40827987       2.19759652       2.65913535
Si       6.44448508       1.63863115       5.86641013
Si       7.61838658       2.13706419       7.57076300
Si       3.51575237       3.04878804       3.25574145
Si       7.33418687       3.36714890       2.12002589
Si       3.77406473       1.69836726       8.45545735
Si       5.77864267       1.16331607       8.01714944
Si       8.36267144       3.76940366       9.50020822
Si       2.85955464       2.40019538       5.17737687
Si       5.22966807       7.12615440      11.06498837
Si       4.98581861       2.33689176      10.06965330
Si       6.63324785       3.35523777      11.04629732
Si       4.83071081       0.66170391       1.03083596
16
Lattice="5.458565227122896 0.22751415518986556 0.46809339072428624 2.295234805743869 5.175931847060836 0.6292082225560559 3.7112127462632682 1.8094034534848915 13.130641801863062" Properties=species:S:1:pos:R:3 unique_starting_index=3 config_type=initial n_minim_iter=17 stress="1.5594245898305858e-05 1.1935082522586671e-05 1.4245615386171447e-05 1.1935082522586671e-05 0.0001010311576077267 -4.059745740662827e-06 1.4245615386171447e-05 -4.059745740662827e-06 1.797999140527114e-05" pbc="T T T"
Si       6.68491751       6.78705496       7.05486226
Si       6.71299798       3.77694507      13.25317666
Si       1.65313941       2.04910215       3.46019770
Si       5.40796272       2.19851222       2.65928926
Si       6.44416053       1.63867694       5.86643408
Si       7.61794740       2.13724807       7.57081526
Si       3.51553527       3.05004143       3.25593878
Si       7.33430267       3.36799173       2.12027535
Si       3.77368768       1.69812245       8.45557637
Si       5.77840163       1.16324025       8.01688681
Si       8.36283208       3.76948760       9.50024337
Si       2.85942883       2.40088225       5.17746660
Si       5.22931329       7.12750438      11.06513725
Si       4.98581655       2.33604264      10.06969261
Si       6.63287164       3.35557235      11.04636202
Si       4.83090091       0.66213340       1.03112800
16
Lattice="5.458305836071559 0.22727156874703902 0.468183489391131 2.2948817246841533 5.176171873824611 0.6293748236270881 3.7111370837730546 1.8096551436309853 13.130935779273655" Properties=species:S:1:pos:R:3 unique_starting_index=3 config_type=initial n_minim_iter=18 stress="1.945415966980181e-05 -3.1455255065705053e-06 1.3515824272591532e-05 -3.1455255065705053e-06 5.205962817897309e-05 -1.063997935663766e-05 1.3515824272591532e-05 -1.063997935663766e-05 9.252227871967757e-05" pbc="T T T"
Si       6.68416073       6.78754893       7.05542011
Si       6.71304979       3.77752837      13.25361336
Si       1.65311273       2.04945759       3.46023313
Si       5.40738300       2.19905431       2.65933544
Si       6.44393445       1.63852193       5.86636643
Si       7.61750999       2.13703919       7.57113277
Si       3.51518837       3.05089205       3.25622943
Si       7.33448858       3.36830126       2.12043924
Si       3.77324200       1.69760661       8.45594485
Si       5.77783550       1.16302538       8.01675380
Si       8.36278049       3.76909816       9.50050583
Si       2.85909033       2.40128764       5.17776023
Si       5.22856959       7.12789001      11.06566339
Si       4.98562989       2.33481529      10.07002540
Si       6.63219877       3.35545473      11.04672548
Si       4.83116020       0.66245485       1.03137500
16
Lattice="5.4582189356374 0.22708930370783825 0.46824464437421365 2.294697454664415 5.175744881106506 0.6293743824200755 3.7112381689736806 1.8094179645655881 13.1301925637866" Properties=species:S:1:pos:R:3 unique_starting_index=3 config_type=initial n_minim_iter=19 stress="6.797413994790817e-06 -6.491584699059737e-06 7.260877924826799e-06 -6.491584699059737e-06 1.581577223253343e-06 -3.0236096011662836e-05 7.260877924826799e-06 -3.0236096011662836e-05 2.443596517805346e-05" pbc="T T T"
Si       6.68401065       6.78704173       7.05505154
Si       6.71328446       3.77735666      13.25294083
Si       1.65304751       2.04948969       3.45986987
Si       5.40708987       2.19913192       2.65917385
Si       6.44385040       1.63821666       5.86590572
Si       7.61739118       2.13645937       7.57083116
Si       3.51507592       3.05111106       3.25623370
Si       7.33480437       3.36808709       2.12040806
Si       3.77303703       1.69685748       8.45570381
Si       5.77754200       1.16257480       8.01606941
Si       8.36290292       3.76847334       9.49991636
Si       2.85894451       2.40126755       5.17756812
Si       5.22817388       7.12695423      11.06520742
Si       4.98580060       2.33353484      10.06970916
Si       6.63186339       3.35478885      11.04619233
Si       4.83145863       0.66268055       1.03147631
16
Lattice="5.458250796285253 0.2269802406728683 0.46824536135404193 2.2946357725978435 5.175256266904752 0.6292851606944614 3.7113024783095163 1.8090345062846533 13.129478689403607" Properties=species:S:1:pos:R:3 unique_starting_index=3 config_type=initial n_minim_iter=20 stress="-1.2086772557413615e-05 -6.996330456675519e-06 1.2033414886015316e-06 -6.996330456675519e-06 -1.4096644618416002e-05 -2.6523132979563518e-05 1.2033414886015316e-06 -2.6523132979563518e-05 -3.2839424686473544e-05" pbc="T T T"
Si       6.68401739       6.78640380       7.05457844
Si       6.71346082       3.77697074      13.25221576
Si       1.65290163       2.04932623       3.45964033
Si       5.40703703       2.19903799       2.65899656
Si       6.44384987       1.63794611       5.86547782
Si       7.61738796       2.13585565       7.57044419
Si       3.51510814       3.05107608       3.25617604
Si       7.33513632       3.36789154       2.12006768
Si       3.77296245       1.69618981       8.45534206
Si       5.77748776       1.16208271       8.01546372
Si       8.36299872       3.76785284       9.49941082
Si       2.85892472       2.40112791       5.17731289
Si       5.22806637       7.12597257      11.06450307
Si       4.98583431       2.33250365      10.06945003
Si       6.63176175       3.35408267      11.04564478
Si       4.83172729       0.66284721       1.03145452
16
Lattice="5.458448901453385 0.22687400184124368 0.4681586471376748 2.2946605422490216 5.17453500206805 0.6290311281236385 3.7112588493637557 1.8082189869304162 13.129112140178686" Properties=species:S:1:pos:R:3 unique_starting_index=3 config_type=initial n_minim_iter=21 stress="-2.2163776880228725e-05 -1.2823774423178736e-05 -3.3050241096242854e-05 -1.2823774423178736e-05 -7.072361813984051e-05 -4.732437504953359e-05 -3.3050241096242854e-05 -4.732437504953359e-05 -9.323270739689265e-05" pbc="T T T"
Si       6.68403507       6.78537306       7.05410342
Si       6.71361719       3.77612913      13.25170950
Si       1.65293882       2.04923019       3.45926399
Si       5.40714641       2.19878878       2.65873752
Si       6.44392072       1.63748899       5.86512169
Si       7.61755490       2.13488096       7.57014093
Si       3.51507121       3.05073752       3.25612985
Si       7.33566711       3.36750032       2.11955629
Si       3.77296094       1.69527537       8.45508638
Si       5.77749098       1.16119019       8.01502805
Si       8.36313482       3.76687826       9.49899843
Si       2.85896509       2.40081099       5.17713361
Si       5.22791936       7.12430079      11.06389303
Si       4.98572148       2.33101823      10.06953889
Si       6.63180509       3.35288614      11.04533231
Si       4.83215950       0.66307011       1.03129423
