16
Lattice="7.330255018189844 1.0094133950540956 -0.5278685938416608 2.2759657473936787 7.953248504965676 0.8162168713233918 1.7647218750911213 3.5831966202530063 10.045488747259911" Properties=species:S:1:pos:R:3 unique_starting_index=30 config_type=initial n_minim_iter=1 energy=-2604.1131546139827 free_energy=-2604.1131546139827 pbc="T T T"
Si       6.22781925       8.00892427       5.43806132
Si       5.14312339       4.53693425       4.89577570
Si       3.87172541       5.41134352       3.43640187
Si       7.49921723       7.13451500       6.89743516
Si       6.43681897       5.98434667       8.34695650
Si       4.93412367       6.56151185       1.98688053
Si       5.54364028       5.30417617       0.20141287
Si       5.82730237       7.24168235      10.13242415
Si       3.42567650       5.61579503       5.48471785
Si       7.94526614       6.93006349       4.84911917
Si       9.51313728       8.12587399       4.15113346
Si       1.85780536       4.41998454       6.18270357
Si       3.25070535       3.61585833       4.80105435
Si       8.12023729       8.93000019       5.53278268
Si       6.25199448       8.18335754       1.65960505
Si       5.11894816       4.36250098       8.67423198
16
Lattice="7.342322844508518 1.0157768213346607 -0.5318285214599687 2.28560094672289 7.959386102525155 0.8199680534915599 1.765372193208912 3.5910275943063343 10.061313389127452" Properties=species:S:1:pos:R:3 unique_starting_index=30 config_type=initial n_minim_iter=2 stress="-0.0017121823871724844 -0.002275587453389024 0.00010669954897542098 -0.002275587453389024 0.006807051390939367 -0.002330779943916961 0.00010669954897542098 -0.002330779943916961 -0.003586406376338565" pbc="T T T"
Si       6.24090092       8.02058265       5.44677207
Si       5.15239507       4.54560787       4.90268086
Si       3.88028937       5.41892683       3.44189262
Si       7.51300662       7.14726369       6.90756030
Si       6.44746850       5.99670986       8.35884413
Si       4.94582749       6.56948066       1.99060879
Si       5.55615206       5.31139183       0.20137514
Si       5.83714392       7.25479869      10.14807778
Si       3.43271591       5.62401801       5.49406257
Si       7.96058008       6.94217251       4.85539035
Si       9.53236747       8.13940700       4.15617902
Si       1.86092852       4.42678352       6.19327390
Si       3.25630240       3.62247499       4.80825997
Si       8.13699358       8.94371553       5.54119295
Si       6.26755852       8.19378717       1.66266308
Si       5.12573746       4.37240335       8.68678985
16
Lattice="7.351764538498072 1.0211308226536733 -0.5324059196378342 2.298612481582571 7.934204054393972 0.8320153302302952 1.7709984843171365 3.593511629311736 10.087273278660588" Properties=species:S:1:pos:R:3 unique_starting_index=30 config_type=initial n_minim_iter=3 stress="-0.001248265730227858 -0.0026377281642867506 -0.0016048624474869885 -0.0026377281642867506 -0.0021383919441189353 -0.0025408640750777672 -0.0016048624474869885 -0.0025408640750777672 -0.0009996153961605758" pbc="T T T"
Si       6.25719860       8.00678558       5.46826894
Si       5.16417690       4.54206092       4.91861374
Si       3.89135973       5.40923162       3.45529303
Si       7.53001578       7.13961489       6.93158966
Si       6.46168669       5.99458115       8.38328016
Si       4.95968881       6.55426536       2.00360253
Si       5.56887787       5.29923028       0.20816712
Si       5.85249764       7.24961622      10.17871557
Si       3.44313841       5.61511557       5.51352285
Si       7.97823709       6.93373094       4.87335984
Si       9.55372120       8.12689850       4.17447360
Si       1.86765430       4.42194801       6.21240909
Si       3.26425844       3.62033378       4.82331559
Si       8.15711707       8.92851273       5.56356710
Si       6.28535131       8.17522211       1.67618963
Si       5.13602419       4.37362440       8.71069306
16
Lattice="7.351968524507125 1.0325007362514556 -0.5175482693471979 2.314554744231521 7.931868756274679 0.8537716752499082 1.7949979103082208 3.6151649752082085 10.10134139510708" Properties=species:S:1:pos:R:3 unique_starting_index=30 config_type=initial n_minim_iter=4 stress="4.701366494744556e-05 0.0017902200673340304 2.2693149654783233e-05 0.0017902200673340304 0.0015564180759549593 0.0002204903182938453 2.2693149654783233e-05 0.0002204903182938453 0.0015319548807003727" pbc="T T T"
Si       6.27993697       8.02222196       5.49835997
Si       5.18158420       4.55731251       4.93920483
Si       3.90681567       5.41916511       3.47439981
Si       7.55470551       7.16036935       6.96316499
Si       6.48661028       6.01883401       8.40938494
Si       4.97491090       6.56070045       2.02817986
Si       5.57781690       5.30395144       0.22955813
Si       5.88370428       7.27558302      10.20800668
Si       3.46267539       5.62842334       5.53475857
Si       7.99884579       6.95111113       4.90280623
Si       9.57535100       8.14426613       4.21011257
Si       1.88617017       4.43526834       6.22745223
Si       3.27871546       3.63319123       4.83913022
Si       8.18280572       8.94634324       5.59843458
Si       6.30294613       8.18332238       1.70537738
Si       5.15857505       4.39621209       8.73218742
16
Lattice="7.361061375375312 1.0244607706634472 -0.5051565837691278 2.312249207089608 7.9249147857053295 0.8712285162130693 1.8075689808379323 3.630723390578136 10.094021225510634" Properties=species:S:1:pos:R:3 unique_starting_index=30 config_type=initial n_minim_iter=5 stress="0.0019522371343239898 -0.0024667803803148165 0.0026405439503557906 -0.0024667803803148165 0.0010653799734668533 0.003115458043141433 0.0026405439503557906 0.003115458043141433 -0.004399107936948292" pbc="T T T"
Si       6.28727503       8.02291002       5.51297121
Si       5.19360453       4.55718893       4.94712195
Si       3.91059304       5.42077468       3.48540292
Si       7.57028652       7.15932427       6.97469023
Si       6.50053960       6.02489420       8.41359651
Si       4.98033997       6.55520475       2.04649665
Si       5.57957261       5.29394841       0.24680222
Si       5.90130696       7.28615054      10.21329094
Si       3.47044143       5.63307726       5.54257766
Si       8.01043814       6.94702169       4.91751549
Si       9.58954747       8.13482067       4.22977132
Si       1.89133209       4.44527827       6.23032183
Si       3.28834344       3.63793420       4.84396543
Si       8.19253612       8.94216474       5.61612773
Si       6.30736580       8.17845041       1.72626470
Si       5.17351376       4.40164854       8.73382845
16
Lattice="7.310502962753481 1.0537854306948922 -0.49514322633578156 2.3292707161844404 7.920635943684108 0.8600945284752404 1.825628060402136 3.613603453551933 10.091469471943356" Properties=species:S:1:pos:R:3 unique_starting_index=30 config_type=initial n_minim_iter=6 stress="-0.005476427374628543 0.0036945837593013947 0.0051394768754413145 0.0036945837593013947 -0.00525212279867522 -0.003300220212406562 0.0051394768754413145 -0.003300220212406562 -0.007574108750137938" pbc="T T T"
Si       6.27514589       8.03495927       5.50844998
Si       5.19025585       4.55306556       4.94797080
Si       3.90042466       5.43375874       3.48821244
Si       7.56497708       7.15426609       6.96820833
Si       6.48178381       6.02337703       8.40329921
Si       4.98361793       6.56464779       2.05312156
Si       5.54855980       5.30064775       0.24495122
Si       5.91684194       7.28737707      10.21146956
Si       3.48056590       5.63514652       5.54961916
Si       7.98483584       6.95287831       4.90680162
Si       9.56707225       8.13872733       4.22121667
Si       1.89832949       4.44929750       6.23520410
Si       3.29558234       3.64424039       4.85459387
Si       8.16981939       8.94378444       5.60182691
Si       6.29711675       8.21006642       1.71722789
Si       5.16828499       4.37795841       8.73919289
16
Lattice="7.287402216592498 1.0507576878288674 -0.4982757202363676 2.3193396149745236 7.9197039346508395 0.8704671969322486 1.8146932701631129 3.624502390539104 10.117857770928568" Properties=species:S:1:pos:R:3 unique_starting_index=30 config_type=initial n_minim_iter=7 stress="-0.005316530387501774 0.0005186615465408992 -9.268553497688591e-05 0.0005186615465408992 -0.0014392082871023501 0.0026720919546751615 -9.268553497688591e-05 0.0026720919546751615 0.009745596304341455" pbc="T T T"
Si       6.24779731       8.04118726       5.52841814
Si       5.17363779       4.55377675       4.96163111
Si       3.88218036       5.44010859       3.50362193
Si       7.53925474       7.15485542       6.98642732
Si       6.45114610       6.02782289       8.42285382
Si       4.97028900       6.56714112       2.06719543
Si       5.52449859       5.29528185       0.24895606
Si       5.89693651       7.29968216      10.24109318
Si       3.46747412       5.64305718       5.57316611
Si       7.95396098       6.95190684       4.91688314
Si       9.53545488       8.13402804       4.23245690
Si       1.88598022       4.46093598       6.25759235
Si       3.28461611       3.65049992       4.87308008
Si       8.13681899       8.94446409       5.61696917
Si       6.27286166       8.21589725       1.72695525
Si       5.14857344       4.37906676       8.76309399
16
Lattice="7.298817929382905 1.0803877126194144 -0.5111916402773466 2.355647705060847 7.90573858009129 0.8722786587134624 1.8112764897193665 3.632220300580231 10.091668784286625" Properties=species:S:1:pos:R:3 unique_starting_index=30 config_type=initial n_minim_iter=8 stress="-0.0005208181006872633 0.002911694770336577 -0.007875988391092643 0.002911694770336577 -0.0003882287971922725 0.005493340179609301 -0.007875988391092643 0.005493340179609301 -0.0021831594005591623" pbc="T T T"
Si       6.26701807       8.05673805       5.51514716
Si       5.19872405       4.56160854       4.93760864
Si       3.89459732       5.45757381       3.50735918
Si       7.57114481       7.16077278       6.94539662
Si       6.44649517       6.03657711       8.38230761
Si       5.01924695       6.58176949       2.07044820
Si       5.53423816       5.29218066       0.24114723
Si       5.93150396       7.32616594      10.21160858
Si       3.49287305       5.65639066       5.57602124
Si       7.97286907       6.96195594       4.87673456
Si       9.57830655       8.13943986       4.19760043
Si       1.88743557       4.47890673       6.25515537
Si       3.29744493       3.66538150       4.87478151
Si       8.16829719       8.95296509       5.57797429
Si       6.30505251       8.24152641       1.71574195
Si       5.16068962       4.37682019       8.73701385
16
Lattice="7.324268084776849 1.0926920121400079 -0.4898958098558707 2.3810595087404876 7.888928821971461 0.8649703183378437 1.8579467031939256 3.6053547785637843 10.11451150235434" Properties=species:S:1:pos:R:3 unique_starting_index=30 config_type=initial n_minim_iter=9 stress="0.004056216520641465 -0.005114042281570172 -0.010642449783271031 -0.005114042281570172 -0.008005124197566946 0.0021075701740822963 -0.010642449783271031 0.0021075701740822963 0.011680575587015627" pbc="T T T"
Si       6.31294109       8.04218963       5.53662412
Si       5.25033321       4.54478598       4.95296189
Si       3.92339656       5.45641535       3.52925712
Si       7.63987773       7.13056026       6.96032889
Si       6.49115517       6.00752118       8.40105970
Si       5.07211913       6.57945443       2.08852631
Si       5.54720264       5.27844711       0.24764050
Si       6.01607166       7.30852850      10.24194551
Si       3.54324726       5.64390258       5.60571372
Si       8.02002703       6.94307303       4.88387229
Si       9.64558166       8.11491258       4.21106463
Si       1.91769264       4.47206303       6.27852138
Si       3.33451043       3.65764292       4.90539246
Si       8.22876386       8.92933269       5.58419355
Si       6.34129565       8.24736643       1.72139902
Si       5.22197865       4.33960919       8.76818699
16
Lattice="7.34285500469823 1.1301135034327718 -0.4443653421289625 2.433165446855448 7.895379237169649 0.8865146975570136 1.9444856767013217 3.617855407782315 10.157525883503745" Properties=species:S:1:pos:R:3 unique_starting_index=30 config_type=initial n_minim_iter=10 stress="0.016721932578229078 0.013378093110488199 -0.012170956145445376 0.013378093110488199 0.002664327602113158 -0.0023450221629989715 -0.012170956145445376 -0.0023450221629989715 0.0057296695993312155" pbc="T T T"
Si       6.40213769       8.07295576       5.60329693
Si       5.31836844       4.57039239       4.99637831
Si       3.98047697       5.48893641       3.58370304
Si       7.74002916       7.15441174       7.01597220
Si       6.57126078       6.03217802       8.45805035
Si       5.14924535       6.61117012       2.14162489
Si       5.57692859       5.29896573       0.28541189
Si       6.14357754       7.34438242      10.31426335
Si       3.63355270       5.66308978       5.66409821
Si       8.08695343       6.98025837       4.93557703
Si       9.74180414       8.14588454       4.27227852
Si       1.97870198       4.49746360       6.32739672
Si       3.39719482       3.67911652       4.95766902
Si       8.32331131       8.96423163       5.64200622
Si       6.39993409       8.28919603       1.77113065
Si       5.32057203       4.35415211       8.82854458
16
Lattice="7.370194841520392 1.1668517316182772 -0.33681742012881993 2.491339269044419 7.942330892286779 0.9464299170699114 2.1159709281897237 3.6690925057244757 10.24938794047606" Properties=species:S:1:pos:R:3 unique_starting_index=30 config_type=initial n_minim_iter=11 stress="0.007854197907399562 0.0025449166552618365 0.0003893512621030964 0.0025449166552618365 0.01008672717830687 0.005025990761238637 0.0003893512621030964 0.005025990761238637 0.007874727237669622" pbc="T T T"
Si       6.54430053       8.15123537       5.76847596
Si       5.43320451       4.62703976       5.09052448
Si       4.07490035       5.57113980       3.71785453
Si       7.90260469       7.20713533       7.14114591
Si       6.71149385       6.09765758       8.58857153
Si       5.26601119       6.68061755       2.27042891
Si       5.60688899       5.34450658       0.38044643
Si       6.37061605       7.43376855      10.47855400
Si       3.78331734       5.70978202       5.80720128
Si       8.19418770       7.06849311       5.05179916
Si       9.87579555       8.19202690       4.42530556
Si       2.10170949       4.58624823       6.43369487
Si       3.50975694       3.73412933       5.07899442
Si       8.46774810       9.04414580       5.78000601
Si       6.47131210       8.39198536       1.89663536
Si       5.50619294       4.38628977       8.96236508
16
Lattice="7.385652328494188 1.1787317966605775 -0.30972896142639383 2.5111509221549437 7.948936158079659 0.9466497368552363 2.163213174057574 3.6634813163484097 10.24686859897522" Properties=species:S:1:pos:R:3 unique_starting_index=30 config_type=initial n_minim_iter=12 stress="0.022550491177582496 -0.010137038765184068 0.009599150331285243 -0.010137038765184068 0.02621850935375392 -0.005497970441318899 0.009599150331285243 -0.005497970441318899 0.017783321393490596" pbc="T T T"
Si       6.59015318       8.16045847       5.79047069
Si       5.46986324       4.63069080       5.09331869
Si       4.10733199       5.59163710       3.73990163
Si       7.95268443       7.19951218       7.14388774
Si       6.75199496       6.09878594       8.59035370
Si       5.30802146       6.69236333       2.29343567
Si       5.61995453       5.35544474       0.39611876
Si       6.44006190       7.43570453      10.48767062
Si       3.83309734       5.71299445       5.83369133
Si       8.22691908       7.07815483       5.05009804
Si       9.92480304       8.18769257       4.43794443
Si       2.13521339       4.60345670       6.44584494
Si       3.54609407       3.74052782       5.10125935
Si       8.51392235       9.05062145       5.78253002
Si       6.49588897       8.41665584       1.91190943
Si       5.56412745       4.37449344       8.97187994
16
Lattice="7.34961903499269 1.258641868057543 -0.2314752289405787 2.593271455236711 7.97091400969604 0.959423856820854 2.2986652659837814 3.670666608448921 10.230405337021349" Properties=species:S:1:pos:R:3 unique_starting_index=30 config_type=initial n_minim_iter=13 stress="0.0006508442910135023 -0.008397656059475988 0.002789703566204175 -0.008397656059475988 0.028006445307809175 0.0005578588685735479 0.002789703566204175 0.0005578588685735479 0.021616143162997283" pbc="T T T"
Si       6.70012678       8.22664414       5.87009286
Si       5.54142898       4.67357835       5.08826111
Si       4.19457583       5.70526617       3.82686327
Si       8.04697992       7.19495632       7.13149069
Si       6.81329418       6.15053754       8.57345094
Si       5.42826157       6.74968495       2.38490302
Si       5.60957722       5.40822447       0.44923590
Si       6.63197854       7.49199802      10.50911807
Si       3.97959592       5.75730624       5.93310955
Si       8.26195983       7.14291624       5.02524442
Si      10.01557352       8.18754234       4.47095425
Si       2.22598223       4.71268015       6.48739972
Si       3.64351740       3.78648116       5.18869742
Si       8.59803836       9.11374132       5.76965654
Si       6.53530876       8.53206563       1.97048258
Si       5.70624700       4.36815686       8.98787139
16
Lattice="7.356851777158163 1.2663109657860487 -0.2219677100320242 2.6043200437309166 7.971799539490523 0.9531096453703928 2.3180003798944924 3.6607853081076978 10.222838418306967" Properties=species:S:1:pos:R:3 unique_starting_index=30 config_type=initial n_minim_iter=14 stress="-0.007182822234173015 -0.0013825979503441837 0.007877429562778144 -0.0013825979503441837 0.022895642631920208 -0.004250062010961284 0.007877429562778144 -0.004250062010961284 0.021760872793822578" pbc="T T T"
Si       6.72087788       8.22675305       5.87029694
Si       5.55829433       4.67214276       5.08368342
Si       4.20975761       5.71373560       3.82900394
Si       8.06941459       7.18516021       7.12497642
Si       6.83133288       6.14664255       8.56594813
Si       5.44783932       6.75225326       2.38803222
Si       5.61840893       5.41505310       0.45161089
Si       6.66076327       7.48384271      10.50236947
Si       3.99990781       5.75600835       5.93702723
Si       8.27926439       7.14288746       5.01695313
Si      10.04057566       8.18050543       4.47015827
Si       2.23859654       4.71839039       6.48382208
Si       3.65909670       3.78578192       5.19413171
Si       8.62007550       9.11311389       5.75984864
Si       6.54726513       8.53876432       1.97008479
Si       5.73190707       4.36013149       8.98389556
16
Lattice="7.4609480427998704 1.2400731305276538 -0.26398105706513686 2.5969441846911936 7.960600771402596 0.8407282245620047 2.2754821396112486 3.5433494615486167 10.037466733885072" Properties=species:S:1:pos:R:3 unique_starting_index=30 config_type=initial n_minim_iter=15 stress="0.02125439011109416 0.0007941975401528511 -0.0009645361542711677 0.0007941975401528511 0.020503488408970864 -0.014441731565813055 -0.0009645361542711677 -0.014441731565813055 0.017230413486037877" pbc="T T T"
Si       6.75281452       8.14158808       5.68480451
Si       5.58055985       4.60243528       4.92940939
Si       4.24482833       5.69115764       3.68822957
Si       8.08854604       7.05286573       6.92598433
Si       6.85782078       6.05017545       8.35105719
Si       5.47555359       6.69384792       2.26315671
Si       5.69219813       5.42542179       0.37151729
Si       6.64117624       7.31860157      10.24269661
Si       3.99507639       5.69289157       5.79345840
Si       8.33829797       7.05113180       4.82075550
Si      10.13018830       8.06783471       4.29987572
Si       2.20318606       4.67618865       6.31433818
Si       3.66050899       3.72251212       5.09147221
Si       8.67286537       9.02151124       5.52274169
Si       6.57165399       8.47579233       1.83583067
Si       5.76172038       4.26823104       8.77838323
16
Lattice="7.512743172789856 1.2169532377778935 -0.2070076334316022 2.6002904972780483 7.934085013073583 0.8734174284987829 2.357969594988673 3.544903406988357 10.08546332621356" Properties=species:S:1:pos:R:3 unique_starting_index=30 config_type=initial n_minim_iter=16 stress="-0.00639564080586187 0.0006316492157807281 -0.0036546943869027425 0.0006316492157807281 -0.0017363653674603093 0.003721794821972054 -0.0036546943869027425 0.003721794821972054 -0.004310089436314183" pbc="T T T"
Si       6.84077985       8.11169592       5.77103069
Si       5.63022341       4.58424573       4.98084243
Si       4.29042459       5.67089003       3.74620732
Si       8.18057868       7.02505163       7.00566580
Si       6.97017085       6.04140322       8.45035063
Si       5.50083241       6.65453844       2.30152249
Si       5.73451822       5.40688648       0.42487814
Si       6.73648504       7.28905518      10.32699499
Si       4.04759121       5.69373753       5.84462621
Si       8.42341205       7.00220413       4.90724692
Si      10.22507247       8.01133301       4.42027986
Si       2.24593079       4.68460865       6.33159326
Si       3.72104438       3.72000453       5.14350891
Si       8.74995889       8.97593712       5.60836421
Si       6.60490649       8.41719977       1.90911845
Si       5.86609678       4.27874188       8.84275467
16
Lattice="7.62335522796747 1.209189239043058 -0.16381930281319237 2.6381828165948815 7.889483892068818 0.8876029916034663 2.4439316568846325 3.524851809197459 10.101861376127532" Properties=species:S:1:pos:R:3 unique_starting_index=30 config_type=initial n_minim_iter=17 stress="0.011636576243119916 -0.0027077123300551518 -0.0008981469284254015 -0.0027077123300551518 0.0007115134877984716 -0.003104568949735683 -0.0008981469284254015 -0.003104568949735683 0.004274792733150488" pbc="T T T"
Si       6.97670551       8.06121469       5.81677781
Si       5.72876419       4.56231025       5.00886726
Si       4.36655210       5.63748019       3.78399543
Si       8.33891760       6.98604475       7.04164964
Si       7.11786841       6.01170209       8.50226030
Si       5.58760129       6.61182285       2.32338477
Si       5.82206273       5.37631036       0.45513502
Si       6.88340697       7.24721458      10.37051004
Si       4.14084917       5.67464785       5.88261210
Si       8.56462053       6.94887709       4.94303297
Si      10.39172581       7.93896644       4.49394845
Si       2.31374389       4.68455850       6.33169661
Si       3.80595420       3.70628721       5.17693430
Si       8.89951550       8.91723773       5.64871076
Si       6.70023685       8.36758630       1.94348577
Si       6.00523285       4.25593864       8.88215930
16
Lattice="7.942380144360725 1.1734696933227733 -0.07483168981417417 2.7226213543909528 7.774816999015193 0.865955876603927 2.6335843274275366 3.4191435734895954 10.015807710794276" Properties=species:S:1:pos:R:3 unique_starting_index=30 config_type=initial n_minim_iter=18 stress="0.05602888438556182 0.0005414062611977743 -0.009140727784620516 0.0005414062611977743 0.012727695220820899 -0.005467143112974644 -0.009140727784620516 -0.005467143112974644 0.010696350046633921" pbc="T T T"
Si       7.33695345       7.87714871       5.81740198
Si       5.96163238       4.49028156       4.98952991
Si       4.56390987       5.53678703       3.80045243
Si       8.73467595       6.83064323       7.00647947
Si       7.50290380       5.89662434       8.49717412
Si       5.79568203       6.47080592       2.30975778
Si       6.06254060       5.28471639       0.48096661
Si       7.23604523       7.08271388      10.32596529
Si       4.37412775       5.59637573       5.89375007
Si       8.92445807       6.77105454       4.91318183
Si      10.82809041       7.67923159       4.58685656
Si       2.47049542       4.68819868       6.22007534
Si       4.01867371       3.63820244       5.18792560
Si       9.27991212       8.72922782       5.61900629
Si       6.93193125       8.21968121       1.94397515
Si       6.36665457       4.14774906       8.86295675
16
Lattice="8.282091600962024 1.1240383568079946 0.0558616925143232 2.8007552753260208 7.660669075119353 0.8106637881429628 2.8872750296888636 3.2513648346028066 9.930571525284046" Properties=species:S:1:pos:R:3 unique_starting_index=30 config_type=initial n_minim_iter=19 stress="0.08382133456662835 -0.015875556180706102 -0.009244603748729895 -0.015875556180706102 0.040995914510633474 -0.011637221514080365 -0.009244603748729895 -0.011637221514080365 0.029979291870742768" pbc="T T T"
Si       7.76325809       7.65598707       5.80916040
Si       6.20686381       4.38008519       4.98793661
Si       4.77450397       5.40846259       3.80586295
Si       9.19561794       6.62760968       6.99123405
Si       7.97028546       5.73183851       8.51790058
Si       5.99983644       6.30423375       2.27919643
Si       6.31915999       5.18066413       0.50525579
Si       7.65096191       6.85540814      10.29184121
Si       4.64100906       5.49698135       5.89626058
Si       9.32911284       6.53909092       4.90083643
Si      11.30261468       7.36185105       4.72404396
Si       2.66750722       4.67422122       6.07305305
Si       4.28568637       3.54060049       5.20008121
Si       9.68443554       8.49547178       5.59701580
Si       7.16206951       8.05338285       1.92246889
Si       6.80805239       3.98268942       8.87462812
16
Lattice="8.294314001670788 1.1226864775128889 0.060126218067106545 2.803987733601332 7.654700094453396 0.8052133092460719 2.8963851534764675 3.2406094619297625 9.923673182200965" Properties=species:S:1:pos:R:3 unique_starting_index=30 config_type=initial n_minim_iter=20 stress="0.08417277013287525 -0.01746686216954327 -0.006701016457358657 -0.01746686216954327 0.03162249087166242 -0.007000802124162311 -0.006701016457358657 -0.007000802124162311 0.019931173839936655" pbc="T T T"
Si       7.77917609       7.64388656       5.80409053
Si       6.21551080       4.37410947       4.98492218
Si       4.78186665       5.40138210       3.80273972
Si       9.21282024       6.61661393       6.98627299
Si       7.98828843       5.72233491       8.51476322
Si       6.00639846       6.29566112       2.27424949
Si       6.32897590       5.17590665       0.50377897
Si       7.66571099       6.84208939      10.28523374
Si       4.65061467       5.49054451       5.89298367
Si       9.34407222       6.52745152       4.89602904
Si      11.31903102       7.34635954       4.72556392
Si       2.67565587       4.67163649       6.06344879
Si       4.29471139       3.53434126       5.19709155
Si       9.69997550       8.48365477       5.59192116
Si       7.16962050       8.04460205       1.91715580
Si       6.82506639       3.97339398       8.87185691
16
Lattice="8.12371698746686 1.1458755349497425 0.013577686050077507 2.7616323425057674 7.6601420360323775 0.6855920087460509 2.8150373848028973 3.1134516195602284 9.849627038458607" Properties=species:S:1:pos:R:3 unique_starting_index=30 config_type=initial n_minim_iter=21 stress="0.012625177888684815 0.0021448132236805903 0.015015688178906033 0.0021448132236805903 0.021380806544527932 -0.039528652552562625 0.015015688178906033 -0.039528652552562625 0.011926405488894017" pbc="T T T"
Si       7.61538336       7.58237880       5.63725897
Si       6.08500336       4.33709039       4.91153776
Si       4.66297150       5.35865663       3.68574813
Si       9.03741522       6.56081256       6.86304860
Si       7.84499336       5.64621572       8.40242051
Si       5.85539336       6.27325347       2.14637622
Si       6.21625983       5.17762702       0.39798284
Si       7.48412688       6.74184217      10.15081389
Si       4.52345560       5.43529193       5.77574382
Si       9.17693112       6.48417726       4.77305291
Si      11.06086210       7.31863336       4.57773479
Si       2.63952461       4.60083583       5.97106194
Si       4.17892633       3.47176348       5.08559732
Si       9.52146039       8.44770571       5.46319941
Si       7.01605937       8.03009726       1.74850675
Si       6.68432735       3.88937193       8.80028998
