16
Lattice="8.752830235424334 0.1657602634362427 0.14931084940465184 1.9645233445922516 8.207705651926167 1.2864396556364877 2.750777559899228 3.7746798064698477 9.80097064787353" Properties=species:S:1:pos:R:3 unique_starting_index=30 config_type=initial n_minim_iter=1 energy=-2618.900644796669 free_energy=-2618.900644796669 pbc="T T T"
Si       8.15006779       6.82220044       7.00892441
Si       5.31806335       5.32594528       4.22779674
Si       3.46306418       5.34910433       3.25337090
Si      10.00506696       6.79904139       7.98335026
Si       8.31563299       5.96082432       8.93776138
Si       5.15249815       6.18732140       2.29895977
Si       5.65011510       5.18037105       0.50032251
Si       7.81801604       6.96777467      10.73639864
Si       3.84145676       6.73323393       4.80742505
Si       9.62667438       5.41491179       6.42929610
Si      10.71738237       6.02067314       4.71771805
Si       2.75074877       6.12747258       6.51900310
Si       3.58153818       4.68191286       5.26671306
Si       9.88659296       7.46623286       5.97000809
Si       5.84845818       8.18863147       2.29028294
Si       7.61967296       3.95951426       8.94643821
16
Lattice="8.77292465158404 0.16748172968594946 0.13772699515492204 1.969418910047107 8.189866222734228 1.278471872866071 2.745360378658956 3.7623053266639017 9.785614109650279" Properties=species:S:1:pos:R:3 unique_starting_index=30 config_type=initial n_minim_iter=2 stress="0.0014796013384870566 0.0008212696348964513 -0.004146527149465488 0.0008212696348964513 -0.0027912436437660905 -0.001633614279814056 -0.004146527149465488 -0.001633614279814056 -0.002701490908256304" pbc="T T T"
Si       8.16171484       6.80587044       6.98796736
Si       5.32598910       5.31378284       4.21384562
Si       3.46832781       5.33653091       3.24308358
Si      10.01937613       6.78312237       7.95872940
Si       8.32453271       5.94509738       8.91495703
Si       5.16317123       6.17455589       2.28685594
Si       5.66394393       5.17025858       0.49000982
Si       7.82376001       6.94939469      10.71180316
Si       3.84564425       6.71728674       4.79437944
Si       9.64205969       5.40236654       6.40743354
Si      10.73731617       6.00776409       4.69647035
Si       2.75038777       6.11188919       6.50534263
Si       3.58430864       4.67024088       5.25411584
Si       9.90339530       7.44941240       5.94769714
Si       5.86074226       8.17088686       2.27696946
Si       7.62696168       3.94876642       8.92484352
16
Lattice="8.790082807993794 0.165836922433307 0.1449461764971769 1.9728624820963006 8.181714600593965 1.283191956365429 2.7580327443389048 3.7612663172909517 9.792296787632347" Properties=species:S:1:pos:R:3 unique_starting_index=30 config_type=initial n_minim_iter=3 stress="0.0062658946419494495 -0.003988992321724608 -0.0015126531005038807 -0.003988992321724608 -0.0006932422212653469 0.0006754092519677631 -0.0015126531005038807 0.0006754092519677631 0.0031572040354256484" pbc="T T T"
Si       8.18326093       6.79982418       6.99879797
Si       5.33771710       5.30899367       4.22163695
Si       3.47772437       5.33125622       3.24862125
Si      10.04325366       6.77756162       7.97181367
Si       8.34739576       5.94002671       8.92609348
Si       5.17358227       6.16879113       2.29434144
Si       5.67496033       5.16379419       0.49634406
Si       7.84601771       6.94502365      10.72409086
Si       3.85536749       6.71172303       4.80205884
Si       9.66561055       5.39709481       6.41837608
Si      10.75982572       6.00054928       4.70905358
Si       2.76115231       6.10826856       6.51138134
Si       3.59569501       4.66679679       5.25953971
Si       9.92528302       7.44202105       5.96089521
Si       5.87214485       8.16210594       2.28686313
Si       7.64883318       3.94671190       8.93357179
16
Lattice="8.791440998545117 0.17043130074047658 0.1483979520251244 1.978047588037156 8.178252157245566 1.2832427646852653 2.7643770428221566 3.760467155711776 9.789022004772672" Properties=species:S:1:pos:R:3 unique_starting_index=30 config_type=initial n_minim_iter=4 stress="2.9803976142593e-06 -0.0020782883957945197 0.0017957865537837972 -0.0020782883957945197 -0.005045157369625498 0.0009891404957090848 0.0017957865537837972 0.0009891404957090848 -0.004085818218820751" pbc="T T T"
Si       8.19160450       6.80022813       6.99862327
Si       5.34226113       5.30892248       4.22203945
Si       3.48294508       5.32993128       3.24838714
Si      10.05092055       6.77921934       7.97227559
Si       8.35561772       5.94078820       8.92515337
Si       5.17824791       6.16836241       2.29550935
Si       5.67899470       5.16376070       0.49826531
Si       7.85487093       6.94538991      10.72239741
Si       3.86123891       6.71017718       4.80166801
Si       9.67262672       5.39897344       6.41899471
Si      10.76607446       6.00233736       4.71146148
Si       2.76779117       6.10681325       6.50920124
Si       3.60119886       4.66619943       5.25810291
Si       9.93266677       7.44295118       5.96255982
Si       5.87818734       8.16063347       2.28873459
Si       7.65567828       3.94851715       8.93192814
16
Lattice="8.79609810818752 0.1788557167997018 0.14784017387259313 1.9868818845198752 8.18140974728609 1.2814215953540766 2.768799236947159 3.761340535443703 9.79097693624536" Properties=species:S:1:pos:R:3 unique_starting_index=30 config_type=initial n_minim_iter=5 stress="0.0008851741303989729 0.0021328430379145484 -0.001263783428705452 0.0021328430379145484 -0.005031626005680808 -0.0003946214066437973 -0.001263783428705452 -0.0003946214066437973 0.001996555039651023" pbc="T T T"
Si       8.20289480       6.80760169       6.99822996
Si       5.34888443       5.31400431       4.22200875
Si       3.49049274       5.33322770       3.24762638
Si      10.06128649       6.78837830       7.97261232
Si       8.36551854       5.94732029       8.92559715
Si       5.18626069       6.17428571       2.29464155
Si       5.68728984       5.16975442       0.49665942
Si       7.86448939       6.95185158      10.72357929
Si       3.86908822       6.71442442       4.80152737
Si       9.68269101       5.40718158       6.41871134
Si      10.77685612       6.01180323       4.71107434
Si       2.77492311       6.10980276       6.50916437
Si       3.60765763       4.66940251       5.25773409
Si       9.94412160       7.45220349       5.96250461
Si       5.88900197       8.16726049       2.28775839
Si       7.66277726       3.95434551       8.93248031
16
Lattice="8.806208718367321 0.18384806085171232 0.14662463688281954 1.99356359330542 8.190272413885596 1.2768778170312773 2.7729232724675716 3.7629428994758714 9.780130480249932" Properties=species:S:1:pos:R:3 unique_starting_index=30 config_type=initial n_minim_iter=6 stress="0.003511597720422793 0.0016457405001968142 -0.003263121485494211 0.0016457405001968142 -0.0022050072024659504 -6.203501455988394e-05 -0.003263121485494211 -6.203501455988394e-05 -0.002719767751221933" pbc="T T T"
Si       8.21661996       6.81658338       6.98778347
Si       5.35607562       5.32047999       4.21584946
Si       3.49863316       5.33897426       3.24174129
Si      10.07406243       6.79808911       7.96189164
Si       8.37823204       5.95406393       8.91351294
Si       5.19446355       6.18299945       2.29011999
Si       5.69732810       5.17741003       0.49354846
Si       7.87536748       6.95965335      10.71008448
Si       3.87591659       6.72268293       4.79448480
Si       9.69677899       5.41438045       6.40914813
Si      10.79187519       6.02073647       4.70381771
Si       2.78082040       6.11632691       6.49981522
Si       3.61453167       4.67437740       5.24967669
Si       9.95816391       7.46268597       5.95395625
Si       5.90052756       8.17797031       2.28246151
Si       7.67216802       3.95909306       8.92117142
16
Lattice="8.835678278825457 0.18970675598434397 0.15126191005166303 2.0070839624668806 8.17673169580547 1.249074571087425 2.7908174034751 3.7256714009337553 9.76795805287653" Properties=species:S:1:pos:R:3 unique_starting_index=30 config_type=initial n_minim_iter=7 stress="-0.0001630161126709672 -0.00079462365905028 0.000478731786998345 -0.00079462365905028 0.0006897549744152563 -0.0060727331130058905 0.000478731786998345 -0.0060727331130058905 0.0021450045336204307" pbc="T T T"
Si       8.25916209       6.79038767       6.96658585
Si       5.37441756       5.30172218       4.20170869
Si       3.52391523       5.32256514       3.22165065
Si      10.10966442       6.76954472       7.94664388
Si       8.42020017       5.91850137       8.89464787
Si       5.21337947       6.17360848       2.27364666
Si       5.72375885       5.17092392       0.47896653
Si       7.90982079       6.92118593      10.68932801
Si       3.89321977       6.70556462       4.77349545
Si       9.74035988       5.38654524       6.39479909
Si      10.83601294       5.99859032       4.68975671
Si       2.79756670       6.09351953       6.47853782
Si       3.63607269       4.65384274       5.23167390
Si       9.99750695       7.43826711       5.93662064
Si       5.93124274       8.16390901       2.25745908
Si       7.70233690       3.92820084       8.91083545
16
Lattice="8.8527962973836 0.1970421413978238 0.15068070407559533 2.0178275658135543 8.168350442088803 1.2520220299479843 2.798659710340048 3.726796256992067 9.769641605828824" Properties=species:S:1:pos:R:3 unique_starting_index=30 config_type=initial n_minim_iter=8 stress="-0.0024812444089949634 -0.0007215454512637041 -0.002006562340910074 -0.0007215454512637041 -0.0005436228903729484 0.0007818426221403471 -0.002006562340910074 0.0007818426221403471 0.0051925843947614484" pbc="T T T"
Si       8.28328018       6.79151073       6.96852487
Si       5.38600339       5.30067811       4.20381947
Si       3.53881684       5.31942355       3.22202428
Si      10.13046673       6.77276529       7.95032006
Si       8.44296705       5.91973350       8.89488941
Si       5.22631652       6.17245534       2.27745493
Si       5.74101924       5.16790082       0.48044869
Si       7.92826433       6.92428802      10.69189565
Si       3.90392186       6.70484903       4.77633328
Si       9.76536171       5.38733982       6.39601106
Si      10.86251844       5.99830457       4.69132876
Si       2.80676513       6.09388427       6.48101558
Si       3.64770018       4.65379459       5.23157065
Si      10.02158339       7.43839425       5.94077369
Si       5.95173322       8.15950341       2.25995926
Si       7.71755036       3.93268543       8.91238508
16
Lattice="8.866522161277642 0.20354093035609996 0.15573824038197787 2.0277673847992705 8.167886173039141 1.2512622149654624 2.8114775097028737 3.726184644416845 9.768072864995931" Properties=species:S:1:pos:R:3 unique_starting_index=30 config_type=initial n_minim_iter=9 stress="-0.0007283625112757976 0.0008179623337120081 -0.0006640821819491076 0.0008179623337120081 0.0018062862888873763 0.00032056014075832644 -0.0006640821819491076 0.00032056014075832644 0.004454840617183193" pbc="T T T"
Si       8.30606955       6.79467817       6.97040315
Si       5.39969750       5.30293358       4.20467017
Si       3.55119808       5.32015162       3.22173211
Si      10.15456897       6.77746013       7.95334121
Si       8.46611249       5.92259786       8.89587382
Si       5.23965457       6.17501389       2.27919950
Si       5.75459200       5.17061016       0.48290478
Si       7.95117505       6.92700158      10.69216854
Si       3.91676338       6.70640010       4.77618613
Si       9.78900368       5.39121165       6.39888719
Si      10.88669832       6.00288746       4.69477770
Si       2.81906874       6.09472429       6.48029562
Si       3.66006518       4.65460898       5.23112204
Si      10.04570188       7.44300277       5.94395128
Si       5.96921209       8.16202231       2.26115004
Si       7.73655496       3.93558944       8.91392328
16
Lattice="8.960627710632037 0.22220130782559963 0.19498136307695416 2.0730350815328498 8.136926351125336 1.234028283206045 2.8939261531546654 3.688342108065217 9.758260360547506" Properties=species:S:1:pos:R:3 unique_starting_index=30 config_type=initial n_minim_iter=10 stress="0.004235318215596024 -0.0014843053124271564 -0.0006014308719828009 -0.0014843053124271564 0.010719293129411072 -0.003490153829165978 -0.0006014308719828009 -0.003490153829165978 0.0015734208471340227" pbc="T T T"
Si       8.45623496       6.75949239       6.98435356
Si       5.47135398       5.28797737       4.20291645
Si       3.62495901       5.29673929       3.21251979
Si      10.30262993       6.75073047       7.97475021
Si       8.61392646       5.88383567       8.90087848
Si       5.31366249       6.16363409       2.28639152
Si       5.83931857       5.15855310       0.50010707
Si       8.08827037       6.88891667      10.68716293
Si       3.97175801       6.68677706       4.76990535
Si       9.95583094       5.36069271       6.41736465
Si      11.05313371       5.97108626       4.71843620
Si       2.87445523       6.07638351       6.46883381
Si       3.73565712       4.62848554       5.22781387
Si      10.19193182       7.41898423       5.95945614
Si       6.07063174       8.14186570       2.27152450
Si       7.85695720       3.90560407       8.91574551
16
Lattice="9.074639647688425 0.23144967030100447 0.24326449462865826 2.115009361575067 8.10764806050644 1.2304097497669364 2.988201363987673 3.6608713003320035 9.765837122189449" Properties=species:S:1:pos:R:3 unique_starting_index=30 config_type=initial n_minim_iter=11 stress="-0.0009758987179324901 -0.003349133422546686 0.004744910636189567 -0.003349133422546686 0.004901372545306239 -0.0011062093811775263 0.004744910636189567 -0.0011062093811775263 -0.004652089112127101" pbc="T T T"
Si       8.62651415       6.72294328       7.01755296
Si       5.55133622       5.27702575       4.22195840
Si       3.70085157       5.27428210       3.22256637
Si      10.47699880       6.72568693       8.01694500
Si       8.78245546       5.84498895       8.93160927
Si       5.39539491       6.15498008       2.30790210
Si       5.93198151       5.14165057       0.52565371
Si       8.24586887       6.85831846      10.71385766
Si       4.03944716       6.66305991       4.77726358
Si      10.13840322       5.33690912       6.46224778
Si      11.24112473       5.94304737       4.76935327
Si       2.93672564       6.05692166       6.47015810
Si       3.82137119       4.60603412       5.23953336
Si      10.35647918       7.39393491       5.99997801
Si       6.18079928       8.12088441       2.29330583
Si       7.99705109       3.87908463       8.94620554
16
Lattice="9.153572369137539 0.22811577442217293 0.263501204404224 2.132592543289147 8.094648455294221 1.2437179406772272 3.0340003811365888 3.6641808445757773 9.775627134098164" Properties=species:S:1:pos:R:3 unique_starting_index=30 config_type=initial n_minim_iter=12 stress="0.0026983583142277516 0.0014344007555803107 -0.0005640829087212623 0.0014344007555803107 0.004858490156347155 0.0006241688450959302 -0.0005640829087212623 0.0006241688450959302 -0.001198410010149036" pbc="T T T"
Si       8.72465319       6.70378172       7.04400110
Si       5.59551210       5.28316335       4.23884518
Si       3.74920454       5.26817717       3.24100376
Si      10.57096075       6.71876790       8.04184252
Si       8.88500577       5.83579080       8.95606616
Si       5.43515952       6.15115427       2.32678012
Si       5.98948989       5.13143735       0.54983045
Si       8.33067541       6.85550772      10.73301583
Si       4.07408779       6.65474284       4.78853979
Si      10.24607751       5.33220223       6.49430649
Si      11.35751203       5.93215013       4.80028900
Si       2.96265326       6.05479494       6.48255728
Si       3.86118813       4.60094769       5.25463054
Si      10.45897716       7.38599738       6.02821574
Si       6.24328583       8.11172632       2.32134894
Si       8.07687946       3.87521876       8.96149734
16
Lattice="9.184687156616874 0.21951763445275788 0.2789855618123989 2.1333865423037923 8.097613819467133 1.2640321886867196 3.056821106663182 3.682363432959902 9.789936069494935" Properties=species:S:1:pos:R:3 unique_starting_index=30 config_type=initial n_minim_iter=13 stress="-0.0003366747538062475 -0.0008752600020752958 0.0007371264929283593 -0.0008752600020752958 -0.0036205444772546744 0.003078365858360191 0.0007371264929283593 0.003078365858360191 -0.0038574298054590605" pbc="T T T"
Si       8.76592863       6.70417430       7.07229346
Si       5.60896617       5.29532058       4.26066036
Si       3.76760263       5.27159943       3.26549285
Si      10.60729218       6.72789545       8.06746097
Si       8.92703639       5.84006759       8.98828062
Si       5.44785842       6.15942729       2.34467320
Si       6.00897505       5.13041166       0.57655661
Si       8.36591976       6.86908323      10.75639721
Si       4.08503257       6.66407078       4.80588216
Si      10.28986224       5.33542411       6.52707166
Si      11.40429952       5.93292326       4.82919486
Si       2.97059529       6.06657163       6.50375896
Si       3.87448967       4.60912545       5.27168489
Si      10.50040514       7.39036944       6.06126893
Si       6.26266405       8.11182852       2.35158604
Si       8.11223076       3.88766637       8.98136778
16
Lattice="9.210866631931019 0.22284603486672852 0.30531552117552685 2.1453947150142585 8.112744586006913 1.2975665778448673 3.0945817660197554 3.7177897680066745 9.831807094952799" Properties=species:S:1:pos:R:3 unique_starting_index=30 config_type=initial n_minim_iter=14 stress="0.0019597519692953693 -0.0012668221586708082 0.0009220539615245386 -0.0012668221586708082 -0.003229546047727384 0.0035265536334975795 0.0009220539615245386 0.0035265536334975795 -0.0049965879518662154" pbc="T T T"
Si       8.81648499       6.73087468       7.13180501
Si       5.63435812       5.32250571       4.30288418
Si       3.79159451       5.28839917       3.30222837
Si      10.65924860       6.76498122       8.13246082
Si       8.98119678       5.87108068       9.05637600
Si       5.46964633       6.18229971       2.37831320
Si       6.03135304       5.14335499       0.61711760
Si       8.41949007       6.91002540      10.81757159
Si       4.10740115       6.68922998       4.84804185
Si      10.34344196       5.36415041       6.58664735
Si      11.45600764       5.96151307       4.89398396
Si       2.99483548       6.09186732       6.54070523
Si       3.89556928       4.63540033       5.31411482
Si      10.55527384       7.41798006       6.12057437
Si       6.29174476       8.12940089       2.39946788
Si       8.15909836       3.92397950       9.03522132
16
Lattice="9.230604255841923 0.22629633881145347 0.323012899546083 2.1548698892815987 8.136744900969168 1.317309423943435 3.121150450806676 3.745396011136598 9.856198395938183" Properties=species:S:1:pos:R:3 unique_starting_index=30 config_type=initial n_minim_iter=15 stress="-0.001381550781993844 0.00024141651298788863 0.000410065271889914 0.00024141651298788863 0.0004751000579070772 0.0020718905225635847 0.000410065271889914 0.0020718905225635847 -0.002556734315011348" pbc="T T T"
Si       8.86014823       6.75738116       7.16918491
Si       5.64647637       5.35105609       4.32733581
Si       3.80999729       5.30754271       3.32642196
Si      10.69662731       6.80089454       8.17009876
Si       9.02208143       5.89864427       9.09681024
Si       5.48454317       6.20979298       2.39971048
Si       6.05067238       5.16033812       0.64565392
Si       8.45595222       6.94809913      10.85086680
Si       4.12168655       6.71877925       4.87065316
Si      10.38493804       5.38965800       6.62586756
Si      11.49635417       5.99292897       4.93351539
Si       3.01027043       6.11550828       6.56300533
Si       3.91277283       4.66342149       5.34267096
Si      10.59385177       7.44501576       6.15384976
Si       6.31503368       8.15457343       2.43089960
Si       8.19159092       3.95386382       9.06562112
16
Lattice="9.252305896631007 0.22865122712807678 0.33474240362266344 2.1634729672387567 8.140664399065273 1.3246761450055646 3.141768987271158 3.7518358290719376 9.869645816226853" Properties=species:S:1:pos:R:3 unique_starting_index=30 config_type=initial n_minim_iter=16 stress="-0.0005751857118173721 0.0006305291550435459 0.001064846695538973 0.0006305291550435459 -0.001616531264022863 0.0004449202288097731 0.001064846695538973 0.0004449202288097731 -7.070791916175902e-05" pbc="T T T"
Si       8.89650550       6.76326990       7.18856569
Si       5.66104235       5.35788156       4.34049868
Si       3.82587711       5.31090025       3.33850984
Si      10.73167074       6.81025120       8.19055453
Si       9.05856235       5.90473784       9.11970190
Si       5.49898550       6.21641362       2.40936247
Si       6.06920117       5.16364865       0.66050997
Si       8.48834668       6.95750280      10.86855440
Si       4.13448083       6.72539630       4.88148197
Si      10.42306702       5.39575516       6.64758239
Si      11.53358901       6.00155293       4.95469642
Si       3.02395884       6.11959852       6.57436795
Si       3.92867986       4.67394004       5.35684111
Si      10.62886799       7.44721142       6.17222326
Si       6.33685027       8.15993305       2.44581889
Si       8.22069758       3.96121841       9.08324548
16
Lattice="9.31530241156492 0.23587637152545549 0.3624865912993692 2.1883459226642024 8.14536036847792 1.3264445666883526 3.19568897303814 3.7508016719071096 9.874340155641212" Properties=species:S:1:pos:R:3 unique_starting_index=30 config_type=initial n_minim_iter=17 stress="-0.001392626919272837 7.875850828910476e-05 -0.0008498754652929412 7.875850828910476e-05 -0.002671074667649336 -0.00011049044463207456 -0.0008498754652929412 -0.00011049044463207456 0.003163707821084844" pbc="T T T"
Si       9.00042785       6.76242338       7.21239002
Si       5.69890945       5.36961503       4.35088130
Si       3.87208118       5.31275321       3.35009618
Si      10.82725612       6.81928520       8.21317513
Si       9.16195915       5.90137044       9.13879937
Si       5.53737816       6.23066797       2.42447194
Si       6.12578303       5.16502496       0.68758004
Si       8.57355427       6.96701345      10.87569127
Si       4.16936225       6.73797686       4.88398597
Si      10.52997506       5.39406156       6.67928535
Si      11.63851482       6.01277747       4.98459270
Si       3.06082249       6.11926094       6.57867861
Si       3.97101285       4.68955685       5.37733685
Si      10.72832446       7.44248156       6.18593446
Si       6.39792644       8.16335893       2.46415963
Si       8.30141087       3.96867948       9.09911168
16
Lattice="9.34396137425806 0.23400347917956976 0.3691824879338807 2.193715123497533 8.154610030247635 1.3332356963936327 3.2112047052263115 3.761438106890382 9.873144534812047" Properties=species:S:1:pos:R:3 unique_starting_index=30 config_type=initial n_minim_iter=18 stress="0.000246411241619454 0.0004168824639631931 -0.0005968514708595728 0.0004168824639631931 0.0054403249202155295 -0.00019082891888049048 -0.0005968514708595728 -0.00019082891888049048 0.0035559126020501437" pbc="T T T"
Si       9.03648631       6.76966408       7.21718791
Si       5.71239489       5.38038754       4.35837481
Si       3.88614938       5.31866863       3.35666817
Si      10.86273182       6.83138299       8.21889455
Si       9.19992849       5.90897882       9.14664573
Si       5.54895272       6.24107279       2.42891699
Si       6.14730180       5.16623991       0.70017815
Si       8.60157940       6.98381170      10.87538457
Si       4.18158588       6.74986875       4.88736228
Si      10.56729532       5.40018286       6.68820044
Si      11.67858567       6.01648633       4.99465264
Si       3.07029553       6.13356529       6.58091008
Si       3.98379137       4.69855073       5.38257168
Si      10.76508983       7.45150089       6.19299104
Si       6.41831702       8.17105200       2.47331786
Si       8.33056418       3.97899961       9.10224486
16
Lattice="9.36240100121893 0.22278948779359317 0.3615902116433106 2.1861142801800026 8.154961685578213 1.3391798898788592 3.2036511474419096 3.7692082254901225 9.865170835629826" Properties=species:S:1:pos:R:3 unique_starting_index=30 config_type=initial n_minim_iter=19 stress="-0.0010547895053821194 0.0010230626992502913 0.0007079293306780592 0.0010230626992502913 0.0015918607455887598 0.0017731495221606371 0.0007079293306780592 0.0017731495221606371 0.001046917974334736" pbc="T T T"
Si       9.04393808       6.76533881       7.20948002
Si       5.70822835       5.38162058       4.35646092
Si       3.88226420       5.31733057       3.35547892
Si      10.86990223       6.82962883       8.21046202
Si       9.20602943       5.90968752       9.13927578
Si       5.54613699       6.23727188       2.42666516
Si       6.15518724       5.15885333       0.70515829
Si       8.59697919       6.98810607      10.86078265
Si       4.17848621       6.74996699       4.88551913
Si      10.57368022       5.39699241       6.68042181
Si      11.69024068       6.00445299       4.98619898
Si       3.06192574       6.14250641       6.57974196
Si       3.98121882       4.70086356       5.38203093
Si      10.77094761       7.44609584       6.18391001
Si       6.41723058       8.16588582       2.47312549
Si       8.33493585       3.98107357       9.09281545
16
Lattice="9.375060165284836 0.21072002565381334 0.3588442233875543 2.177359598832254 8.154462126210559 1.332382856805871 3.1997523730898587 3.761159718004646 9.850505269621321" Properties=species:S:1:pos:R:3 unique_starting_index=30 config_type=initial n_minim_iter=20 stress="-0.001001325038178107 -7.622284552058457e-05 0.0015802215340719441 -7.622284552058457e-05 -0.0019680663015260677 0.0010842692537310482 0.0015802215340719441 0.0010842692537310482 -0.002989551710928948" pbc="T T T"
Si       9.04802303       6.75051206       7.19412340
Si       5.70414911       5.37582981       4.34760895
Si       3.87725827       5.31191235       3.34913795
Si      10.87491386       6.81442952       8.19259440
Si       9.21210738       5.89445647       9.12378177
Si       5.54006476       6.23188540       2.41795058
Si       6.16068223       5.15016973       0.70294441
Si       8.59148991       6.97617214      10.83878794
Si       4.17193205       6.74283282       4.87328531
Si      10.58024008       5.38350905       6.66844704
Si      11.69679413       5.98419064       4.97329702
Si       3.05537801       6.14215123       6.56843533
Si       3.97662029       4.69582220       5.37516755
Si      10.77555185       7.43051967       6.16656480
Si       6.41288618       8.15788860       2.46343653
Si       8.33928596       3.96845327       9.07829582
16
Lattice="9.41203777564281 0.19813250324353124 0.3683243747044731 2.1752124261717642 8.15696689830312 1.3317331293512038 3.2168202218900217 3.7586879388650893 9.838019496835951" Properties=species:S:1:pos:R:3 unique_starting_index=30 config_type=initial n_minim_iter=21 stress="0.0010578723230338085 -0.0006653021918955152 -0.0006055598183416458 -0.0006653021918955152 -0.0009702738858583927 0.0002868907443727073 -0.0006055598183416458 0.0002868907443727073 0.0004987368083808089" pbc="T T T"
Si       9.08948147       6.73825911       7.19051352
Si       5.71458896       5.37552823       4.34756348
Si       3.88536018       5.30570419       3.34865499
Si      10.91871024       6.80808315       8.18942202
Si       9.25902768       5.88293571       9.12029550
Si       5.54504275       6.23085163       2.41778150
Si       6.18821322       5.14133969       0.71576453
Si       8.61585721       6.97244765      10.82231247
Si       4.17930259       6.74411718       4.86507060
Si      10.62476783       5.36967016       6.67300640
Si      11.74295290       5.96706071       4.97673775
Si       3.06111752       6.14672663       6.56133925
Si       3.98679662       4.69962346       5.37825953
Si      10.81727381       7.41416388       6.15981748
Si       6.42758911       8.15180408       2.46779957
Si       8.37648132       3.96198326       9.07027743
