22
Lattice="5.530561859251949 -0.6988454353548382 -1.3654002334858204 -2.4590707861179832 11.599968527881915 -2.308765677556596 -4.585233062651299 -5.78198700760417 10.817077345062916" Properties=species:S:1:pos:R:3 unique_starting_index=18 config_type=initial n_minim_iter=1 energy=-3586.0479538454533 free_energy=-3586.0479538454533 pbc="T T T"
Si       0.14390575      10.50056746      -1.28968294
Si      -1.53953524      -1.40540518       5.61344507
Si      -3.75375714      -3.88000943       9.49894551
Si       0.26864721      -3.11921458       8.54725305
Si      -5.53904813      -0.48792704       8.82877574
Si       4.31079669       2.26895044      -0.23056822
Si       2.44051710       0.99170838       0.02920075
Si      -2.03785675       1.78358117       8.23559028
Si      -1.68833688      -3.82123392       9.01679960
Si      -2.57458714       0.94480147       5.76153018
Si       1.20942995      -0.75068450       2.87423340
Si      -2.97365728       3.47204614       4.79651417
Si      -3.29509309      -2.91484469       6.39425636
Si      -0.86527536       7.55195186      -1.16437590
Si       1.17889538       1.19321480       3.73358110
Si       0.80311036       8.60462863      -1.97551774
Si      -0.91048166      -1.69949727       3.21576037
Si       2.57315100      -5.37148307       6.17889283
Si       0.27258909       2.76341601       2.63542229
Si      -3.25845112       2.69210807       6.75304362
Si      -1.21680447       4.14523442       3.26125728
Si      -1.33000578      -2.82359666       7.17963824
22
Lattice="5.530026022489796 -0.6991967162741631 -1.3654820464664592 -2.4596420728746993 11.59930182184396 -2.3088574544539058 -4.584296390541641 -5.781169276150514 10.817813974745327" Properties=species:S:1:pos:R:3 unique_starting_index=18 config_type=initial n_minim_iter=2 stress="-0.0011047321585545857 -0.0002955687259555234 -0.00021881250308851364 -0.0002955687259555234 -0.00018583882032434179 -0.0002986542158206009 -0.00021881250308851364 -0.0002986542158206009 3.8212116405896145e-05" pbc="T T T"
Si       0.14319481      10.49984887      -1.28966775
Si      -1.53921012      -1.40539679       5.61400832
Si      -3.75311969      -3.87926150       9.49960963
Si       0.26897142      -3.11899268       8.54786381
Si      -5.53847272      -0.48758541       8.82946747
Si       4.31014357       2.26853605      -0.23076754
Si       2.44022157       0.99140618       0.02932022
Si      -2.03769031       1.78365789       8.23636837
Si      -1.68797272      -3.82073351       9.01720445
Si      -2.57426009       0.94493610       5.76198522
Si       1.20933403      -0.75090208       2.87438492
Si      -2.97341213       3.47225624       4.79676097
Si      -3.29445356      -2.91430267       6.39471400
Si      -0.86576305       7.55145859      -1.16441661
Si       1.17848269       1.19306327       3.73399895
Si       0.80241948       8.60380769      -1.97562886
Si      -0.91019915      -1.69922414       3.21604013
Si       2.57334211      -5.37120571       6.17945764
Si       0.27228343       2.76341112       2.63563729
Si      -3.25831348       2.69224649       6.75350918
Si      -1.21685724       4.14497001       3.26147762
Si      -1.32966939      -2.82312537       7.18001079
22
Lattice="5.530442310608791 -0.6991845826016707 -1.365398455108053 -2.4597819364794433 11.599189032038325 -2.308578252132297 -4.584478746741474 -5.780858119092831 10.81770319232779" Properties=species:S:1:pos:R:3 unique_starting_index=18 config_type=initial n_minim_iter=3 stress="0.0002921087773265937 -0.00011381414648386245 0.00019929158621978646 -0.00011381414648386245 0.00036120210965870137 -0.00011638232246609802 0.00019929158621978646 -0.00011638232246609802 0.000545897537887681" pbc="T T T"
Si       0.14330371      10.49980885      -1.28933647
Si      -1.53920630      -1.40530764       5.61406819
Si      -3.75328202      -3.87893897       9.49956259
Si       0.26919425      -3.11872219       8.54791164
Si      -5.53874105      -0.48739325       8.82950157
Si       4.31050183       2.26858970      -0.23068036
Si       2.44044932       0.99141757       0.02942902
Si      -2.03763013       1.78390041       8.23657529
Si      -1.68796580      -3.82043781       9.01714038
Si      -2.57429743       0.94509216       5.76206451
Si       1.20947992      -0.75087177       2.87441621
Si      -2.97345581       3.47244946       4.79684597
Si      -3.29461042      -2.91410688       6.39464836
Si      -0.86580662       7.55139619      -1.16421287
Si       1.17860228       1.19319397       3.73417261
Si       0.80253132       8.60370070      -1.97537518
Si      -0.91019893      -1.69910417       3.21603785
Si       2.57364952      -5.37097192       6.17948328
Si       0.27236630       2.76355893       2.63577676
Si      -3.25840804       2.69244550       6.75361658
Si      -1.21680685       4.14503230       3.26162242
Si      -1.32963420      -2.82289131       7.17998779
22
Lattice="5.530497337048128 -0.6990966569596802 -1.365404342468257 -2.45957316928912 11.598616107807798 -2.30809724149391 -4.584738267345041 -5.780397510373534 10.817020014582102" Properties=species:S:1:pos:R:3 unique_starting_index=18 config_type=initial n_minim_iter=4 stress="7.742583083659218e-05 5.06638519039176e-05 0.00011633709670878361 5.06638519039176e-05 -8.91542555797111e-05 0.00021294282249868934 0.00011633709670878361 0.00021294282249868934 -0.00025310499980024426" pbc="T T T"
Si       0.14352727      10.49935762      -1.28896196
Si      -1.53929623      -1.40515976       5.61376608
Si      -3.75350973      -3.87854354       9.49899778
Si       0.26906776      -3.11835134       8.54736721
Si      -5.53889418      -0.48723504       8.82911036
Si       4.31057817       2.26858507      -0.23070986
Si       2.44050732       0.99142271       0.02942813
Si      -2.03769322       1.78403304       8.23625634
Si      -1.68815813      -3.82004692       9.01656971
Si      -2.57435691       0.94518398       5.76182413
Si       1.20943844      -0.75078727       2.87421973
Si      -2.97344738       3.47243036       4.79670664
Si      -3.29476881      -2.91385156       6.39426194
Si      -0.86568634       7.55103872      -1.16392434
Si       1.17856495       1.19328534       3.73402906
Si       0.80272887       8.60329817      -1.97502660
Si      -0.91026976      -1.69894697       3.21583347
Si       2.57350904      -5.37053750       6.17899641
Si       0.27237323       2.76356844       2.63571329
Si      -3.25846189       2.69248076       6.75335946
Si      -1.21675692       4.14492379       3.26157421
Si      -1.32976530      -2.82261763       7.17955027
22
Lattice="5.530748685295125 -0.698852017016227 -1.3659788284641394 -2.4591023289103573 11.598066768156427 -2.308506037904496 -4.586091474131424 -5.7807526056015 10.818151856747384" Properties=species:S:1:pos:R:3 unique_starting_index=18 config_type=initial n_minim_iter=5 stress="0.00016790343616819939 0.0004900286898669265 -0.0003467270069757088 0.0004900286898669265 0.00025540903061165623 -0.00048746550196028765 -0.0003467270069757088 -0.00048746550196028765 -4.272388429735659e-05" pbc="T T T"
Si       0.14405385      10.49887303      -1.28951821
Si      -1.53990578      -1.40555123       5.61415181
Si      -3.75476786      -3.87872736       9.49991507
Si       0.26818273      -3.11861773       8.54774345
Si      -5.53989666      -0.48784649       8.83016972
Si       4.31071985       2.26867662      -0.23163323
Si       2.44068941       0.99143515       0.02910690
Si      -2.03847070       1.78348884       8.23687259
Si      -1.68929051      -3.82030754       9.01732985
Si      -2.57496991       0.94485857       5.76226130
Si       1.20909425      -0.75113039       2.87417378
Si      -2.97384772       3.47205650       4.79689093
Si      -3.29563117      -2.91400738       6.39493647
Si      -0.86552133       7.55063282      -1.16424675
Si       1.17816756       1.19314729       3.73414135
Si       0.80327014       8.60290622      -1.97553456
Si      -0.91068138      -1.69897690       3.21610810
Si       2.57273391      -5.37057134       6.17928115
Si       0.27208526       2.76351703       2.63558870
Si      -3.25915619       2.69194766       6.75370104
Si      -1.21691667       4.14444715       3.26155174
Si      -1.33054595      -2.82311782       7.18015163
22
Lattice="5.5307733512405415 -0.6995049708488116 -1.3661661144487882 -2.4603879577308296 11.597008455601905 -2.3078968048616164 -4.585434936423885 -5.778906881742032 10.818668014725452" Properties=species:S:1:pos:R:3 unique_starting_index=18 config_type=initial n_minim_iter=6 stress="8.243230095187186e-05 -0.00022306928251338628 6.677070195699932e-05 -0.00022306928251338628 0.00020620097156380608 -0.00013792074870715084 6.677070195699932e-05 -0.00013792074870715084 -0.00012419232808512308" pbc="T T T"
Si       0.14300349      10.49769556      -1.28888027
Si      -1.53972042      -1.40501023       5.61446663
Si      -3.75440608      -3.87706384       9.50044934
Si       0.26853726      -3.11775017       8.54818262
Si      -5.53977887      -0.48662946       8.83107806
Si       4.31038849       2.26804397      -0.23191847
Si       2.44066942       0.99106984       0.02911734
Si      -2.03862089       1.78411006       8.23790666
Si      -1.68899402      -3.81907427       9.01794949
Si      -2.57506272       0.94551685       5.76282224
Si       1.20907987      -0.75128074       2.87429421
Si      -2.97421267       3.47243838       4.79743097
Si      -3.29535888      -2.91279221       6.39524938
Si      -0.86649722       7.54983419      -1.16382570
Si       1.17795531       1.19327519       3.73466938
Si       0.80236662       8.60171017      -1.97505469
Si      -0.91049763      -1.69839804       3.21626494
Si       2.57317777      -5.36999380       6.17945337
Si       0.27166808       2.76360100       2.63592368
Si      -3.25945512       2.69255541       6.75436486
Si      -1.21730706       4.14432743       3.26205305
Si      -1.33019971      -2.82249860       7.18063487
22
Lattice="5.530641465682439 -0.6993373958635233 -1.3665805789509344 -2.4598604075718824 11.595423248218216 -2.307310616418871 -4.585836712405223 -5.77761292287709 10.819928568763615" Properties=species:S:1:pos:R:3 unique_starting_index=18 config_type=initial n_minim_iter=7 stress="-0.00029570974251420747 0.0002965078139537433 0.00019867586345172604 0.0002965078139537433 3.383593527072e-05 7.430505884970187e-05 0.00019867586345172604 7.430505884970187e-05 0.0004028286738671153" pbc="T T T"
Si       0.14349906      10.49638520      -1.28828628
Si      -1.53986966      -1.40460662       5.61516680
Si      -3.75473123      -3.87594369       9.50162379
Si       0.26817931      -3.11674129       8.54914303
Si      -5.53986178      -0.48613810       8.83260894
Si       4.31040953       2.26799793      -0.23211961
Si       2.44070489       0.99102342       0.02912865
Si      -2.03874385       1.78446887       8.23939121
Si      -1.68947325      -3.81801235       9.01907963
Si      -2.57514415       0.94578577       5.76377929
Si       1.20888354      -0.75105407       2.87461385
Si      -2.97414701       3.47233117       4.79840443
Si      -3.29556078      -2.91202866       6.39605123
Si      -0.86626832       7.54882218      -1.16342090
Si       1.17780550       1.19346308       3.73528035
Si       0.80271421       8.60052575      -1.97474511
Si      -0.91060191      -1.69792838       3.21666607
Si       2.57263957      -5.36891336       6.17987997
Si       0.27165160       2.76356596       2.63642882
Si      -3.25944074       2.69266998       6.75562552
Si      -1.21721183       4.14404095       3.26283173
Si      -1.33052618      -2.82192081       7.18145757
22
Lattice="5.5318710527671735 -0.6999847400775293 -1.3678861550709498 -2.461267207866282 11.59276850556857 -2.3061436299595695 -4.587980764231937 -5.774781919826992 10.821526108092929" Properties=species:S:1:pos:R:3 unique_starting_index=18 config_type=initial n_minim_iter=8 stress="0.00018789255954177755 -0.00011657868848805314 -0.0005217734833872481 -0.00011657868848805314 8.732075348976128e-05 0.0003012585625429364 -0.0005217734833872481 0.0003012585625429364 0.0003316619030953629" pbc="T T T"
Si       0.14271250      10.49371276      -1.28755496
Si      -1.54097547      -1.40391055       5.61582762
Si      -3.75671346      -3.87354168       9.50302943
Si       0.26689889      -3.11525559       8.54972075
Si      -5.54230357      -0.48466838       8.83496996
Si       4.31107278       2.26712356      -0.23325899
Si       2.44111886       0.99040876       0.02879291
Si      -2.04090691       1.78505796       8.24106686
Si      -1.69138851      -3.81611460       9.02013640
Si      -2.57680858       0.94643603       5.76494497
Si       1.20846785      -0.75096137       2.87467658
Si      -2.97597289       3.47236597       4.79970641
Si      -3.29699502      -2.91019173       6.39714729
Si      -0.86734167       7.54696005      -1.16278368
Si       1.17693664       1.19323418       3.73553927
Si       0.80216545       8.59800644      -1.97446076
Si      -0.91111844      -1.69697261       3.21713657
Si       2.57226751      -5.36763191       6.17968788
Si       0.27078897       2.76323744       2.63664877
Si      -3.26150210       2.69312003       6.75725777
Si      -1.21858726       4.14350535       3.26371159
Si      -1.33192527      -2.82106681       7.18213069
22
Lattice="5.532315849541336 -0.7001483135888309 -1.367774605095354 -2.4622953719152054 11.590393964969008 -2.3067135074977076 -4.587780525789078 -5.773651116116046 10.821675695241098" Properties=species:S:1:pos:R:3 unique_starting_index=18 config_type=initial n_minim_iter=9 stress="0.00023728683476809936 -3.5080580476463984e-05 6.351869571716848e-05 -3.5080580476463984e-05 -0.0005706723847228229 -0.00016737022221757818 6.351869571716848e-05 -0.00016737022221757818 0.00012983847529914183" pbc="T T T"
Si       0.14223038      10.49132155      -1.28798183
Si      -1.54084375      -1.40399717       5.61569858
Si      -3.75656322      -3.87262751       9.50306360
Si       0.26720743      -3.11489150       8.54982526
Si      -5.54246643      -0.48465942       8.83520250
Si       4.31148763       2.26655012      -0.23368523
Si       2.44137818       0.98993776       0.02886213
Si      -2.04109578       1.78452828       8.24114771
Si      -1.69144399      -3.81549123       9.02029744
Si      -2.57699732       0.94623382       5.76480609
Si       1.20853112      -0.75113399       2.87478076
Si      -2.97632516       3.47165644       4.79944740
Si      -3.29703043      -2.90938989       6.39716902
Si      -0.86812651       7.54529801      -1.16316575
Si       1.17683631       1.19255316       3.73547683
Si       0.80164434       8.59586375      -1.97489939
Si      -0.91098146      -1.69650911       3.21726226
Si       2.57268177      -5.36705249       6.18003025
Si       0.27061621       2.76261856       2.63628247
Si      -3.26169359       2.69254799       6.75708781
Si      -1.21892940       4.14252901       3.26344211
Si      -1.33177389      -2.82118322       7.18209274
22
Lattice="5.532183330422838 -0.7004310187269165 -1.3678571107299708 -2.46258020705766 11.59109885345512 -2.3062044229514824 -4.587651890377124 -5.773496664357617 10.821129137218792" Properties=species:S:1:pos:R:3 unique_starting_index=18 config_type=initial n_minim_iter=10 stress="-0.00011846398849984911 1.5336366545420346e-05 3.789581574566643e-05 1.5336366545420346e-05 0.0003754628220727012 7.854267657932907e-05 3.789581574566643e-05 7.854267657932907e-05 -0.00015595197002564218" pbc="T T T"
Si       0.14205970      10.49189234      -1.28754367
Si      -1.54079835      -1.40403590       5.61533590
Si      -3.75649631      -3.87228397       9.50258832
Si       0.26705150      -3.11477645       8.54937061
Si      -5.54240352      -0.48430436       8.83516318
Si       4.31148395       2.26670800      -0.23394451
Si       2.44135664       0.98984402       0.02893253
Si      -2.04130048       1.78507019       8.24104794
Si      -1.69159332      -3.81531706       9.01987969
Si      -2.57709308       0.94663252       5.76459430
Si       1.20837297      -0.75125967       2.87464452
Si      -2.97640295       3.47219735       4.79943283
Si      -3.29702927      -2.90909143       6.39684176
Si      -0.86845676       7.54572078      -1.16288591
Si       1.17655903       1.19260659       3.73534181
Si       0.80140151       8.59609751      -1.97460351
Si      -0.91094895      -1.69636737       3.21712285
Si       2.57244415      -5.36741982       6.17958784
Si       0.27044037       2.76294111       2.63608869
Si      -3.26170156       2.69316970       6.75699564
Si      -1.21911242       4.14295545       3.26342699
Si      -1.33176163      -2.82141321       7.18159869
22
Lattice="5.53255710638925 -0.7008745115646522 -1.3685324577872577 -2.4636162826125196 11.58867329916245 -2.3058606160582635 -4.588354722086852 -5.771532304062914 10.822004355301132" Properties=species:S:1:pos:R:3 unique_starting_index=18 config_type=initial n_minim_iter=11 stress="-2.028631406155063e-05 -4.944986641916966e-06 -9.052153631020421e-05 -4.944986641916966e-06 -0.0001387285558572691 9.018657987285479e-05 -9.052153631020421e-05 9.018657987285479e-05 3.704981308940832e-05" pbc="T T T"
Si       0.14161539      10.48937506      -1.28729091
Si      -1.54111177      -1.40397093       5.61542934
Si      -3.75742627      -3.87047770       9.50332960
Si       0.26621059      -3.11387446       8.54971380
Si      -5.54348015      -0.48388349       8.83673782
Si       4.31202247       2.26625911      -0.23496257
Si       2.44154564       0.98913851       0.02903923
Si      -2.04249309       1.78528053       8.24201116
Si      -1.69233618      -3.81394449       9.02052365
Si      -2.57803006       0.94702268       5.76498568
Si       1.20796157      -0.75154994       2.87470783
Si      -2.97730265       3.47191585       4.80017096
Si      -3.29783542      -2.90760301       6.39732890
Si      -0.86941481       7.54405049      -1.16280056
Si       1.17579684       1.19221361       3.73538113
Si       0.80079867       8.59360349      -1.97465798
Si      -0.91117601      -1.69556388       3.21736159
Si       2.57175023      -5.36674912       6.17954140
Si       0.26993100       2.76243012       2.63589447
Si      -3.26244237       2.69337401       6.75778156
Si      -1.21993367       4.14227575       3.26367480
Si      -1.33198721      -2.82115149       7.18150984
22
Lattice="5.532761173971476 -0.7011924715733178 -1.3681717173492907 -2.464723046275841 11.58841550494487 -2.3065328429287035 -4.587788859915927 -5.771700325361961 10.820863339108904" Properties=species:S:1:pos:R:3 unique_starting_index=18 config_type=initial n_minim_iter=12 stress="-9.687955403954498e-06 1.926994335833216e-05 2.1686066300748127e-05 1.926994335833216e-05 -5.637666665079275e-05 2.7880015455297595e-05 2.1686066300748127e-05 2.7880015455297595e-05 -0.00018228847840144784" pbc="T T T"
Si       0.14137051      10.48862726      -1.28775688
Si      -1.54065888      -1.40469446       5.61419003
Si      -3.75739591      -3.87026846       9.50227173
Si       0.26650731      -3.11436109       8.54885136
Si      -5.54346344      -0.48461256       8.83612868
Si       4.31274304       2.26649429      -0.23552586
Si       2.44184748       0.98872879       0.02926472
Si      -2.04228587       1.78484479       8.24099042
Si      -1.69211597      -3.81429940       9.01953150
Si      -2.57829918       0.94707695       5.76384131
Si       1.20789891      -0.75244556       2.87443265
Si      -2.97750737       3.47171525       4.79942213
Si      -3.29769021      -2.90734382       6.39669044
Si      -0.87039237       7.54382190      -1.16337372
Si       1.17546573       1.19195296       3.73478566
Si       0.79975259       8.59297475      -1.97494649
Si      -0.91105808      -1.69534367       3.21703713
Si       2.57164377      -5.36735358       6.17931060
Si       0.26998864       2.76206880       2.63520755
Si      -3.26219798       2.69342875       6.75664647
Si      -1.22012918       4.14190087       3.26269514
Si      -1.33168644      -2.82239166       7.17991229
22
Lattice="5.532863674023919 -0.7015689038358591 -1.3682775730767058 -2.4656132814546554 11.587738093452451 -2.3065883823826687 -4.587619689155277 -5.7710394914045935 10.820799107635075" Properties=species:S:1:pos:R:3 unique_starting_index=18 config_type=initial n_minim_iter=13 stress="-5.561693319305418e-05 4.80698397091298e-05 -2.4201267339763344e-05 4.80698397091298e-05 -7.662157435511852e-05 0.00010173757127868914 -2.4201267339763344e-05 0.00010173757127868914 -0.00010315647416075393" pbc="T T T"
Si       0.14112587      10.48770699      -1.28759089
Si      -1.54039677      -1.40495241       5.61350107
Si      -3.75758946      -3.86945521       9.50223522
Si       0.26637481      -3.11410712       8.54852691
Si      -5.54387372      -0.48497056       8.83669167
Si       4.31322394       2.26667454      -0.23596029
Si       2.44211137       0.98846257       0.02921404
Si      -2.04241921       1.78491672       8.24099221
Si      -1.69248962      -3.81411081       9.01924025
Si      -2.57889126       0.94748850       5.76343248
Si       1.20769923      -0.75300292       2.87443155
Si      -2.97780028       3.47183429       4.79939798
Si      -3.29797746      -2.90684877       6.39682130
Si      -0.87133817       7.54331938      -1.16349751
Si       1.17510066       1.19171218       3.73470140
Si       0.79888290       8.59194431      -1.97504084
Si      -0.91108946      -1.69490669       3.21699048
Si       2.57116934      -5.36705753       6.17930556
Si       0.26997551       2.76188136       2.63518558
Si      -3.26220536       2.69380300       6.75698465
Si      -1.22029946       4.14155318       3.26237902
Si      -1.33137186      -2.82308496       7.17927482
22
Lattice="5.533329679334255 -0.7021666637306665 -1.3679323195389126 -2.467503473288821 11.58741216316017 -2.3075763728666074 -4.586845676727464 -5.771003508898027 10.820214258013412" Properties=species:S:1:pos:R:3 unique_starting_index=18 config_type=initial n_minim_iter=14 stress="2.8624207047866644e-05 -2.4930165596851814e-05 3.359866148720711e-05 -2.4930165596851814e-05 -0.00012896262222048972 4.640674036911919e-05 3.359866148720711e-05 4.640674036911919e-05 -0.0001333342186494001" pbc="T T T"
Si       0.14014572      10.48702657      -1.28808567
Si      -1.53977054      -1.40577612       5.61258915
Si      -3.75733029      -3.86928977       9.50170707
Si       0.26692335      -3.11451275       8.54778255
Si      -5.54418561      -0.48573613       8.83638241
Si       4.31361777       2.26662322      -0.23635176
Si       2.44253589       0.98814215       0.02911477
Si      -2.04244674       1.78449639       8.24017293
Si      -1.69185521      -3.81441392       9.01866295
Si      -2.57934111       0.94757612       5.76243846
Si       1.20781575      -0.75366067       2.87447206
Si      -2.97832546       3.47166855       4.79857864
Si      -3.29784280      -2.90681573       6.39676196
Si      -0.87301663       7.54290479      -1.16414656
Si       1.17505395       1.19096089       3.73435590
Si       0.79773886       8.59091647      -1.97571927
Si      -0.91097290      -1.69471663       3.21673664
Si       2.57126682      -5.36729418       6.17922730
Si       0.26999549       2.76160252       2.63486174
Si      -3.26227155       2.69376799       6.75642643
Si      -1.22050819       4.14096075       3.26139844
Si      -1.33095482      -2.82436145       7.17798772
22
Lattice="5.533351002775557 -0.702436234093974 -1.367857150991694 -2.4682746330986527 11.588090910202537 -2.308591676750309 -4.586555356927356 -5.771925720227748 10.820196776994019" Properties=species:S:1:pos:R:3 unique_starting_index=18 config_type=initial n_minim_iter=15 stress="3.5455251300064056e-05 -1.7101178339913967e-06 5.197256469662548e-05 -1.7101178339913967e-06 -9.295439922625267e-05 2.937731822228269e-05 5.197256469662548e-05 2.937731822228269e-05 -3.3238617761922694e-05" pbc="T T T"
Si       0.13992135      10.48732561      -1.28869620
Si      -1.53930690      -1.40702099       5.61213513
Si      -3.75701978      -3.86992442       9.50161165
Si       0.26686815      -3.11520862       8.54710264
Si      -5.54440161      -0.48685240       8.83650970
Si       4.31363053       2.26699698      -0.23675813
Si       2.44276043       0.98804878       0.02906234
Si      -2.04253689       1.78405014       8.23965558
Si      -1.69176344      -3.81500397       9.01812256
Si      -2.57952359       0.94744049       5.76185006
Si       1.20771716      -0.75420120       2.87459590
Si      -2.97866365       3.47147237       4.79809395
Si      -3.29821834      -2.90733266       6.39694900
Si      -0.87408794       7.54315939      -1.16479155
Si       1.17476905       1.19072957       3.73402514
Si       0.79713703       8.59095355      -1.97643633
Si      -0.91095117      -1.69477818       3.21669586
Si       2.57051816      -5.36783907       6.17932028
Si       0.27015507       2.76145078       2.63465277
Si      -3.26223097       2.69365879       6.75584473
Si      -1.22044833       4.14073232       3.26060105
Si      -1.33084275      -2.82616113       7.17715448
22
Lattice="5.533237321249299 -0.7027967232212996 -1.367945166534122 -2.4690792063496994 11.589753576982474 -2.3099925735933233 -4.58647184785502 -5.773716383328143 10.820240515093088" Properties=species:S:1:pos:R:3 unique_starting_index=18 config_type=initial n_minim_iter=16 stress="0.00011137959871830461 1.2360113197158944e-05 3.35186318271172e-05 1.2360113197158944e-05 1.1667213365595362e-05 -4.65756489220788e-05 3.35186318271172e-05 -4.65756489220788e-05 4.130171116802261e-06" pbc="T T T"
Si       0.13967127      10.48828886      -1.28973973
Si      -1.53888301      -1.40892370       5.61167258
Si      -3.75679326      -3.87119316       9.50152330
Si       0.26657118      -3.11656004       8.54604107
Si      -5.54492455      -0.48851818       8.83661248
Si       4.31341862       2.26752013      -0.23739050
Si       2.44301221       0.98817463       0.02855323
Si      -2.04292035       1.78337991       8.23877051
Si      -1.69201321      -3.81640016       9.01788722
Si      -2.57982093       0.94713732       5.76108861
Si       1.20746741      -0.75488967       2.87468448
Si      -2.97910969       3.47141800       4.79734791
Si      -3.29899901      -2.90823567       6.39713481
Si      -0.87531892       7.54401410      -1.16573131
Si       1.17416447       1.19030185       3.73350872
Si       0.79612944       8.59170188      -1.97748104
Si      -0.91087473      -1.69500785       3.21678586
Si       2.56924187      -5.36905648       6.17936913
Si       0.27016435       2.76135287       2.63409551
Si      -3.26238770       2.69346569       6.75489927
Si      -1.22051073       4.14070884       3.25952183
Si      -1.33084906      -2.82856245       7.17581260
22
Lattice="5.532063580524277 -0.7038190781224278 -1.3683462475398531 -2.470719729961335 11.592784185684062 -2.312295175574311 -4.585312632765548 -5.776296376003226 10.82116297984674" Properties=species:S:1:pos:R:3 unique_starting_index=18 config_type=initial n_minim_iter=17 stress="9.869832310269202e-05 1.7908940639659285e-06 3.008249737182336e-05 1.7908940639659285e-06 0.0001188112358233232 -0.00010006483321801024 3.008249737182336e-05 -0.00010006483321801024 0.00019143058538176682" pbc="T T T"
Si       0.13865233      10.48979061      -1.29140088
Si      -1.53781233      -1.41208651       5.61116223
Si      -3.75618331      -3.87276135       9.50236533
Si       0.26637666      -3.11901909       8.54479353
Si      -5.54517234      -0.49102986       8.83758058
Si       4.31213636       2.26815430      -0.23836386
Si       2.44304158       0.98838814       0.02740023
Si      -2.04371820       1.78271338       8.23790638
Si      -1.69135259      -3.81822091       9.01766130
Si      -2.58001717       0.94690557       5.76026175
Si       1.20684656      -0.75592720       2.87515111
Si      -2.97957734       3.47172940       4.79639494
Si      -3.29989851      -2.90921933       6.39790554
Si      -0.87773589       7.54558290      -1.16729625
Si       1.17284000       1.18941035       3.73305629
Si       0.79327514       8.59281143      -1.97930655
Si      -0.91019142      -1.69513627       3.21751197
Si       2.56657070      -5.37118398       6.17993352
Si       0.26983386       2.76119636       2.63310133
Si      -3.26232262       2.69343641       6.75404626
Si      -1.22073009       4.14100332       3.25812520
Si      -1.33078813      -2.83307963       7.17435206
22
Lattice="5.531416506097095 -0.7044934793184754 -1.3686053796245798 -2.4718704586601095 11.594635261239208 -2.3137776979425695 -4.584500363525842 -5.777762562330336 10.822227597132407" Properties=species:S:1:pos:R:3 unique_starting_index=18 config_type=initial n_minim_iter=18 stress="0.00012257566298871721 1.1020481484025169e-05 4.9513096318571186e-05 1.1020481484025169e-05 0.00016471776774761764 -0.00015984619263388692 4.9513096318571186e-05 -0.00015984619263388692 0.00023971880242267245" pbc="T T T"
Si       0.13792244      10.49074722      -1.29239904
Si      -1.53711130      -1.41402931       5.61105604
Si      -3.75575894      -3.87359404       9.50340205
Si       0.26677015      -3.12058910       8.54479395
Si      -5.54547255      -0.49253613       8.83852260
Si       4.31150869       2.26854993      -0.23889573
Si       2.44317105       0.98858421       0.02649405
Si      -2.04449451       1.78256663       8.23789867
Si      -1.69101102      -3.81942923       9.01793023
Si      -2.58001769       0.94678151       5.76007970
Si       1.20659643      -0.75654809       2.87560492
Si      -2.97985621       3.47195668       4.79599041
Si      -3.30060897      -2.90959267       6.39857215
Si      -0.87938588       7.54644821      -1.16821264
Si       1.17194346       1.18919481       3.73288253
Si       0.79195721       8.59341933      -1.98033864