20
Lattice="8.561907683575292 1.3919986573955565 1.4482051828399836 1.0651410428295882 8.608681548479797 1.4482051828399802 1.0651410428295456 1.106479799387993 8.659237767164491" Properties=species:S:1:pos:R:3 unique_starting_index=58 config_type=initial n_minim_iter=17 energy=-3265.3763579269007 free_energy=-3265.3763579269007 pbc="T T T"
Si       5.84085995       9.48765732       8.25976335
Si       9.25849231       8.00809188       6.51964428
Si       7.64993049       6.13644673       9.80701595
Si       3.04225927       1.55060315       5.03600385
Si       4.85132981       3.22923070       1.74863218
Si       1.43369746       4.90945023       3.29588478
Si       5.71067695       8.55522854       1.50053755
Si       8.33169355       1.26070898       6.08677870
Si       0.94270797       5.75072075       8.60789707
Si       9.74948179       2.73352243       5.46886944
Si       4.98151282       9.94627402       2.94775106
Si       2.36049621       5.07502530      10.05511059
Si       6.57795813       1.99773742       7.02400094
Si       1.74594613       6.75543348       6.92191215
Si       6.68409215       6.83729477       2.27406893
Si       4.00809762       9.10538041       4.63373599
Si       4.11423163       4.16769645       9.28157920
Si       8.94624363       4.45793749       4.53164720
Si       2.75715677       2.86416366       2.97981369
Si       7.93503300       8.24299634       8.57583444
