18
Lattice="4.288624742528329 0.0 0.0 0.0 11.6405937611315 -2.4741150947535744e-16 0.0 2.139611991329766e-16 10.066772580762306" Properties=species:S:1:pos:R:3 unique_starting_index=36 config_type=initial n_minim_iter=1 energy=-2928.085399591742 free_energy=-2928.085399591742 pbc="T T T"
Si       4.26994764      11.14351761       8.51916008
Si       0.01867710      11.14351761       1.54761250
Si       2.16298947      11.14351761       3.48577379
Si       2.12563527      11.14351761       6.58099879
Si       0.01336959       2.16449989       1.89134147
Si       4.27525515       2.16449989       8.17543112
Si       2.13094278       2.16449989       6.92472776
Si       2.15768196       2.16449989       3.14204482
Si       0.22827267       8.65650625       2.21480279
Si       4.06035208       8.65650625       7.85196980
Si       1.91603971       8.65650625       7.24818908
Si       2.37258504       8.65650625       2.81858351
Si       2.16268810       0.57690617       1.22759207
Si       2.12593664       0.57690617       8.83918052
Si      -0.01837573       0.57690617       6.26097836
Si       4.30700048       0.57690617       3.80579423
Si      -0.00000000       9.27827531       0.00000000
Si       2.14431237       9.27827531       5.03338629
18
Lattice="4.287788860956287 0.0 0.0 0.0 11.640976370819423 -2.474123592848426e-16 0.0 2.1393510280838173e-16 10.065248301115737" Properties=species:S:1:pos:R:3 unique_starting_index=36 config_type=initial n_minim_iter=2 stress="8.10975662477583e-05 2.928570139070825e-17 1.8894223664440905e-17 2.928570139070825e-17 -0.0001455583704647995 3.9165650111171016e-17 1.8894223664440905e-17 3.9165650111171016e-17 -0.00016610443559338526" pbc="T T T"
Si       4.26912689      11.14389300       8.51787933
Si       0.01866197      11.14389300       1.54736897
Si       2.16255640      11.14389300       3.48525518
Si       2.12523246      11.14389300       6.57999312
Si       0.01337551       2.16457169       1.89104054
Si       4.27441335       2.16457169       8.17420776
Si       2.13051892       2.16457169       6.92366469
Si       2.15726995       2.16457169       3.14158361
Si       0.22822148       8.65679174       2.21448625
Si       4.05956738       8.65679174       7.85076205
Si       1.91567295       8.65679174       7.24711040
Si       2.37211591       8.65679174       2.81813790
Si       2.16227314       0.57692132       1.22739157
Si       2.12551572       0.57692132       8.83785673
Si      -0.01837871       0.57692132       6.26001572
Si       4.30616757       0.57692132       3.80523258
Si      -0.00000000       9.27856640       0.00000000
Si       2.14389443       9.27856640       5.03262415
18
Lattice="4.284452842731012 0.0 0.0 0.0 11.648136014548498 -2.4757894770045317e-16 0.0 2.1397301370186415e-16 10.067618588175877" Properties=species:S:1:pos:R:3 unique_starting_index=36 config_type=initial n_minim_iter=3 stress="-7.981258736096447e-05 1.3893436280990696e-17 -4.640352475559517e-17 1.3893436280990696e-17 2.811748147758775e-06 -3.157903068988768e-17 -4.640352475559517e-17 -3.157903068988768e-17 5.111392674430402e-05" pbc="T T T"
Si       4.26589506      11.15078893       8.51998113
Si       0.01855778      11.15078893       1.54763746
Si       2.16078420      11.15078893       3.48617184
Si       2.12366864      11.15078893       6.58144675
Si       0.01343314       2.16593191       1.89135439
Si       4.27101970       2.16593191       8.17626420
Si       2.12879328       2.16593191       6.92516369
Si       2.15565956       2.16593191       3.14245490
Si       0.22799460       8.66211447       2.21519728
Si       4.05645824       8.66211447       7.85242131
Si       1.91423182       8.66211447       7.24900657
Si       2.37022103       8.66211447       2.81861201
Si       2.16063979       0.57725694       1.22756565
Si       2.12381305       0.57725694       8.84005294
Si      -0.01841337       0.57725694       6.26137495
Si       4.30286621       0.57725694       3.80624364
Si      -0.00000000       9.28417266       0.00000000
Si       2.14222642       9.28417266       5.03380929
18
Lattice="4.284605756940103 0.0 0.0 0.0 11.652964042182463 -2.476696927813275e-16 0.0 2.139423121082034e-16 10.065691136022728" Properties=species:S:1:pos:R:3 unique_starting_index=36 config_type=initial n_minim_iter=4 stress="0.00016393018432697947 1.0678162416102569e-16 3.308157572883161e-17 1.0678162416102569e-16 0.00037375487354500257 1.0537896970902933e-16 3.308157572883161e-17 1.0537896970902933e-16 -0.0001843057003539974" pbc="T T T"
Si       4.26621213      11.15538878       8.51854306
Si       0.01839363      11.15538878       1.54714807
Si       2.16069651      11.15538878       3.48569749
Si       2.12390925      11.15538878       6.57999364
Si       0.01357145       2.16685364       1.89072882
Si       4.27103430       2.16685364       8.17496231
Si       2.12873142       2.16685364       6.92357439
Si       2.15587433       2.16685364       3.14211675
Si       0.22792323       8.66578712       2.21519779
Si       4.05668253       8.66578712       7.85049335
Si       1.91437965       8.66578712       7.24804336
Si       2.37022611       8.66578712       2.81764778
Si       2.16078285       0.57752596       1.22702622
Si       2.12382291       0.57752596       8.83866492
Si      -0.01847997       0.57752596       6.25987179
Si       4.30308573       0.57752596       3.80581935
Si      -0.00000000       9.28779287       0.00000000
Si       2.14230288       9.28779287       5.03284557
18
Lattice="4.2819634910459206 0.0 0.0 0.0 11.650098104938227 -2.476120525244091e-16 0.0 2.139504253355144e-16 10.066206006093068" Properties=species:S:1:pos:R:3 unique_starting_index=36 config_type=initial n_minim_iter=5 stress="-3.5887241454105954e-05 1.7833354193676984e-16 7.577908143066735e-17 1.7833354193676984e-16 4.3545644735532985e-05 2.2572842499834646e-16 7.577908143066735e-17 2.2572842499834646e-16 -7.178487048883492e-05" pbc="T T T"
Si       4.26436509      11.15252938       8.51994234
Si       0.01759840      11.15252938       1.54626367
Si       2.15858015      11.15252938       3.48683934
Si       2.12338334      11.15252938       6.57936667
Si       0.01425099       2.16632828       1.88954777
Si       4.26771250       2.16632828       8.17665824
Si       2.12673076       2.16632828       6.92265077
Si       2.15523273       2.16632828       3.14355523
Si       0.22739623       8.66415840       2.21745339
Si       4.05456727       8.66415840       7.84875262
Si       1.91358552       8.66415840       7.25055639
Si       2.36837797       8.66415840       2.81564961
Si       2.15974519       0.57753116       1.22568000
Si       2.12221830       0.57753116       8.84052600
Si      -0.01876345       0.57753116       6.25878301
Si       4.30072694       0.57753116       3.80742300
Si      -0.00000000       9.28442562       0.00000000
Si       2.14098175       9.28442562       5.03310300
18
Lattice="4.280029348065099 0.0 0.0 0.0 11.646464107077547 -2.475308032881342e-16 0.0 2.1393973084498477e-16 10.065539592287358" Properties=species:S:1:pos:R:3 unique_starting_index=36 config_type=initial n_minim_iter=6 stress="-1.1299249754639607e-05 1.4253480309480509e-16 1.4205854325413974e-16 1.4253480309480509e-16 -0.0002050847433290576 2.2241565810926185e-16 1.4205854325413974e-16 2.2241565810926185e-16 0.00020113576304659498" pbc="T T T"
Si       4.26297413      11.14844937       8.52082642
Si       0.01705522      11.14844937       1.54471317
Si       2.15706989      11.14844937       3.48805663
Si       2.12295946      11.14844937       6.57748297
Si       0.01551954       2.16589370       1.88771776
Si       4.26450981       2.16589370       8.17782183
Si       2.12449514       2.16589370       6.92048756
Si       2.15553421       2.16589370       3.14505203
Si       0.22660819       8.66280396       2.22098071
Si       4.05342116       8.66280396       7.84455888
Si       1.91340648       8.66280396       7.25375050
Si       2.36662286       8.66280396       2.81178909
Si       2.15840404       0.57761934       1.22456241
Si       2.12162530       0.57761934       8.84097718
Si      -0.01838937       0.57761934       6.25733221
Si       4.29841872       0.57761934       3.80820739
Si      -0.00000000       9.27901668       0.00000000
Si       2.14001467       9.27901668       5.03276980
18
Lattice="4.27736588243497 0.0 0.0 0.0 11.653794239236504 -2.476577867095286e-16 0.0 2.1386273493361387e-16 10.060744733938153" Properties=species:S:1:pos:R:3 unique_starting_index=36 config_type=initial n_minim_iter=7 stress="2.323693470554995e-05 1.6055855348687202e-16 2.1202570382685884e-16 1.6055855348687202e-16 5.6092529996002574e-05 2.9317876198005373e-16 2.1202570382685884e-16 2.9317876198005373e-16 -1.5325564789666323e-06" pbc="T T T"
Si       4.25973934      11.15385165       8.51801184
Si       0.01762654      11.15385165       1.54273290
Si       2.15630948      11.15385165       3.48763947
Si       2.12105640      11.15385165       6.57310527
Si       0.01706246       2.16805317       1.88605187
Si       4.26030342       2.16805317       8.17469286
Si       2.12162048       2.16805317       6.91642424
Si       2.15574540       2.16805317       3.14432050
Si       0.22561429       8.67095976       2.22418549
Si       4.05175159       8.67095976       7.83655924
Si       1.91306865       8.67095976       7.25455786
Si       2.36429723       8.67095976       2.80618688
Si       2.15533234       0.57840396       1.22588101
Si       2.12203354       0.57840396       8.83486373
Si      -0.01664940       0.57840396       6.25625338
Si       4.29401528       0.57840396       3.80449136
Si      -0.00000000       9.28024379       0.00000000
Si       2.13868294       9.28024379       5.03037237
18
Lattice="4.27658028913646 0.0 0.0 0.0 11.65342095126403 -2.4764391175951284e-16 0.0 2.1384036931501016e-16 10.059450727906427" Properties=species:S:1:pos:R:3 unique_starting_index=36 config_type=initial n_minim_iter=8 stress="-4.212607019592344e-05 1.5154889211849025e-16 2.1392573064138825e-16 1.5154889211849025e-16 -7.1770512999752e-05 2.6109330197021607e-16 2.1392573064138825e-16 2.6109330197021607e-16 -7.208789841009829e-05" pbc="T T T"
Si       4.26014653      11.15254010       8.51736051
Si       0.01643376      11.15254010       1.54209021
Si       2.15472390      11.15254010       3.48763515
Si       2.12185639      11.15254010       6.57181558
Si       0.01710366       2.16814409       1.88614586
Si       4.25947663       2.16814409       8.17330487
Si       2.12118649       2.16814409       6.91587122
Si       2.15539380       2.16814409       3.14357951
Si       0.22537020       8.67202392       2.22536119
Si       4.05121009       8.67202392       7.83408954
Si       1.91291995       8.67202392       7.25508655
Si       2.36366034       8.67202392       2.80436418
Si       2.15583108       0.57902203       1.22657058
Si       2.12074921       0.57902203       8.83288015
Si      -0.01754093       0.57902203       6.25629594
Si       4.29412122       0.57902203       3.80315479
Si      -0.00000000       9.27757733       0.00000000
Si       2.13829014       9.27757733       5.02972536
18
Lattice="4.275307605760614 0.0 0.0 0.0 11.656425296738826 -2.4771078558068618e-16 0.0 2.1383947097456748e-16 10.059531355816562" Properties=species:S:1:pos:R:3 unique_starting_index=36 config_type=initial n_minim_iter=9 stress="-8.816762186328095e-06 2.125259124844571e-16 2.0186285066460355e-16 2.125259124844571e-16 4.920061060555435e-05 1.2566640139453146e-16 2.0186285066460355e-16 1.2566640139453146e-16 5.398588937293443e-05" pbc="T T T"
Si       4.25892426      11.15495610       8.51788702
Si       0.01638334      11.15495610       1.54164433
Si       2.15403715      11.15495610       3.48812135
Si       2.12127046      11.15495610       6.57141001
Si       0.01730761       2.16878225       1.88603109
Si       4.25799999       2.16878225       8.17350027
Si       2.12034619       2.16878225       6.91579676
Si       2.15496142       2.16878225       3.14373459
Si       0.22515621       8.67499147       2.22659570
Si       4.05015140       8.67499147       7.83293566
Si       1.91249760       8.67499147       7.25636137
Si       2.36281001       8.67499147       2.80316998
Si       2.15494944       0.57951616       1.22658022
Si       2.12035816       0.57951616       8.83295114
Si      -0.01729564       0.57951616       6.25634590
Si       4.29260324       0.57951616       3.80318546
Si      -0.00000000       9.27857586       0.00000000
Si       2.13765380       9.27857586       5.02976568
