16
Lattice="4.144973184734261 -4.6691863524645434e-09 0.8355522826701534 -6.82756729394367e-07 10.201649300941115 3.4439996139234245e-06 0.5244208651252994 -5.100827040765113 7.184377252839008" Properties=species:S:1:pos:R:3 unique_starting_index=69 config_type=initial n_minim_iter=1 energy=-2609.9295123216207 free_energy=-2609.9295123216207 pbc="T T T"
Si       1.74432613       1.20153740       4.87180857
Si       2.92506697       6.30236271       3.14812379
Si       2.92506713       3.89928383       3.14812297
Si       1.74432629      -1.20154148       4.87180776
Si       2.46770403       7.42687816       1.42156616
Si       2.20168893       2.32605174       6.59836695
Si       2.20168924      -2.32605692       6.59836538
Si       2.46770434       2.77476949       1.42156459
Si       3.22902253       3.86578137       5.54719695
Si       1.44037090      -1.23504236       2.47273376
Si       1.44037073       1.23503987       2.47273460
Si       3.22902237       6.33586360       5.54719778
Si       0.36828643       7.65984766       1.08935566
Si       4.30110649       2.55902130       6.93057761
Si       4.30110683      -2.55902643       6.93057588
Si       0.36828677       2.54179993       1.08935394
16
Lattice="4.149153795623629 -5.959418693611932e-09 0.8402029331660642 -6.878983202234124e-07 10.278474186282535 3.4699351140334766e-06 0.5379125175266177 -5.139239474323655 7.160060278033669" Properties=species:S:1:pos:R:3 unique_starting_index=69 config_type=initial n_minim_iter=2 stress="0.018209492062535713 -7.263741667738964e-09 0.024364876416156353 -7.263741667738964e-09 0.0038405865475692838 9.004807812682563e-09 0.024364876416156353 9.004807812682563e-09 -0.018002801459302168" pbc="T T T"
Si       1.75368911       1.20963569       4.85622985
Si       2.93337625       6.34887344       3.14403622
Si       2.93337641       3.92959798       3.14403540
Si       1.75368927      -1.20963977       4.85622903
Si       2.47182926       7.48407018       1.41607074
Si       2.21523594       2.34483133       6.58419609
Si       2.21523625      -2.34483651       6.58419451
Si       2.47182958       2.79440235       1.41606915
Si       3.24153122       3.89601261       5.53274603
Si       1.44553446      -1.24322357       2.46751838
Si       1.44553430       1.24322107       2.46751922
Si       3.24153105       6.38245725       5.53274687
Si       0.37126628       7.71696910       1.08423267
Si       4.31579890       2.57773031       6.91603432
Si       4.31579924      -2.57773543       6.91603258
Si       0.37126662       2.56150337       1.08423093
16
Lattice="4.135020232215419 -2.7663073770780333e-09 0.8279425410516642 -6.897550727646676e-07 10.306217512156586 3.4793010510023776e-06 0.5131420130628096 -5.153111141818574 7.168650814860629" Properties=species:S:1:pos:R:3 unique_starting_index=69 config_type=initial n_minim_iter=3 stress="-0.057550191468474905 -4.2090374601158905e-09 -0.004097243942544884 -4.2090374601158905e-09 0.02600818540010931 7.783940237803176e-09 -0.004097243942544884 7.783940237803176e-09 0.002138714056305136" pbc="T T T"
Si       1.73240066       1.21194524       4.85603464
Si       2.91576063       6.36505465       3.14056158
Si       2.91576079       3.94116010       3.14056076
Si       1.73240082      -1.21194932       4.85603382
Si       2.46033201       7.50590143       1.40674020
Si       2.18782913       2.35279091       6.58985679
Si       2.18782944      -2.35279610       6.58985520
Si       2.46033233       2.80031443       1.40673861
Si       3.21472862       3.90729324       5.52970107
Si       1.43343300      -1.24581460       2.46689349
Si       1.43343284       1.24581210       2.46689433
Si       3.21472845       6.39891994       5.52970191
Si       0.36618515       7.73727188       1.08339844
Si       4.28197596       2.58416142       6.91319871
Si       4.28197630      -2.58416654       6.91319696
Si       0.36618550       2.56894392       1.08339669
16
Lattice="4.14544445580789 6.885824845476893e-10 0.8197751867480414 -6.891621990374375e-07 10.29735888472735 3.4763104452896507e-06 0.4988607812613763 -5.1486818314777425 7.175813300397114" Properties=species:S:1:pos:R:3 unique_starting_index=69 config_type=initial n_minim_iter=4 stress="-0.006050426663285721 -3.226209894155015e-10 -0.007656478962295358 -3.226209894155015e-10 0.03739136405643589 9.87709227912787e-10 -0.007656478962295358 9.87709227912787e-10 0.032947761334892155" pbc="T T T"
Si       1.72625687       1.21018378       4.85673327
Si       2.91804741       6.35886388       3.13885808
Si       2.91804757       3.93849225       3.13885726
Si       1.72625704      -1.21018786       4.85673245
Si       2.46403305       7.50097901       1.40070501
Si       2.18027108       2.35229779       6.59488711
Si       2.18027140      -2.35230298       6.59488552
Si       2.46403337       2.79637823       1.40070342
Si       3.21201440       3.90441679       5.52873166
Si       1.43229021      -1.24426174       2.46685802
Si       1.43229004       1.24425924       2.46685886
Si       3.21201424       6.39293776       5.52873250
Si       0.36455690       7.73021048       1.08300891
Si       4.27974720       2.58152933       6.91258336
Si       4.27974755      -2.58153445       6.91258162
Si       0.36455725       2.56714670       1.08300716
16
Lattice="4.1529508172036955 7.690571134542012e-09 0.8005223352838946 -6.84072763259678e-07 10.221313296704462 3.450638030278004e-06 0.472494511826557 -5.1106590290913 7.1457783021758585" Properties=species:S:1:pos:R:3 unique_starting_index=69 config_type=initial n_minim_iter=5 stress="-0.016321893572928882 4.101340898290836e-09 -0.016981795512678508 4.101340898290836e-09 0.008057003691324343 7.899347554170048e-09 -0.016981795512678508 7.899347554170048e-09 -0.01870861984932921" pbc="T T T"
Si       1.71060266       1.19980844       4.82884401
Si       2.91484173       6.31046575       3.11745945
Si       2.91484189       3.91084481       3.11745864
Si       1.71060283      -1.19981250       4.82884320
Si       2.46425015       7.44963130       1.38099359
Si       2.16119409       2.33897288       6.56531065
Si       2.16119440      -2.33897805       6.56530907
Si       2.46425046       2.77168037       1.38099201
Si       3.19863604       3.87643550       5.49424442
Si       1.42680868      -1.23422024       2.45205741
Si       1.42680852       1.23421775       2.45205824
Si       3.19863587       6.34487349       5.49424525
Si       0.36060659       7.67197653       1.07480029
Si       4.26483762       2.56131819       6.87150409
Si       4.26483796      -2.56132328       6.87150236
Si       0.36060693       2.54933506       1.07479856
16
Lattice="4.154962885215832 5.345236722923445e-09 0.8078684545531293 -6.80916304877323e-07 10.174149965583931 3.4347160464834325e-06 0.48222279758906095 -5.087077368338063 7.161946040995525" Properties=species:S:1:pos:R:3 unique_starting_index=69 config_type=initial n_minim_iter=6 stress="-0.022288377514766596 -1.208544244911845e-09 -0.001222837782276339 -1.208544244911845e-09 0.0019378166913052769 3.3038565692795e-09 -0.001222837782276339 3.3038565692795e-09 -0.008091129214760445" pbc="T T T"
Si       1.71635645       1.19350272       4.84028121
Si       2.92082830       6.28057836       3.12953610
Si       2.92082846       3.89356886       3.12953529
Si       1.71635661      -1.19350678       4.84028040
Si       2.46729908       7.41861543       1.38565529
Si       2.16988552       2.33153867       6.58416278
Si       2.16988583      -2.33154384       6.58416121
Si       2.46729939       2.75553292       1.38565371
Si       3.20638362       3.85903097       5.51035212
Si       1.43080146      -1.22804310       2.45946355
Si       1.43080129       1.22804062       2.45946438
Si       3.20638345       6.31511469       5.51035295
Si       0.36133560       7.63554214       1.07514021
Si       4.27584896       2.54846545       6.89467801
Si       4.27584930      -2.54847056       6.89467629
Si       0.36133595       2.53860613       1.07513849
16
Lattice="4.170617032698202 9.210771134605427e-09 0.7995215162818197 -6.795003799067492e-07 10.15299342472908 3.4275737583751114e-06 0.470758553999092 -5.076499096965098 7.156872475434149" Properties=species:S:1:pos:R:3 unique_starting_index=69 config_type=initial n_minim_iter=7 stress="-0.017540189751728892 6.430326466609215e-10 -0.006233178441002895 6.430326466609215e-10 0.004293456660221907 5.510352806912267e-09 -0.006233178441002895 5.510352806912267e-09 -0.013264747161596202" pbc="T T T"
Si       1.71193545       1.19214253       4.83428876
Si       2.92943920       6.26863991       3.12210803
Si       2.92943936       3.88435079       3.12210722
Si       1.71193561      -1.19214658       4.83428796
Si       2.47953349       7.40897491       1.38153104
Si       2.16184102       2.33247643       6.57486653
Si       2.16184133      -2.33248159       6.57486495
Si       2.47953380       2.74401690       1.38152946
Si       3.20927147       3.85340431       5.49965359
Si       1.43210350      -1.22309149       2.45674157
Si       1.43210334       1.22308901       2.45674239
Si       3.20927131       6.29958481       5.49965442
Si       0.35858267       7.61670654       1.06705639
Si       4.28279181       2.54020812       6.88934131
Si       4.28279215      -2.54021322       6.88933959
Si       0.35858301       2.53628520       1.06705468
16
Lattice="4.19308227214974 2.3246511900243672e-08 0.7623991509290714 -6.776890533998237e-07 10.125928852719879 3.4184369636416013e-06 0.40350824025053894 -5.062966825089792 7.185393537745693" Properties=species:S:1:pos:R:3 unique_starting_index=69 config_type=initial n_minim_iter=8 stress="0.07023573547333473 -1.9062598999592113e-09 0.022336856924148284 -1.9062598999592113e-09 -0.01395405840376699 -1.1520788177102454e-08 0.022336856924148284 -1.1520788177102454e-08 0.024600444769817084" pbc="T T T"
Si       1.66211480       1.20021432       4.84528919
Si       2.93447480       6.26317942       3.10250629
Si       2.93447496       3.86274672       3.10250548
Si       1.66211496      -1.20021838       4.84528838
Si       2.48418762       7.42235656       1.37866203
Si       2.11240182       2.35939036       6.56913423
Si       2.11240213      -2.35939552       6.56913264
Si       2.48418794       2.70357068       1.37866044
Si       3.18021397       3.85084678       5.48970329
Si       1.41637595      -1.21211674       2.45809056
Si       1.41637578       1.21211425       2.45809138
Si       3.18021381       6.27507778       5.48970411
Si       0.36870430       7.58238943       1.03975697
Si       4.22788511       2.51942328       6.90803940
Si       4.22788545      -2.51942839       6.90803770
Si       0.36870464       2.54353776       1.03975527
16
Lattice="4.195481293241559 3.826900154088153e-08 0.7183758525973867 -6.821500362153247e-07 10.192584195349005 3.4409393030156844e-06 0.33134192662585316 -5.096294494812224 7.166370756395411" Properties=species:S:1:pos:R:3 unique_starting_index=69 config_type=initial n_minim_iter=9 stress="0.049140970098030416 -8.189255811296876e-10 0.013446404361861158 -8.189255811296876e-10 -0.00644985568854086 -1.1156528749371478e-09 0.013446404361861158 -1.1156528749371478e-09 -0.0004794477341638784" pbc="T T T"
Si       1.60063853       1.21559233       4.82448008
Si       2.92618378       6.31188511       3.06026935
Si       2.92618394       3.88069639       3.06026853
Si       1.60063869      -1.21559640       4.82447926
Si       2.47325557       7.49806582       1.35638563
Si       2.05356658       2.40177195       6.52836461
Si       2.05356691      -2.40177710       6.52836299
Si       2.47325589       2.69451677       1.35638401
Si       3.13541196       3.87821499       5.44362085
Si       1.39141068      -1.21807621       2.44112694
Si       1.39141051       1.21807373       2.44112776
Si       3.13541180       6.31436493       5.44362168
Si       0.37015734       7.62304017       1.01695121
Si       4.15666479       2.52674635       6.86779911
Si       4.15666513      -2.52675145       6.86779740
Si       0.37015768       2.56954237       1.01694951
16
Lattice="4.18625924550785 5.1996493638523525e-08 0.6758847111762475 -6.835230048675139e-07 10.213098890268641 3.4478649089174614e-06 0.2557356011549759 -5.106551848656304 7.170293308637407" Properties=species:S:1:pos:R:3 unique_starting_index=69 config_type=initial n_minim_iter=10 stress="-0.026833042044059164 1.4352982298685622e-09 -0.013717605564591125 1.4352982298685622e-09 0.020916085398670525 5.430875492546007e-09 -0.013717605564591125 5.430875492546007e-09 0.002109543631288936" pbc="T T T"
Si       1.50571183       1.22578876       4.83140005
Si       2.93628211       6.33233891       3.01478081
Si       2.93628228       3.88075731       3.01477998
Si       1.50571200      -1.22579284       4.83139922
Si       2.46507631       7.55106247       1.33456103
Si       1.97691748       2.44451124       6.51162065
Si       1.97691780      -2.44451639       6.51161900
Si       2.46507664       2.66203483       1.33455938
Si       3.09676484       3.89236622       5.40434568
Si       1.34522943      -1.21418234       2.44183354
Si       1.34522927       1.21417985       2.44183436
Si       3.09676468       6.32072841       5.40434650
Si       0.37069557       7.62644670       1.00511341
Si       4.07129821       2.51989553       6.84106832
Si       4.07129854      -2.51990063       6.84106662
Si       0.37069591       2.58665054       1.00511171
16
Lattice="4.187625324044099 5.209543933265901e-08 0.6758624376216881 -6.854011885924904e-07 10.241162430737539 3.457338947919924e-06 0.263135178184415 -5.120583606228146 7.134251673552295" Properties=species:S:1:pos:R:3 unique_starting_index=69 config_type=initial n_minim_iter=11 stress="-0.04468785321864298 -5.342944143162699e-10 -0.01215103499181586 -5.342944143162699e-10 0.024588457751332282 4.84778249859564e-09 -0.01215103499181586 4.84778249859564e-09 0.007819682197116182" pbc="T T T"
Si       1.48110148       1.23013149       4.81986893
Si       2.96965812       6.35071343       2.99024804
Si       2.96965828       3.89044636       2.99024721
Si       1.48110165      -1.23013558       4.81986810
Si       2.47408407       7.59149874       1.32848473
Si       1.97667536       2.47091575       6.48163308
Si       1.97667569      -2.47092089       6.48163141
Si       2.47408440       2.64966210       1.32848306
Si       3.11471207       3.89953183       5.37372314
Si       1.33604786      -1.22104851       2.43639217
Si       1.33604770       1.22104602       2.43639300
Si       3.11471190       6.34162636       5.37372397
Si       0.36731881       7.64402867       1.01645142
Si       4.08344062       2.52344575       6.79366642
Si       4.08344096      -2.52345081       6.79366472
Si       0.36731915       2.59713210       1.01644972
16
Lattice="4.213403213917393 6.856824991517935e-08 0.6321778195144953 -6.773523047675573e-07 10.120897211342346 3.4167383199352832e-06 0.19426009705282493 -5.0604509951429755 7.116487336137382" Properties=species:S:1:pos:R:3 unique_starting_index=69 config_type=initial n_minim_iter=12 stress="-0.0033091390390418886 5.745442735663613e-09 -0.020061629416122252 5.745442735663613e-09 0.01203933555702576 -3.5100355518775877e-09 -0.020061629416122252 -3.5100355518775877e-09 0.018459441169024416" pbc="T T T"
Si       1.36670615       1.22236525       4.82598279
Si       3.04095628       6.28281461       2.92268519
Si       3.04095644       3.83808003       2.92268436
Si       1.36670632      -1.22236933       4.82598196
Si       2.49915783       7.55886903       1.30396077
Si       1.90850443       2.49841864       6.44470806
Si       1.90850476      -2.49842375       6.44470637
Si       2.49915817       2.56202663       1.30395909
Si       3.11714935       3.85582264       5.31120161
Si       1.29051340      -1.20462512       2.43746472
Si       1.29051324       1.20462263       2.43746554
Si       3.11714919       6.26507039       5.31120242
Si       0.37459174       7.53703142       1.01037946
Si       4.03307053       2.47658113       6.73828936
Si       4.03307086      -2.47658615       6.73828769
Si       0.37459207       2.58386414       1.01037779
16
Lattice="4.216026096803318 7.455911843858095e-08 0.6149519320038417 -6.723193073166769e-07 10.045694909018865 3.3913505918681968e-06 0.16872685034841287 -5.022849839004427 7.0966834439137925" Properties=species:S:1:pos:R:3 unique_starting_index=69 config_type=initial n_minim_iter=13 stress="0.014090590064477188 4.795719772873884e-09 -0.008727929330026824 4.795719772873884e-09 -0.013540409032746763 -1.1444822459247464e-08 -0.008727929330026824 -1.1444822459247464e-08 0.018630596994070048" pbc="T T T"
Si       1.27283585       1.21385631       4.84089667
Si       3.11191623       6.23670456       2.87074149
Si       3.11191639       3.80898783       2.87074067
Si       1.27283601      -1.21386042       4.84089585
Si       2.50785027       7.54353976       1.29864859
Si       1.87690164       2.52069054       6.41299046
Si       1.87690197      -2.52069562       6.41298876
Si       2.50785060       2.50215360       1.29864689
Si       3.12791046       3.82216900       5.26738165
Si       1.25684194      -1.20067762       2.44425488
Si       1.25684178       1.20067514       2.44425569
Si       3.12791030       6.22352176       5.26738247
Si       0.39080768       7.47594385       1.00869783
Si       3.99394423       2.45309472       6.70294118
Si       3.99394456      -2.45309971       6.70293952
Si       0.39080801       2.56974942       1.00869617
16
Lattice="4.213278748501229 7.29311884421756e-08 0.6192294585719506 -6.742524249055554e-07 10.07457926198832 3.401101730859167e-06 0.1797539686155156 -5.037292008118312 7.077035955868797" Properties=species:S:1:pos:R:3 unique_starting_index=69 config_type=initial n_minim_iter=14 stress="-0.026888814492737712 -4.405324645914908e-09 0.00861503587042784 -4.405324645914908e-09 -0.0045215566528280385 7.318163761463977e-09 0.00861503587042784 7.318163761463977e-09 -0.02449121141447119" pbc="T T T"
Si       1.23155672       1.21620921       4.85270398
Si       3.16147512       6.25349965       2.84356424
Si       3.16147529       3.82107711       2.84356342
Si       1.23155688      -1.21621333       4.85270316
Si       2.51251037       7.57440927       1.29627686
Si       1.88052130       2.53711788       6.39999225
Si       1.88052164      -2.53712296       6.39999054
Si       2.51251071       2.50016844       1.29627515
Si       3.14140469       3.81961269       5.24626596
Si       1.25162748      -1.21767612       2.45000062
Si       1.25162732       1.21767363       2.45000144
Si       3.14140453       6.25496244       5.24626678
Si       0.39693439       7.50775812       1.00320435
Si       3.99609729       2.47046681       6.69306472
Si       3.99609762      -2.47047180       6.69306305
Si       0.39693472       2.56681951       1.00320268
16
Lattice="4.217081204276537 7.856541585925304e-08 0.6032938418014121 -6.694339580321679e-07 10.002582453775858 3.376796153523024e-06 0.14941589343746586 -5.001293611398817 7.092902209009819" Properties=species:S:1:pos:R:3 unique_starting_index=69 config_type=initial n_minim_iter=15 stress="-0.0001942022907537244 -2.0236250219406113e-09 0.005753062369894541 -2.0236250219406113e-09 0.0010226033952272938 -1.5100973610255354e-09 0.005753062369894541 -1.5100973610255354e-09 0.006636216249300419" pbc="T T T"
Si       1.08360889       1.21962856       4.92184013
Si       3.28288734       6.22092066       2.77435871
Si       3.28288751       3.78165936       2.77435788
Si       1.08360906      -1.21963274       4.92183930
Si       2.52095787       7.56657227       1.28473211
Si       1.84553818       2.56527927       6.41146763
Si       1.84553853      -2.56528435       6.41146590
Si       2.52095822       2.43600865       1.28473038
Si       3.14917443       3.78163116       5.20389140
Si       1.21732214      -1.21965928       2.49230579
Si       1.21732197       1.21965676       2.49230661
Si       3.14917426       6.22094720       5.20389222
Si       0.40424865       7.44911806       0.99947149
Si       3.96224742       2.44782515       6.69672817
Si       3.96224775      -2.44783014       6.69672652
Si       0.40424898       2.55346277       0.99946984
16
Lattice="4.21743936219892 7.91028269655523e-08 0.6017729517885304 -6.695147438001938e-07 10.003789542959842 3.37720365794393e-06 0.1472798212324364 -5.001897155372217 7.0906463802630615" Properties=species:S:1:pos:R:3 unique_starting_index=69 config_type=initial n_minim_iter=16 stress="-0.0018868595022522776 -3.015328464454452e-09 0.008535636268553864 -3.015328464454452e-09 0.00011182609476174025 -1.4149607128712305e-09 0.008535636268553864 -1.4149607128712305e-09 0.005995259591031024" pbc="T T T"
Si       1.07162923       1.22057160       4.92460631
Si       3.29308909       6.22246724       2.76781580
Si       3.29308925       3.78131987       2.76781498
Si       1.07162939      -1.22057578       4.92460549
Si       2.52090442       7.57124600       1.28387862
Si       1.84381372       2.56934945       6.40854440
Si       1.84381407      -2.56935453       6.40854267
Si       2.52090476       2.43254201       1.28387689
Si       3.14977908       3.78112445       5.19813281
Si       1.21493957      -1.22076954       2.49428766
Si       1.21493941       1.22076702       2.49428848
Si       3.14977891       6.22266101       5.19813363
Si       0.40442820       7.44975978       0.99847793
Si       3.96028996       2.44786332       6.69394501
Si       3.96029029      -2.44786831       6.69394336
Si       0.40442853       2.55402814       0.99847628
16
Lattice="4.21885346734417 8.009898043009876e-08 0.5991025334796464 -6.729124295292667e-07 10.054557251830364 3.3943424525298688e-06 0.14565116331619515 -5.027281005192106 7.076652081686388" Properties=species:S:1:pos:R:3 unique_starting_index=69 config_type=initial n_minim_iter=17 stress="0.006842658466474216 -5.655044088172772e-10 -0.0008963794662866092 -5.655044088172772e-10 0.019813960111150455 4.6643069195065085e-09 -0.0008963794662866092 4.6643069195065085e-09 0.005819830069924457" pbc="T T T"
Si       1.06547751       1.22657488       4.91318908
Si       3.29902626       6.25385438       2.76256834
Si       3.29902642       3.80070044       2.76256751
Si       1.06547767      -1.22657906       4.91318825
Si       2.51221278       7.60633241       1.28510808
Si       1.85229080       2.57905202       6.39065025
Si       1.85229115      -2.57905709       6.39064851
Si       2.51221313       2.44822330       1.28510634
Si       3.14315773       3.79924166       5.18412699
Si       1.22134636      -1.22803619       2.49162877
Si       1.22134620       1.22803366       2.49162960
Si       3.14315757       6.25531151       5.18412782
Si       0.39902675       7.48997519       0.99111145
Si       3.96547685       2.46269488       6.68464680
Si       3.96547718      -2.46269987       6.68464514
Si       0.39902708       2.56458044       0.99110979
16
Lattice="4.204109329228827 6.950017447533763e-08 0.6275748491610422 -6.72802002294194e-07 10.052907271834428 3.393785432162683e-06 0.19444558052572777 -5.026456009735509 7.07015605086548" Properties=species:S:1:pos:R:3 unique_starting_index=69 config_type=initial n_minim_iter=18 stress="-0.04998597153176341 -7.29776169964673e-09 0.012725895029199918 -7.29776169964673e-09 -0.0051364902368300405 3.2088358921296103e-09 0.012725895029199918 3.2088358921296103e-09 -0.01211874680089137" pbc="T T T"
Si       1.09321505       1.22064619       4.90652439
Si       3.30533899       6.24710068       2.79120932
Si       3.30533915       3.80580414       2.79120849
Si       1.09321521      -1.22065036       4.90652356
Si       2.49253686       7.56943044       1.30445236
Si       1.90601700       2.54297504       6.39328224
Si       1.90601734      -2.54298011       6.39328052
Si       2.49253720       2.48347528       1.30445064
Si       3.15184683       3.79673368       5.19672499
Si       1.24670753      -1.22971917       2.50100706
Si       1.24670737       1.22971665       2.50100789
Si       3.15184667       6.25616950       5.19672582
Si       0.39120821       7.50664086       0.99661488
Si       4.00734566       2.48018554       6.70111967
Si       4.00734599      -2.48019053       6.70111800
Si       0.39120854       2.54626479       0.99661321
16
Lattice="4.216720861883388 7.55816463447677e-08 0.612060783719583 -6.713693890781862e-07 10.03150137593535 3.386558963480969e-06 0.17335031293201905 -5.015753056165217 7.049324487332822" Properties=species:S:1:pos:R:3 unique_starting_index=69 config_type=initial n_minim_iter=19 stress="-0.025029958392805814 -3.169970342182495e-10 -0.0018347509553208814 -3.169970342182495e-10 -0.011038404286567197 3.889898751625737e-09 -0.0018347509553208814 3.889898751625737e-09 -0.022924667708779604" pbc="T T T"
Si       1.05540857       1.21455671       4.88959789
Si       3.33466173       6.23030827       2.77179018
Si       3.33466190       3.80119068       2.77178936
Si       1.05540874      -1.21456088       4.88959707
Si       2.49990103       7.55213534       1.29489744
Si       1.89016910       2.53638290       6.36649152
Si       1.89016944      -2.53638795       6.36648981
Si       2.49990137       2.47936450       1.29489573
Si       3.15159401       3.78267677       5.16846826
Si       1.23847663      -1.23307314       2.49291816
Si       1.23847646       1.23307062       2.49291899
Si       3.15159384       6.24882054       5.16846909
Si       0.39158183       7.50343512       0.99097750
Si       3.99848830       2.48768276       6.67041143
Si       3.99848864      -2.48768773       6.67040975
Si       0.39158216       2.52806463       0.99097582
16
Lattice="4.222526201918711 7.508241371154701e-08 0.6146904678570155 -6.719799729527625e-07 10.040624629787377 3.389638904680028e-06 0.17722629223398909 -5.02031468520402 7.056351284719994" Properties=species:S:1:pos:R:3 unique_starting_index=69 config_type=initial n_minim_iter=20 stress="-0.0008231125158971685 1.3281671619459276e-09 -0.003497908872282948 1.3281671619459276e-09 -0.0030239771667449253 6.896656119547271e-10 -0.003497908872282948 6.896656119547271e-10 -0.005760381193839029" pbc="T T T"
Si       1.04558582       1.21584568       4.89280097
Si       3.35416580       6.23615887       2.77824358
Si       3.35416596       3.80446333       2.77824276
Si       1.04558599      -1.21584985       4.89280015
Si       2.50437747       7.54475703       1.29823724
Si       1.89537397       2.52444296       6.37280820
Si       1.89537431      -2.52444801       6.37280649
Si       2.50437781       2.49586605       1.29823554
Si       3.15522134       3.78248434       5.17495627
Si       1.24453062      -1.23782720       2.49608662
Si       1.24453045       1.23782467       2.49608746
Si       3.15522117       6.25813621       5.17495711
Si       0.39252915       7.52516591       0.99146166
Si       4.00722230       2.50485192       6.67958376
Si       4.00722263      -2.50485690       6.67958207
Si       0.39252949       2.51545710       0.99145997
16
Lattice="4.224062247199348 7.326544657070603e-08 0.6203771141307898 -6.715139807335773e-07 10.033661846705753 3.387288321607972e-06 0.1841004592338967 -5.016833298523207 7.0721101043708465" Properties=species:S:1:pos:R:3 unique_starting_index=69 config_type=initial n_minim_iter=21 stress="0.007771184883645054 3.3969922445404806e-10 0.0004387960634211806 3.3969922445404806e-10 0.0004821315434241638 -5.646843394790137e-10 0.0004387960634211806 -5.646843394790137e-10 0.0022417269439832885" pbc="T T T"
Si       1.03342264       1.21875418       4.90449646
Si       3.37473919       6.23558598       2.78799355
Si       3.37473936       3.79807344       2.78799273
Si       1.03342280      -1.21875836       4.90449564
Si       2.50251853       7.52532553       1.30366037
Si       1.90564314       2.50849285       6.38883051
Si       1.90564347      -2.50849792       6.38882882
Si       2.50251886       2.50833476       1.30365868
Si       3.15403608       3.78047052       5.18699567
Si       1.25412608      -1.23635962       2.50549268
Si       1.25412592       1.23635709       2.50549352
Si       3.15403592       6.25318724       5.18699651
Si       0.39182191       7.53305863       0.98908308
Si       4.01633975       2.51622602       6.70340781
Si       4.01634009      -2.51623102       6.70340611
Si       0.39182225       2.50060159       0.98908138
