6
Lattice="3.900928933660776 -0.8466472017357294 1.439674767291579e-13 -1.8919673615062358 6.960588497765805 1.5977145322853588e-13 -3.706288054062212e-13 -2.918575484665546e-13 8.326160054869021" Properties=species:S:1:pos:R:3 unique_starting_index=22 config_type=initial n_minim_iter=1 energy=-980.1600270936926 free_energy=-980.1600270936926 pbc="T T T"
Si       2.62405541       1.54308154       0.03075969
Si      -0.61509383       4.57085975       0.03075969
Si       1.11688757       4.19157019       5.42414928
Si       0.89207401       1.92237110       5.42414928
Si       0.01922625       3.17528559       6.89207617
Si       1.98973533       2.93865570       6.89207617
6
Lattice="3.9244636209434094 -0.8302169589896672 1.455910250770957e-13 -1.877566205601515 6.944454962218936 1.5984697292458833e-13 -3.7043931829420056e-13 -2.9170833382599327e-13 8.321903235107568" Properties=species:S:1:pos:R:3 unique_starting_index=22 config_type=initial n_minim_iter=2 stress="-0.004759565514603192 -0.0027279230196559662 -7.975153664829894e-16 -0.0027279230196559662 -0.010527825837490786 1.467465917469371e-15 -7.975153664829894e-16 1.467465917469371e-15 -0.012832626102068473" pbc="T T T"
Si       2.64755194       1.55224449       0.02992260
Si      -0.60065452       4.56199351       0.02992260
Si       1.14326270       4.19051202       5.42091969
Si       0.90363472       1.92372598       5.42091969
Si       0.02938494       3.17223357       6.88983036
Si       2.01751248       2.94200443       6.88983036
6
Lattice="3.9298620188314435 -0.8277948360011791 1.4591623100876292e-13 -1.8742485058151472 6.951891710691808 1.6025533719622933e-13 -3.710814730942397e-13 -2.922140088381393e-13 8.336329214867202" Properties=species:S:1:pos:R:3 unique_starting_index=22 config_type=initial n_minim_iter=3 stress="0.008720733685607364 -0.0047066825241761845 -6.742545906943749e-15 -0.0047066825241761845 -2.5396470622305682e-05 7.752832762390468e-15 -6.742545906943749e-15 7.752832762390468e-15 0.0028076231365579984" pbc="T T T"
Si       2.65318029       1.55642445       0.03015077
Si      -0.59756677       4.56767242       0.03015077
Si       1.14976070       4.19703834       5.43000488
Si       0.90585281       1.92705853       5.43000488
Si       0.03143112       3.17636823       6.90190950
Si       2.02418240       2.94772864       6.90190950
6
Lattice="3.92660431728639 -0.8202401357826069 1.4603603392470568e-13 -1.8581538035019256 6.9566583543207 1.611388586715772e-13 -3.7145835751488767e-13 -2.9251079247033704e-13 8.344795907047436" Properties=species:S:1:pos:R:3 unique_starting_index=22 config_type=initial n_minim_iter=4 stress="0.012815946125214068 0.004864649661976541 -9.963356676400576e-16 0.004864649661976541 0.004116378366317867 9.168970485271564e-16 -9.963356676400576e-16 9.168970485271564e-16 0.01191278517760499" pbc="T T T"
Si       2.65642838       1.56376208       0.03034523
Si      -0.58797787       4.57265613       0.03034523
Si       1.16112194       4.20428937       5.43557915
Si       0.90732858       1.93212885       5.43557915
Si       0.03680869       3.17940705       6.90869615
Si       2.03164182       2.95701116       6.90869615
6
Lattice="3.924381355059088 -0.8216167580544078 1.4588882663730032e-13 -1.8576227980277633 6.9654551043409825 1.6147084890497771e-13 -3.71428039861479e-13 -2.9248691835189276e-13 8.344114822277211" Properties=species:S:1:pos:R:3 unique_starting_index=22 config_type=initial n_minim_iter=5 stress="0.010281337589784953 0.004080899129738751 -2.1499255810701236e-15 0.004080899129738751 0.008983865080042583 -1.1166569890529074e-14 -2.1499255810701236e-15 -1.1166569890529074e-14 0.014830585338909352" pbc="T T T"
Si       2.65598316       1.56543322       0.02983316
Si      -0.58922461       4.57840512       0.02983316
Si       1.16221898       4.20892183       5.43495778
Si       0.90453958       1.93491651       5.43495778
Si       0.03413278       3.18305722       6.90881959
Si       2.03262578       2.96078112       6.90881959
6
Lattice="3.9281679323002856 -0.8306561154090397 1.457405241701828e-13 -1.8719572039485606 6.982186782600472 1.6141926724653533e-13 -3.709007335918377e-13 -2.920716826419217e-13 8.332268909776813" Properties=species:S:1:pos:R:3 unique_starting_index=22 config_type=initial n_minim_iter=6 stress="0.006568015597084368 -0.003208146830214076 -1.905910527761224e-15 -0.003208146830214076 0.008280289206206326 -1.5078313788470212e-14 -1.905910527761224e-15 -1.5078313788470212e-14 0.005987751661524735" pbc="T T T"
Si       2.65653208       1.56215197       0.03018335
Si      -0.60032135       4.58937870       0.03018335
Si       1.15978500       4.21130947       5.42912273
Si       0.89642573       1.94022120       5.42912273
Si       0.02488258       3.19105729       6.89673798
Si       2.03132815       2.96047337       6.89673798
6
Lattice="3.914917164961007 -0.8319008625287636 1.451070502905387e-13 -1.867730904177721 6.98228203859563 1.6161073481454658e-13 -3.713443798752771e-13 -2.9242103896496556e-13 8.342235404312003" Properties=species:S:1:pos:R:3 unique_starting_index=22 config_type=initial n_minim_iter=7 stress="-0.009651662994214529 0.0018462723924206452 7.370391239288646e-15 0.0018462723924206452 -0.005938307009670787 -1.6532953401287252e-14 7.370391239288646e-15 -1.6532953401287252e-14 -0.011349226528458442" pbc="T T T"
Si       2.64778012       1.56088441       0.02997852
Si      -0.60059386       4.58949677       0.02997852
Si       1.16061108       4.20757953       5.43645036
Si       0.88657518       1.94280165       5.43645036
Si       0.02189356       3.19728914       6.90439465
Si       2.02529271       2.95309203       6.90439465
6
Lattice="3.9151969159941005 -0.8750689639271656 1.4360632818424434e-13 -1.9562009196717378 6.9301817384664774 1.5584632460496667e-13 -3.7705108898474746e-13 -2.9691487783071776e-13 8.470436377196318" Properties=species:S:1:pos:R:3 unique_starting_index=22 config_type=initial n_minim_iter=8 stress="2.0227158703423566e-05 -0.00043587050208541755 3.279179944665515e-16 -0.00043587050208541755 -0.012298976877512061 -1.7852453708182934e-14 3.279179944665515e-16 -1.7852453708182934e-14 -0.0022358342993719985" pbc="T T T"
Si       2.63498696       1.50808238       0.02511613
Si      -0.67599096       4.54703040       0.02511613
Si       1.16279265       4.12519133       5.52196249
Si       0.79620334       1.92992145       5.52196249
Si      -0.01204978       3.18770797       7.01385600
Si       1.97104578       2.86740480       7.01385600
6
Lattice="3.903330556662709 -0.9343477358987284 1.4100020825570013e-13 -2.0281436522587613 7.059540090389458 1.5717829064410643e-13 -3.7781324702053793e-13 -2.9751505129976595e-13 8.487558224447614" Properties=species:S:1:pos:R:3 unique_starting_index=22 config_type=initial n_minim_iter=9 stress="0.00493490102445426 0.0015512118681535526 2.732777744220381e-15 0.0015512118681535526 0.0032934003983886018 -1.4269887665711303e-14 2.732777744220381e-15 -1.4269887665711303e-14 0.004192845566303295" pbc="T T T"
Si       2.61726641       1.49837466       0.01562003
Si      -0.74207950       4.62681770       0.01562003
Si       1.18378866       4.15215541       5.53896579
Si       0.69139825       1.97303694       5.53896579
Si      -0.03876710       3.27605919       7.03173905
Si       1.91395400       2.84913316       7.03173905
6
Lattice="3.885103012913006 -0.9685989272442821 1.3898822177054755e-13 -2.0753859447408454 7.082730038910746 1.5588823702611043e-13 -3.786630119982524e-13 -2.981842122488097e-13 8.506648157853414" Properties=species:S:1:pos:R:3 unique_starting_index=22 config_type=initial n_minim_iter=10 stress="-0.009282566902338873 -0.0025273056241286625 -8.698466077446357e-16 -0.0025273056241286625 -0.00023698959228417361 1.398550249014422e-16 -8.698466077446357e-16 1.398550249014422e-16 -0.005122268290134711" pbc="T T T"
Si       2.58884028       1.46979477       0.01343582
Si      -0.77912321       4.64433634       0.01343582
Si       1.18023548       4.14738306       5.55840856
Si       0.62948159       1.96674804       5.55840856
Si      -0.06988452       3.30432834       7.04278922
Si       1.87960159       2.80980277       7.04278922
6
Lattice="3.8890311212948854 -0.9711185947129619 1.3907475459503982e-13 -2.083364312214904 7.0754627577354565 1.552783491978228e-13 -3.7840809055160474e-13 -2.979834703005724e-13 8.500921358599696" Properties=species:S:1:pos:R:3 unique_starting_index=22 config_type=initial n_minim_iter=11 stress="-0.005529694647201152 -0.002400200337963302 -6.871840200262876e-15 -0.002400200337963302 -0.0028017146724311362 1.2252452111111854e-14 -6.871840200262876e-15 1.2252452111111854e-14 -0.006125657192214535" pbc="T T T"
Si       2.58736858       1.46436647       0.01243732
Si      -0.78170177       4.63997769       0.01243732
Si       1.18150870       4.14675605       5.55561354
Si       0.62415811       1.95758811       5.55561354
Si      -0.06920476       3.30064186       7.03809040
Si       1.87487157       2.80370230       7.03809040
6
Lattice="3.8904637349390905 -0.9732831466736847 1.3906265142328231e-13 -2.0886609563254717 7.072055413425797 1.5492313766971503e-13 -3.785494918615718e-13 -2.980948190113983e-13 8.504097932901482" Properties=species:S:1:pos:R:3 unique_starting_index=22 config_type=initial n_minim_iter=12 stress="0.00076474467236903 -0.00034509619108006624 -9.337784211739516e-15 -0.00034509619108006624 -0.0012761035136132479 -7.864253401848686e-15 -9.337784211739516e-15 -7.864253401848686e-15 0.00023826405236218256" pbc="T T T"
Si       2.58330923       1.46058228       0.01166430
Si      -0.78150645       4.63818999       0.01166430
Si       1.18434443       4.14865980       5.55965205
Si       0.61745835       1.95011247       5.55965205
Si      -0.06942940       3.29914061       7.03953550
Si       1.87123218       2.79963165       7.03953550
6
Lattice="3.889418684607065 -0.9735314436739297 1.3900742871474667e-13 -2.085875510265069 7.084595370131499 1.5548669248213416e-13 -3.781625980445344e-13 -2.977901533207926e-13 8.49540638006505" Properties=species:S:1:pos:R:3 unique_starting_index=22 config_type=initial n_minim_iter=13 stress="-0.001509032343048393 -0.0011021670482788907 -5.724831671350545e-15 -0.0011021670482788907 0.001003179493106922 -3.642836153176095e-15 -5.724831671350545e-15 -3.642836153176095e-15 -0.001631828602160042" pbc="T T T"
Si       2.57725052       1.46478917       0.01111701
Si      -0.77370734       4.64627476       0.01111701
Si       1.18492566       4.16312622       5.55632020
Si       0.61861752       1.94793770       5.55632020
Si      -0.06737582       3.30408979       7.03052580
Si       1.87091900       2.80697414       7.03052580
6
Lattice="3.888895924450172 -0.9757088965416593 1.3890783225937284e-13 -2.0893160806793896 7.085476359936651 1.5536442111440761e-13 -3.7843643752142164e-13 -2.980057925728742e-13 8.501558172048421" Properties=species:S:1:pos:R:3 unique_starting_index=22 config_type=initial n_minim_iter=14 stress="0.002266981924131994 0.0016160875607786995 -3.593193805383924e-15 0.0016160875607786995 0.0020911135073706606 7.285324231143631e-15 -3.593193805383924e-15 7.285324231143631e-15 0.002999123899437044" pbc="T T T"
Si       2.57416810       1.46330443       0.01074564
Si      -0.77458826       4.64646303       0.01074564
Si       1.18515030       4.16236946       5.56142251
Si       0.61442954       1.94739800       5.56142251
Si      -0.06947412       3.30500284       7.03491744
Si       1.86905397       2.80476462       7.03491744
6
Lattice="3.887224807227728 -0.9868137018348795 1.3844418690503354e-13 -2.1074419491748495 7.089523566238334 1.5469943734739047e-13 -3.795442063513291e-13 -2.9887812275943395e-13 8.526444150814953" Properties=species:S:1:pos:R:3 unique_starting_index=22 config_type=initial n_minim_iter=15 stress="0.002279242541382162 0.0013346466716549397 5.258423335468671e-15 0.0013346466716549397 -0.0012415152976581504 -1.6284656610189327e-14 5.258423335468671e-15 -1.6284656610189327e-14 -2.0202451806419006e-05" pbc="T T T"
Si       2.56650302       1.45603845       0.00928939
Si      -0.78672016       4.64667141       0.00928939
Si       1.18289133       4.15078164       5.57967831
Si       0.59689153       1.95192822       5.57967831
Si      -0.08084733       3.30868418       7.05502168
Si       1.86063019       2.79402568       7.05502168
6
Lattice="3.881539701752116 -0.9926354106059622 1.379870525867203e-13 -2.1129771919710576 7.099177996451368 1.547914603091851e-13 -3.804400791883858e-13 -2.995835920757612e-13 8.546569895283113" Properties=species:S:1:pos:R:3 unique_starting_index=22 config_type=initial n_minim_iter=16 stress="-0.0008385761675751205 0.0003502808096501608 -9.981892885033483e-16 0.0003502808096501608 0.001886233548919514 6.3097681625412605e-15 -9.981892885033483e-16 6.3097681625412605e-15 0.002220276933074781" pbc="T T T"
Si       2.55405992       1.45702476       0.00752401
Si      -0.78549740       4.64951783       0.00752401
Si       1.17481393       4.15161689       5.59406137
Si       0.59374858       1.95492570       5.59406137
Si      -0.08376862       3.31035518       7.07224876
Si       1.85233113       2.79618740       7.07224876
6
Lattice="3.879950277875477 -1.0109385376758615 1.3727472036760725e-13 -2.141007106864296 7.116954812593685 1.54166875163162e-13 -3.8208423532423897e-13 -3.008783089787836e-13 8.583505791637165" Properties=species:S:1:pos:R:3 unique_starting_index=22 config_type=initial n_minim_iter=17 stress="-7.552308339553562e-05 0.0015504330644873553 -4.8687511041387405e-15 0.0015504330644873553 -0.00281047055533349 -2.715436083473799e-15 -4.8687511041387405e-15 -2.715436083473799e-15 -0.004071614521095856" pbc="T T T"
Si       2.53180510       1.45215764       0.00252814
Si      -0.79286192       4.65385863       0.00252814
Si       1.16253519       4.14451057       5.62229196
Si       0.57640799       1.96150570       5.62229196
Si      -0.09805537       3.31307222       7.10378683
Si       1.83699854       2.79294406       7.10378683
6
Lattice="3.8754195611410522 -1.030755893675525 1.3637838171679058e-13 -2.1711299409604 7.1309647295083085 1.5331708486788305e-13 -3.836507356236399e-13 -3.021118745581081e-13 8.618697152989977" Properties=species:S:1:pos:R:3 unique_starting_index=22 config_type=initial n_minim_iter=18 stress="0.0009411335456842985 -1.560205133496398e-05 -5.49965979128492e-15 -1.560205133496398e-05 -0.002203688366477743 4.6462063723332455e-15 -5.49965979128492e-15 4.6462063723332455e-15 -0.002274533528355273" pbc="T T T"
Si       2.50928954       1.44188459      -0.00181876
Si      -0.80499992       4.65832424      -0.00181876
Si       1.15111282       4.13736596       5.64951610
Si       0.55317681       1.96284288       5.64951610
Si      -0.11429364       3.31703711       7.13309537
Si       1.81858327       2.78317172       7.13309537
6
Lattice="3.8700924458676895 -1.0514166350936645 1.354170291056135e-13 -2.2016824371480834 7.148149070799871 1.5255944204078388e-13 -3.8520950448706955e-13 -3.0333935189519183e-13 8.653714827968683" Properties=species:S:1:pos:R:3 unique_starting_index=22 config_type=initial n_minim_iter=19 stress="0.0012620911043035926 -0.0016492374388660015 -8.058789131991998e-15 -0.0016492374388660015 -0.00188016848870822 5.534154417303821e-15 -8.058789131991998e-15 5.534154417303821e-15 -0.0004723552074971166" pbc="T T T"
Si       2.48173594       1.43222565      -0.00726757
Si      -0.81332593       4.66450678      -0.00726757
Si       1.13670131       4.13392147       5.67780318
Si       0.53170871       1.96281097       5.67780318
Si      -0.13113699       3.31899107       7.16218532
Si       1.79954700       2.77774136       7.16218532
6
Lattice="3.866247088626544 -1.0618042150027178 1.3488174108111819e-13 -2.21527547710206 7.1623260455345 1.5245131115411741e-13 -3.8598678641911063e-13 -3.039514349169208e-13 8.671176432893965" Properties=species:S:1:pos:R:3 unique_starting_index=22 config_type=initial n_minim_iter=20 stress="3.5658665869231975e-05 -0.0029030671700858643 -5.169492643069039e-15 -0.0029030671700858643 -0.0007459019410511148 -5.5427122509655146e-15 -5.169492643069039e-15 -5.5427122509655146e-15 0.000646657048291904" pbc="T T T"
Si       2.45931699       1.42931668      -0.01198861
Si      -0.80834537       4.67120515      -0.01198861
Si       1.12299005       4.13988964       5.69385992
Si       0.52798156       1.96063218       5.69385992
Si      -0.14054583       3.31529460       7.17674370
Si       1.79151745       2.78522723       7.17674370
6
Lattice="3.8670757894412415 -1.056214401431626 1.3511456985998617e-13 -2.205324620180487 7.1640706547687865 1.529554152741562e-13 -3.853411702075532e-13 -3.034430341612136e-13 8.656672692674547" Properties=species:S:1:pos:R:3 unique_starting_index=22 config_type=initial n_minim_iter=21 stress="-0.0004905022294615552 -0.0018117720075661544 -6.6466136530709395e-15 -0.0018117720075661544 0.0019083529800654857 2.2739778450912735e-15 -6.6466136530709395e-15 2.2739778450912735e-15 0.00024447128522060805" pbc="T T T"
Si       2.46556564       1.43316843      -0.01132196
Si      -0.80381447       4.67468782      -0.01132196
Si       1.12773301       4.14707267       5.68383297
Si       0.53401816       1.96078358       5.68383297
Si      -0.13578183       3.31724788       7.16459619
Si       1.79753300       2.79060837       7.16459619
