40
Lattice="0.0 5.460923924493739 0.0 3.8614563385533764 0.0 0.0 0.0 0.0 -48.61456338553376" Properties=species:S:1:pos:R:3:forces:R:3 energy=-6521.6800403655325 n_minim_iter=1 stress="0.001409941038101942 0.002502043876487739 0.0002254279825434277 0.002502043876487739 0.0007806782357928778 -0.0025667781362246557 0.0002254279825434277 -0.0025667781362246557 -0.0010294602618878947" free_energy=-6521.6800403655325 pbc="T T T"
Si       0.05689402       0.00659642     -37.52575232      -0.29414770      -0.42338750       0.09928191
Si       0.09296582       1.43320019      -0.87630059      -0.66212545       0.37957203      -0.32714029
Si       1.94951310       2.79228831      -0.89331539       0.61597026      -0.56710419      -0.09385206
Si       2.02408639       4.16050706      -2.79427722      -0.04228840       0.30483718       0.25417111
Si       0.09315736       0.06699881      -2.83824389       0.01116286      -0.08236137       0.47132552
Si       0.02558344       1.38773016      -4.78411444      -0.01622941       0.92499292       0.82498143
Si       1.94912819       2.80295690      -4.69229144       0.08648766      -0.45046060      -0.57577622
Si       1.94504518       4.11776509      -6.69506738       0.52456388       0.75168075       0.80891644
Si       0.07470578       0.09804820      -6.64511317      -0.51046240      -0.81467228      -1.25604601
Si       0.06951428       1.46007648      -8.64585602      -0.57315916      -0.17282392       0.98425574
Si       1.95173470       2.79700985      -8.57370331       0.58173020      -0.11818773      -0.72724755
Si       1.99456235       4.09902284     -10.55584973      -0.47697588       0.92186492       0.75982200
Si       0.00851882       0.08752703     -10.48889689       0.52790652      -1.01478405      -0.53678628
Si       0.07284127       1.36775763     -12.43953612       0.12799817       0.26543417      -0.31895273
Si       2.01990882       2.75698298     -12.42196049      -0.22265713      -0.18927577      -0.90777632
Si       1.97148534       4.13720982     -14.42603326       0.68241116      -0.18434655       0.52256765
Si       0.09856600       0.03132946     -14.42792276      -0.75450316       0.28282519       0.29667423
Si       0.00114950       1.44539558     -16.32616561       0.65689354      -0.14840731      -0.13402245
Si       1.97754103       2.80840686     -16.34820395      -0.52986902      -0.30853067       0.28783479
Si       1.94156461       4.18386794     -18.21320972       0.66218289      -0.16313287      -0.62728417
Si       0.06017961       0.06443373     -18.25733776      -0.60208643       0.32744049       0.05553282
Si       0.07320430       1.46113292     -20.18488038       0.05208208      -0.53589585       0.08688264
Si       2.01109949       2.77919022     -20.16180843      -0.19007106       0.52468743      -0.01089029
Si       1.99024584       4.14296964     -22.12004776      -0.14130056       0.00426962       0.37501061
Si       0.04748054       0.04260348     -22.08975569       0.11024957       0.20217213      -0.22876383
Si       0.01170608       1.37858642     -24.06541559       0.08867139       0.35986504       0.24927319
Si       1.94361709       2.80073938     -24.04087285       0.03207464      -0.63713408      -0.02062171
Si       1.95974279       4.14920203     -25.94933205       0.37831141      -0.23606833      -0.47224938
Si       0.05810271       0.00866577     -25.98617449      -0.40694471       0.42778027       0.12107917
Si       0.01916288       1.43790122     -27.86440303       0.48933673      -0.42180658      -0.65631432
Si       1.98732925       2.79687078     -27.92462968      -0.48691705       0.01101488       0.35767807
Si       1.95614543       4.11321802     -29.88091326       0.45016949       0.62667863       0.53453715
Si       0.06496788       0.04961882     -29.88188122      -0.48961171      -0.02355734       0.66995834
Si       0.00147558       1.41827214     -31.77196806       0.75818467      -0.18101179      -0.01828222
Si       1.99482889       2.76391566     -31.73183891      -0.73884377      -0.06868669      -0.80640227
Si       1.98106150       4.12174835     -33.71168818      -0.36720279      -0.14523940       0.46700180
Si       0.01207351       0.00061213     -33.66259069       0.38325628       0.38638450      -0.37911748
Si       0.00002450       1.38763575     -35.63386435       0.74216556      -0.13914955       0.11152202
Si       2.00184264       2.73959668     -35.59766828      -0.75718288       0.12740325      -0.65187656
Si       1.96086672       4.15136208     -37.55130129       0.30076970       0.19712103       0.41109553
40
Lattice="-0.027222921099092388 5.452559676988545 0.027995004998951713 3.850651536423686 -0.019249512112874564 -0.0017864452229882934 0.022490803187556984 -0.2492188068937515 -48.715216780532025" Properties=species:S:1:pos:R:3:forces:R:3 energy=-6521.738491032387 n_minim_iter=2 stress="-0.0014736274441648279 -0.0019065276257707873 6.54437352774189e-05 -0.0019065276257707873 -0.0002465504403885783 0.0020751821847596248 6.54437352774189e-05 0.0020751821847596248 0.0005808633145231571" free_energy=-6521.738491032387 pbc="T T T"
Si       0.07349550      -0.18688953     -37.60324976      -0.14633876      -0.32686219       0.19799735
Si       0.08467739       1.42679047      -0.87144471      -0.79431202       0.26845627      -0.40628265
Si       1.93175347       2.77260402      -0.88194176       0.74473167      -0.53674440      -0.02823710
Si       1.99888989       4.13031546      -2.77917143      -0.15820205       0.21282667       0.13411433
Si       0.09389782       0.05172622      -2.84290104       0.13075818      -0.03766820       0.55290010
Si       0.02076602       1.36275860      -4.78529832      -0.09797871       0.80076358       0.64305639
Si       1.93204511       2.76401016      -4.68966724       0.17323655      -0.37524802      -0.45750942
Si       1.92318348       4.06890473      -6.68713403       0.44566415       0.67187817       0.65237229
Si       0.07610002       0.06186838      -6.66086203      -0.43342743      -0.71735133      -1.06716591
Si       0.06492891       1.41285066      -8.65438450      -0.66550182      -0.26385324       0.83125851
Si       1.93742825       2.73880119      -8.57943973       0.66704261      -0.02814528      -0.56363848
Si       1.97249520       4.03049246     -10.55612208      -0.54107134       0.80954020       0.59884245
Si       0.01394664       0.03159643     -10.51122680       0.59763813      -0.90242533      -0.39053855
Si       0.07182035       1.30204093     -12.45893324       0.03681009       0.22802826      -0.40096777
Si       2.00583033       2.67863577     -12.43625347      -0.12715354      -0.10518325      -0.76153896
Si       1.95334520       4.04673133     -14.43458720       0.55615530      -0.21600238       0.41979804
Si       0.10334073      -0.04261332     -14.45709744      -0.62672807       0.28984581       0.37355485
Si       0.00277114       1.35918491     -16.35282233       0.53712591      -0.17576694      -0.21607900
Si       1.96454467       2.70984756     -16.36801061      -0.41035208      -0.26662889       0.39052787
Si       1.92498923       4.07408244     -18.23159526       0.53690705      -0.17435409      -0.70045123
Si       0.06696410      -0.02891674     -18.29472378      -0.47973888       0.34372955       0.14294899
Si       0.07516015       1.35401221     -20.21905124      -0.06424373      -0.55818782      -0.00610631
Si       2.00057121       2.66257200     -20.19025113      -0.07562012       0.54201074       0.06689151
Si       1.97398278       4.01331928     -22.14479613      -0.23843604      -0.04942862       0.26287664
Si       0.05756713      -0.07055016     -22.13573918       0.20618337       0.24395499      -0.14055893
Si       0.01610299       1.25374837     -24.10768979       0.00903108       0.30331078       0.15516943
Si       1.93540747       2.66227761     -24.07723601       0.11555160      -0.57423476       0.08694010
Si       1.94631769       3.99958286     -25.98361881       0.25447377      -0.25870796      -0.54416592
Si       0.06912456      -0.12401636     -26.03971878      -0.28192653       0.45734354       0.21576622
Si       0.02578723       1.29192718     -27.91601744       0.37317550      -0.42422922      -0.71004922
Si       1.97979892       2.63955628     -27.96832884      -0.37180900       0.03500098       0.42673342
Si       1.94485892       3.94520377     -29.92154978       0.34877944       0.54833521       0.39566946
Si       0.07741201      -0.10400256     -29.94221794      -0.38746608      -0.01072636       0.72649620
Si       0.01057420       1.25285645     -31.83051810       0.62917690      -0.19756793      -0.11552373
Si       1.98871582       2.58693275     -31.78586515      -0.61331327      -0.01233873      -0.65571727
Si       1.96985532       3.93246505     -33.76036263      -0.46044252      -0.20521127       0.34610703
Si       0.02835100      -0.17127391     -33.73302569       0.47784282       0.44482400      -0.28059412
Si       0.01103492       1.20255935     -35.70031287       0.60018142      -0.15653716       0.00832516
Si       1.99758199       2.54318116     -35.65952289      -0.61495407       0.18321270      -0.53515871
Si       1.95263960       3.94310924     -37.60787054       0.14855052       0.19034193       0.35193695
40
Lattice="-0.018550612073162737 5.427076774945089 0.009398204058591849 3.877005279765741 -0.01311726359209449 -0.01483741827042588 0.18679859300323093 -0.08366525394488772 -48.830162906931484" Properties=species:S:1:pos:R:3:forces:R:3 energy=-6522.172275999384 n_minim_iter=3 stress="0.003365259805960333 -0.0016880542907077834 -0.0012320941158995356 -0.0016880542907077834 -0.00012528088243304237 0.0005335076114296812 -0.0012320941158995356 0.0005335076114296812 0.002573908056926629" free_energy=-6522.172275999384 pbc="T T T"
Si       0.19556151      -0.06806422     -37.68827989      -0.07425106      -0.31775228       0.13706466
Si       0.07209434       1.43108884      -0.88794676      -0.44922485       0.34425541      -0.28979846
Si       1.96985091       2.75202174      -0.90167969       0.40792567      -0.48357346      -0.11116410
Si       2.02596077       4.12987658      -2.80213834      -0.04624800       0.10083261       0.10872018
Si       0.10619796       0.05987852      -2.83717559       0.03774305      -0.01644669       0.35495435
Si       0.03751569       1.39377057      -4.78332153      -0.01730198       0.28662339       0.23489381
Si       1.96919235       2.75988049      -4.72964438       0.11669566      -0.09882572      -0.23977580
Si       1.97739292       4.09300714      -6.70556576       0.29692747       0.30189077       0.24637771
Si       0.08783669       0.06537730      -6.70588668      -0.29190300      -0.29462560      -0.33933273
Si       0.08123177       1.43020279      -8.65758025      -0.24479960      -0.22168072       0.34107958
Si       2.00000755       2.75625734      -8.63172959       0.24511955      -0.00456949      -0.16825000
Si       2.01525276       4.07179184     -10.58495615      -0.29148811       0.37758521       0.17004344
Si       0.06397977       0.04332740     -10.54782494       0.35924564      -0.40496423      -0.22013489
Si       0.11840877       1.34410513     -12.50241583      -0.00633800       0.16533291      -0.19609856
Si       2.06191375       2.70775011     -12.50243197      -0.09411099       0.03117645      -0.33724499
Si       2.03731542       4.07463060     -14.47795306       0.18221137      -0.00252414       0.30248989
Si       0.13576081       0.01376043     -14.48299406      -0.25137466       0.07644460       0.19395566
Si       0.07496294       1.40386976     -16.40098731       0.22358500      -0.08721207      -0.03003325
Si       2.02626401       2.74864296     -16.41418621      -0.10837311      -0.16934808       0.13877174
Si       2.02125652       4.11531086     -18.31232816       0.20407851      -0.05157329      -0.30941289
Si       0.11586199       0.04146997     -18.33555284      -0.14491959       0.07361808       0.02707826
Si       0.14589477       1.40249203     -20.27124179      -0.07196865      -0.20591927       0.03902293
Si       2.08368186       2.73469279     -20.25324808      -0.05661360       0.17381948      -0.04047171
Si       2.06394056       4.07187207     -22.21016195      -0.10352345       0.03212660       0.13679135
Si       0.13674637       0.01010344     -22.19270733       0.06907033       0.07890374      -0.16193653
Si       0.10069666       1.33738008     -24.16442671       0.03265066       0.21297372       0.16778590
Si       2.03647218       2.71931871     -24.14920602       0.08715771      -0.30321645       0.00448812
Si       2.06172920       4.06544073     -26.07866464       0.07219808      -0.10486366      -0.20099709
Si       0.14892813      -0.02440458     -26.09688679      -0.09723201       0.24441296       0.07329958
Si       0.13305021       1.36954172     -28.00417443       0.12645703      -0.19269976      -0.40342690
Si       2.08164864       2.72548048     -28.04058257      -0.13030516      -0.10891333       0.14022643
Si       2.07536458       4.04522062     -30.00144202       0.13802305       0.29336839       0.28358546
Si       0.16811217      -0.00262574     -29.99561344      -0.17004779       0.00676545       0.40368142
Si       0.13731595       1.34961460     -31.91244881       0.25290591      -0.10030318       0.03201241
Si       2.09742355       2.68440109     -31.89497113      -0.23947607      -0.02460060      -0.31596899
Si       2.09332462       4.02683553     -33.85085003      -0.20102599      -0.01432252       0.15531434
Si       0.15311822      -0.04633571     -33.82071636       0.21287255       0.17131151      -0.24591148
Si       0.15016207       1.31364979     -35.78809493       0.25644412       0.01080862       0.01393953
Si       2.11910425       2.65879111     -35.77431377      -0.30583853       0.04406263      -0.39133859
Si       2.10476042       4.05951484     -37.70799390       0.07505286       0.18162199       0.29572023
40
Lattice="-0.003837394618426069 5.4218160372256055 0.00770703094853658 3.8482654588752268 -0.0027134477567767597 -0.006509825598907568 0.08195672861739171 -0.06860999159525882 -48.589820408854635" Properties=species:S:1:pos:R:3:forces:R:3 energy=-6522.232911199096 n_minim_iter=4 stress="-0.0042042524607363305 0.00045537742787936836 -0.0003665830258661504 0.00045537742787936836 -0.00444716970047993 0.0005628165620536728 -0.0003665830258661504 0.0005628165620536728 -0.0021588733893952586" free_energy=-6522.232911199096 pbc="T T T"
Si       0.11304592      -0.05878242     -37.50164340      -0.13181604      -0.24569506       0.09603994
Si       0.06902155       1.43247943      -0.88625534      -0.31422692       0.29438258      -0.23278134
Si       1.96495044       2.75120752      -0.89443668       0.27138709      -0.41362509      -0.08051810
Si       2.01553236       4.13363023      -2.78410287       0.02006243       0.03231462       0.11539022
Si       0.09999762       0.06063733      -2.81976126      -0.04724462       0.02808017       0.33805327
Si       0.03052197       1.39871008      -4.75608494       0.04013955       0.15832136       0.16753432
Si       1.95293469       2.76171166      -4.70606026       0.05593305      -0.01006900      -0.16234622
Si       1.96252970       4.10042783      -6.66555489       0.30028169       0.19215082       0.15615256
Si       0.07030508       0.06322379      -6.67911864      -0.29841734      -0.18250664      -0.18878553
Si       0.06263886       1.43010809      -8.61016535      -0.10787951      -0.24904452       0.21939657
Si       1.97791061       2.76115025      -8.58936073       0.10879421       0.03474107      -0.07138212
Si       1.98577303       4.08140326     -10.52619686      -0.18963823       0.25977047       0.06613620
Si       0.04485073       0.04110009     -10.49862356       0.25663191      -0.27089658      -0.16672448
Si       0.09508108       1.34836953     -12.44330595       0.02814466       0.12237448      -0.16322598
Si       2.02646529       2.71373893     -12.44218045      -0.12869438       0.08960321      -0.24109196
Si       2.00592740       4.07950798     -14.40075812       0.14963241       0.00256805       0.26949382
Si       0.10030224       0.01995992     -14.40947968      -0.21533337       0.06987949       0.15619705
Si       0.04685593       1.40660253     -16.32158618       0.19822215      -0.10705715       0.01018967
Si       1.98146340       2.75457104     -16.32808859      -0.08784503      -0.11183525       0.09472473
Si       1.98196245       4.12125932     -18.22317567       0.17764134      -0.05831334      -0.22934748
Si       0.07343824       0.04895178     -18.24467153      -0.12072720       0.05267467       0.00725620
Si       0.10553265       1.40448162     -20.17148125      -0.02644725      -0.16703906       0.03274713
Si       2.03202137       2.74658644     -20.15004919      -0.09614214       0.12901958      -0.05555056
Si       2.01149056       4.08004871     -22.09601001      -0.03187711       0.01462630       0.09306861
Si       0.08975941       0.01827176     -22.08462315      -0.00166484       0.07875362      -0.15084955
Si       0.05274265       1.34558289     -24.04452808       0.07650915       0.16337230       0.15976083
Si       1.97821382       2.72576602     -24.02686164       0.03860852      -0.21589833       0.00195506
Si       2.00393094       4.07336327     -25.95025712       0.08053187      -0.10852154      -0.13086312
Si       0.09071689      -0.01358293     -25.96734308      -0.10525190       0.23738692       0.04534371
Si       0.07889362       1.37441721     -27.87091531       0.11575762      -0.17445406      -0.33337091
Si       2.01193559       2.73663991     -27.89697314      -0.11989750      -0.10702097       0.08144726
Si       2.00963301       4.05924186     -29.84793940       0.13266843       0.20629123       0.24814543
Si       0.10096032       0.00667709     -29.84359818      -0.16133801       0.04039381       0.33823995
Si       0.07633469       1.35700712     -31.75602833       0.22038045      -0.12033245       0.05176639
Si       2.01792597       2.69665082     -31.73880015      -0.20734908       0.01383980      -0.22390223
Si       2.01463767       4.03775964     -33.67896482      -0.10369721      -0.00120170       0.07718811
Si       0.08289913      -0.03350756     -33.65633476       0.11835607       0.14403500      -0.24415260
Si       0.08069242       1.32270642     -35.61202335       0.26095751      -0.00029229      -0.01753582
Si       2.03097613       2.67336190     -35.59853371      -0.28793286       0.06429984      -0.37322054
Si       2.02158337       4.07376698     -37.51694302       0.13278042       0.11492366       0.23942151
40
Lattice="0.0006701913328803063 5.480169262629493 0.00923936122224252 3.8421166376339557 0.0004738968361737372 0.010744230533190716 -0.1352666016367197 -0.08225119375236613 -48.53580098571482" Properties=species:S:1:pos:R:3:forces:R:3 energy=-6522.282590498444 n_minim_iter=5 stress="-0.002661607290372841 0.0008571214703261867 0.0012472755480139803 0.0008571214703261867 0.001597273796785414 0.0011435649941835544 0.0012472755480139803 0.0011435649941835544 0.00020298213744954062" free_energy=-6522.282590498444 pbc="T T T"
Si      -0.05624666      -0.07260665     -37.45848275      -0.11837126      -0.25342974       0.15334773
Si       0.06093800       1.45101550      -0.88757804      -0.18837528       0.31847647      -0.26546499
Si       1.96485222       2.77725172      -0.88472727       0.14935748      -0.41256264      -0.13764228
Si       2.00285487       4.18059318      -2.76928182       0.02444276      -0.00541529       0.10938237
Si       0.08752203       0.06038482      -2.81207013      -0.09911274       0.02568180       0.32022665
Si       0.01024237       1.41748875      -4.74597110       0.06867016       0.03838546       0.07807536
Si       1.93209463       2.78972014      -4.69471111       0.02355033       0.06009404      -0.07978905
Si       1.93679107       4.14888223      -6.64391196       0.23614257       0.09850529       0.04743235
Si       0.03670742       0.05753089      -6.67787855      -0.23914293      -0.08663654      -0.01057062
Si       0.02172418       1.44104831      -8.59449104      -0.00037037      -0.24898684       0.07593540
Si       1.94224452       2.78993964      -8.57366882       0.00038711       0.05123724       0.03245313
Si       1.93547181       4.12972785     -10.50089509      -0.08774989       0.13526345      -0.04017034
Si       0.00202652       0.03273256     -10.48996477       0.15567131      -0.12689782      -0.10256870
Si       0.04088880       1.36152680     -12.43124246       0.02186559       0.10328748      -0.12673311
Si       1.96848699       2.74099757     -12.42380713      -0.12217952       0.12141536      -0.11755442
Si       1.94535121       4.12045329     -14.37099655       0.06779992       0.03095718       0.19545567
Si       0.03153680       0.01802978     -14.39073115      -0.13024201       0.03723233       0.12244089
Si      -0.02122267       1.41619666     -16.30368154       0.12655450      -0.10677172       0.03520922
Si       1.90510197       2.77947712     -16.29835721      -0.01992387      -0.06143104       0.06522370
Si       1.90443957       4.16138023     -18.19727019       0.10390827      -0.04494619      -0.14441231
Si      -0.01118473       0.04641968     -18.22370950      -0.05001511       0.00563001       0.00339150
Si       0.01615945       1.41096188     -20.14790441      -0.01959890      -0.10002811       0.01507652
Si       1.94000482       2.77555091     -20.11809526      -0.09794869       0.05038367      -0.06451893
Si       1.91181980       4.11983657     -22.05935936       0.00637535       0.01544061       0.03276982
Si      -0.00820629       0.01399645     -22.06155001      -0.03905786       0.05582058      -0.12284790
Si      -0.05308505       1.35621473     -24.01548396       0.09023578       0.12323889       0.13125574
Si       1.87064483       2.74626481     -23.99058858       0.02193681      -0.12769443       0.01081317
Si       1.88998435       4.11030875     -25.91448396       0.04359868      -0.07914432      -0.06660440
Si      -0.02749060      -0.01735389     -25.93725262      -0.06963184       0.20053237       0.02981889
Si      -0.04206259       1.37899172     -27.84435610       0.06242334      -0.12126479      -0.24706900
Si       1.88384432       2.75978022     -27.85412253      -0.06598630      -0.12709848       0.03133032
Si       1.87893426       4.10060503     -29.80121481       0.08059215       0.12095719       0.18461878
Si      -0.03530591      -0.00105884     -29.80513974      -0.10667749       0.04474042       0.25019991
Si      -0.06022016       1.36177820     -31.72019286       0.13228951      -0.11832335       0.05806788
Si       1.87102518       2.71864029     -31.69862511      -0.11788875       0.03261621      -0.10670209
Si       1.86177260       4.07319218     -33.62914260      -0.02823821       0.03003349      -0.00843537
Si      -0.06489641      -0.04018815     -33.62163968       0.04958859       0.09482856      -0.19935849
Si      -0.07308724       1.32693742     -35.57164082       0.20269328       0.03992891      -0.07355323
Si       1.86631347       2.69524143     -35.55410757      -0.18675415       0.03563603      -0.32157034
Si       1.85573754       4.11099407     -37.46206415       0.11918169       0.15030823       0.25304052
40
Lattice="-0.013174405024970848 5.478032271419524 -0.0022566016704011053 3.851573291583664 -0.009315711131253264 0.008905498618708353 -0.11211752487179717 0.020088854277884746 -48.354164387558875" Properties=species:S:1:pos:R:3:forces:R:3 energy=-6522.306254561088 n_minim_iter=6 stress="-0.0007086145199387717 -0.0015993332004028793 0.0010766014914144748 -0.0015993332004028793 0.0008909594199452773 -0.00045041474236185634 0.0010766014914144748 -0.00045041474236185634 -0.003115789081485283" free_energy=-6522.306254561088 pbc="T T T"
Si      -0.03957970       0.00330367     -37.31704239      -0.00891776      -0.30167494       0.08540642
Si       0.05406042       1.45539956      -0.89005897      -0.19072045       0.35754616      -0.18271153
Si       1.96648358       2.76851057      -0.88921003       0.15003366      -0.40270477      -0.14011383
Si       1.99840578       4.18063967      -2.76728523      -0.03032991       0.04358529       0.14223751
Si       0.08871915       0.06596538      -2.79818393      -0.03665630      -0.02847367       0.25276439
Si       0.00912731       1.42996789      -4.72836754       0.02420109       0.02831245       0.07793791
Si       1.93275774       2.79256448      -4.68624674       0.06674253       0.04308072      -0.06272933
Si       1.93737760       4.15932425      -6.62593294       0.12724697       0.09885848       0.02407243
Si       0.03678046       0.06838026      -6.65690383      -0.12931734      -0.08681343       0.05696116
Si       0.02018790       1.45630542      -8.56185385      -0.00101848      -0.17200172       0.02961969
Si       1.94619262       2.80190920      -8.55031363       0.00147998      -0.00633186       0.04932193
Si       1.93242384       4.14908471     -10.46920178      -0.07579292       0.10501500      -0.06488062
Si       0.01001723       0.05067629     -10.45310535       0.14164730      -0.08957537      -0.10815623
Si       0.04383513       1.38854597     -12.38953993      -0.04164754       0.14689479      -0.06070300
Si       1.97107808       2.76127927     -12.38756988      -0.05594568       0.07863849      -0.07668003
Si       1.94897588       4.14380501     -14.32386577      -0.04072397       0.10973034       0.19259223
Si       0.03547984       0.04922347     -14.33518568      -0.01932000      -0.04073011       0.05951404
Si      -0.01435874       1.44887238     -16.24595657       0.02026085      -0.04111205       0.09580423
Si       1.90902547       2.80632479     -16.24277541       0.08226387      -0.09281097      -0.00063383
Si       1.90986563       4.19242588     -18.14186019      -0.00176561       0.02412762      -0.04940566
Si      -0.00456525       0.08571785     -18.15545247       0.05277667      -0.08630012      -0.04257018
Si       0.02207131       1.45041649     -20.07520094      -0.07712165       0.00487116       0.04207434
Si       1.94643166       2.81376786     -20.05002238      -0.03580217      -0.06052793      -0.10735566
Si       1.91605494       4.15989023     -21.98504393      -0.02988700       0.07503663       0.03075417
Si       0.00264029       0.06131358     -21.98064927      -0.00226284      -0.02091816      -0.14033341
Si      -0.04447329       1.40826591     -23.92690838       0.03974088       0.15111084       0.14930398
Si       1.88030024       2.78793031     -23.90750580       0.06906754      -0.12251626      -0.02294862
Si       1.89790236       4.15713654     -25.82909300      -0.03993299       0.00471066       0.01814097
Si      -0.01655279       0.03982181     -25.83961209       0.01619139       0.10742269      -0.02243308
Si      -0.03057739       1.43496746     -27.74696843      -0.02755961      -0.02867570      -0.14920885
Si       1.89313383       2.81159555     -27.75528978       0.02282063      -0.19458447      -0.04506006
Si       1.88924545       4.15967441     -29.69644452      -0.01426208       0.12608304       0.18854225
Si      -0.02314826       0.06183421     -29.68986478      -0.01149853      -0.01146110       0.15594326
Si      -0.04557795       1.42680066     -31.60416837       0.01129298      -0.04905780       0.10063616
Si       1.88109253       2.77936302     -31.58992556       0.00280044      -0.02168372      -0.07366303
Si       1.87058664       4.13727714     -33.51137958      -0.04491513       0.10473913      -0.03231911
Si      -0.04707270       0.03245122     -33.49832190       0.06517911      -0.00099639      -0.21961466
Si      -0.05628835       1.40119525     -35.44144997       0.06848486       0.12067096      -0.05541316
Si       1.87771054       2.76477439     -35.43176143      -0.05757111      -0.04970168      -0.31808121
Si       1.86926071       4.18498407     -37.32865798       0.01073833       0.17821779       0.22338803
40
Lattice="-0.0006665611304450798 5.453610472268797 -0.004109967210431439 3.8614943079437847 -0.0004713298954095061 -0.006426663847904944 0.08090974741107627 0.03658799577265937 -48.58061301166923" Properties=species:S:1:pos:R:3:forces:R:3 energy=-6522.343864053098 n_minim_iter=7 stress="3.2629230293960214e-05 3.9152371508793205e-05 -0.0003581159738386776 3.9152371508793205e-05 -0.00011204375509166327 -0.00029378271465253607 -0.0003581159738386776 -0.00029378271465253607 0.00010606290744853828" free_energy=-6522.343864053098 pbc="T T T"
Si       0.10716961       0.01001669     -37.48953647      -0.02035769      -0.21834599       0.10351502
Si       0.05395163       1.45620548      -0.90024892       0.01293887       0.27409549      -0.16528095
Si       1.98778164       2.75180536      -0.90456877      -0.05315224      -0.27996379      -0.17352294
Si       2.02383801       4.16933744      -2.78688051       0.04709864      -0.03353730       0.10841411
Si       0.09977434       0.06657168      -2.80474872      -0.07959357       0.01026031       0.16792919
Si       0.03167822       1.43059133      -4.74595379       0.07770356      -0.11676861      -0.00580841
Si       1.96434906       2.78458830      -4.72118474       0.02284694       0.13751227       0.00475723
Si       1.98414663       4.15302316      -6.66145922       0.05257991      -0.03428978      -0.07850755
Si       0.05795090       0.06495625      -6.69463264      -0.05260622       0.03822926       0.22890851
Si       0.05424216       1.44854016      -8.59643046       0.12849415      -0.15600757      -0.11235055
Si       1.99540560       2.79676207      -8.60234225      -0.12678717       0.01873404       0.13534961