2
Lattice="2.87691623542907 7.789563022641004e-18 2.87691623542907 2.87691623542907 2.87691623542907 4.7907180022120406e-17 4.554946042627268e-17 2.87691623542907 2.87691623542907" Properties=species:S:1:pos:R:3:forces:R:3 n_minim_iter=1 energy=-326.112925710215 stress="0.0600950401132077 -2.7458055574150284e-16 6.290492259951566e-18 -2.7458055574150284e-16 0.06009504011320778 1.9411646933373718e-16 6.290492259951566e-18 1.9411646933373718e-16 0.0600950401132077" free_energy=-326.112925710215 pbc="T T T"
Si       0.00000000      -0.00000000      -0.00000000       0.00000000       0.00000000       0.00000000
Si       1.43845812       1.43845812       1.43845812      -0.00000000      -0.00000000       0.00000000
