2
Lattice="2.7686574445154406 7.49644059377374e-18 2.7686574445154406 2.7686574445154406 2.7686574445154406 4.6104425627881744e-17 4.383542737526136e-17 2.7686574445154406 2.7686574445154406" Properties=species:S:1:pos:R:3:forces:R:3 n_minim_iter=1 energy=-326.3353355913312 stress="0.02079813590465302 -3.950270803653723e-17 2.4075430151314647e-17 -3.950270803653723e-17 0.020798135904652907 7.782541489649575e-18 2.4075430151314647e-17 7.782541489649575e-18 0.020798135904652956" free_energy=-326.3353355913312 pbc="T T T"
Si       0.00000000      -0.00000000      -0.00000000       0.00000000       0.00000000      -0.00000000
Si       1.38432872       1.38432872       1.38432872      -0.00000000      -0.00000000       0.00000000
