2
Lattice="2.9381455081085455 7.955347925410726e-18 2.9381455081085455 2.9381455081085455 2.9381455081085455 4.892678627716371e-17 4.6518887446252385e-17 2.9381455081085455 2.9381455081085455" Properties=species:S:1:pos:R:3:forces:R:3 n_minim_iter=1 energy=-325.9048994931859 stress="0.07328928357281138 -1.332201799439593e-16 -3.800942899807828e-17 -1.332201799439593e-16 0.07328928357281139 2.3683001371623504e-17 -3.800942899807828e-17 2.3683001371623504e-17 0.0732892835728115" free_energy=-325.9048994931859 pbc="T T T"
Si       0.00000000      -0.00000000      -0.00000000      -0.00000000       0.00000000      -0.00000000
Si       1.46907275       1.46907275       1.46907275       0.00000000      -0.00000000       0.00000000
