2
Lattice="2.6011630664985126 7.04293138226682e-18 2.6011630664985126 2.6011630664985126 2.6011630664985126 4.331526436502234e-17 4.1183532805252325e-17 2.6011630664985126 2.6011630664985126" Properties=species:S:1:pos:R:3:forces:R:3 n_minim_iter=1 energy=-326.0885404496578 stress="-0.10949629630875217 1.3288865708344522e-16 7.707340537283595e-16 1.3288865708344522e-16 -0.10949629630875256 -3.321215655562419e-17 7.707340537283595e-16 -3.321215655562419e-17 -0.10949629630875209" free_energy=-326.0885404496578 pbc="T T T"
Si       0.00000000      -0.00000000      -0.00000000       0.00000000       0.00000000      -0.00000000
Si       1.30058153       1.30058153       1.30058153      -0.00000000      -0.00000000       0.00000000
