2
Lattice="2.722886104062572 7.372509720605583e-18 2.722886104062572 2.722886104062572 2.722886104062572 4.5342229002229104e-17 4.311074174314583e-17 2.722886104062572 2.722886104062572" Properties=species:S:1:pos:R:3:forces:R:3 n_minim_iter=1 energy=-326.3508516326131 stress="0.008976874745528876 1.3721721203928856e-16 3.177414560947e-16 1.3721721203928856e-16 0.008976874745528874 3.351866534490831e-16 3.177414560947e-16 3.351866534490831e-16 0.008976874745528869" free_energy=-326.3508516326131 pbc="T T T"
Si      -0.00000000      -0.00000000      -0.00000000       0.00000000       0.00000000       0.00000000
Si       1.36144305       1.36144305       1.36144305      -0.00000000      -0.00000000      -0.00000000
