4
Lattice="2.013931217298218 -3.488231191309552 7.786927963279151e-34 2.013931217298219 3.488231191309552 -7.786927963279134e-34 -4.453463574861731e-48 1.5942800298975745e-33 6.661597274331356" Properties=species:S:1:pos:R:3:forces:R:3 cutoff=-1.0 nneightol=1.2 n_minim_iter=3 energy=-652.3833670292256 stress="0.04761172637441599 1.589453454696297e-16 3.229810639030795e-17 1.589453454696297e-16 0.04761172637441619 -3.277101694619741e-17 3.229810639030795e-17 -3.277101694619741e-17 0.04779169878276602" free_energy=-652.3833670292256 pbc="T T T"
Si       2.01393122       1.16274373       0.41673631       0.00000000       0.00000000       0.00176388
Si       2.01393122      -1.16274373       3.74753495      -0.00000000       0.00000000       0.00176388
Si       2.01393122       1.16274373       2.91406233       0.00000000      -0.00000000      -0.00176388
Si       2.01393122      -1.16274373      -0.41673631      -0.00000000      -0.00000000      -0.00176388
