4
Lattice="1.8168959873362973 -3.146956162134485 4.777618723020256e-18 1.8168959873362969 3.146956162134485 -4.7776187230201986e-18 -2.528494490498959e-31 1.3654021721147773e-17 6.049626959519656" Properties=species:S:1:pos:R:3:forces:R:3 cutoff=-1.0 nneightol=1.2 n_minim_iter=2 energy=-651.9753260484824 stress="-0.13255152508762488 -9.990850286662439e-17 1.3093657035435337e-17 -9.990850286662439e-17 -0.13255152508762483 8.505250680562313e-18 1.3093657035435337e-17 8.505250680562313e-18 -0.13841836815837652" free_energy=-651.9753260484824 pbc="T T T"
Si       1.81689599       1.04898539       0.39529668      -0.00000000      -0.00000000      -0.00551607
Si       1.81689599      -1.04898539       3.42011015       0.00000000       0.00000000      -0.00551607
Si       1.81689599       1.04898539       2.62951680      -0.00000000      -0.00000000       0.00551607
Si       1.81689599      -1.04898539      -0.39529668       0.00000000       0.00000000       0.00551607
