1
Lattice="2.748301220906312 -9.249747034247379e-17 -3.6174504714691967e-51 1.374150610453156 2.3800986745566544 -2.07407997869034e-50 4.62618134671282e-50 1.4832958064956079e-49 2.5660026936826865" Properties=species:S:1:pos:R:3:forces:R:3 cutoff=-1.0 nneightol=1.2 n_minim_iter=1 energy=-162.7845488360105 stress="0.05787832602584485 -2.067015900854374e-19 2.2737174909396375e-18 -2.067015900854374e-19 0.057878326025844376 -7.105367159186368e-18 2.2737174909396375e-18 -7.105367159186368e-18 0.06458129434500115" free_energy=-162.7845488360105 pbc="T T T"
Si       0.00000000       0.00000000       0.00000000      -0.00000000      -0.00000000       0.00000000
