1
Lattice="2.53989371373391 -8.255400940407318e-17 -2.233452202906887e-51 1.269946856866955 2.199612479005969 -1.7557055312445472e-50 5.490418950465838e-50 2.1301088214809593e-49 2.3898467417155143" Properties=species:S:1:pos:R:3:forces:R:3 cutoff=-1.0 nneightol=1.2 n_minim_iter=2 energy=-162.7491216526114 stress="-0.10718898160915492 -3.3131312010834435e-18 5.197068550719173e-19 -3.3131312010834435e-18 -0.10718898160915419 1.8112595941217345e-17 5.197068550719173e-19 1.8112595941217345e-17 -0.1071898734867963" free_energy=-162.7491216526114 pbc="T T T"
Si       0.00000000       0.00000000       0.00000000      -0.00000000      -0.00000000       0.00000000
