1
Lattice="2.706012938284735 -9.107420598634417e-17 -3.561788535017923e-51 1.3530064691423676 2.343475947523953 -2.0421659804533904e-50 2.559679827099177e-50 2.5466707630502033e-50 2.5265194498909467" Properties=species:S:1:pos:R:3:forces:R:3 cutoff=-1.0 nneightol=1.2 n_minim_iter=1 energy=-162.8313630287496 stress="0.017870740214265476 8.429391673727424e-18 -3.9928697401866754e-18 8.429391673727424e-18 0.017870740214265463 1.1645870075544471e-17 -3.9928697401866754e-18 1.1645870075544471e-17 0.025055680480179837" free_energy=-162.8313630287496 pbc="T T T"
Si       0.00000000       0.00000000       0.00000000      -0.00000000      -0.00000000       0.00000000
