1
Lattice="2.6399861044665127 -8.88519913846658e-17 -3.474880739282716e-51 1.3199930522332566 2.286295032105919 -1.992337041384794e-50 2.49722352758168e-50 2.4845318852633787e-50 2.4648722650248622" Properties=species:S:1:pos:R:3:forces:R:3 cutoff=-1.0 nneightol=1.2 n_minim_iter=1 energy=-162.8361704783247 stress="0.0028761612817508457 1.7885630213103902e-16 -6.3664089746309764e-18 1.7885630213103902e-16 0.0028761612817514407 4.490592044605778e-18 -6.3664089746309764e-18 4.490592044605778e-18 0.008328832063414704" free_energy=-162.8361704783247 pbc="T T T"
Si       0.00000000       0.00000000       0.00000000      -0.00000000       0.00000000      -0.00000000
