1
Lattice="2.515470146041912 -8.17601716832175e-17 -2.2119753707191553e-51 1.257735073020956 2.17846104893365 -1.7388227015978974e-50 5.437623190482246e-50 2.1096257372040666e-49 2.366866022737325" Properties=species:S:1:pos:R:3:forces:R:3 cutoff=-1.0 nneightol=1.2 n_minim_iter=2 energy=-162.7491216526114 stress="-0.10718898160915492 -3.3131312010834435e-18 5.197068550719173e-19 -3.3131312010834435e-18 -0.10718898160915419 1.8112595941217345e-17 5.197068550719173e-19 1.8112595941217345e-17 -0.1071898734867963" free_energy=-162.7491216526114 pbc="T T T"
Si       0.00000000       0.00000000       0.00000000      -0.00000000      -0.00000000       0.00000000
