1
Lattice="2.867940300467705 -9.65240712584685e-17 -3.774925365950659e-51 1.4339701502338527 2.483709156742208 -2.164368851576478e-50 9.0570036941867e-50 4.1037873453052544e-49 2.6777059517131176" Properties=species:S:1:pos:R:3:forces:R:3 cutoff=-1.0 nneightol=1.2 n_minim_iter=1 energy=-162.590356403983 stress="0.09884852681231966 -1.80078425282419e-17 1.5461278938389518e-18 -1.80078425282419e-17 0.0988485268123199 -1.3642304945637811e-19 1.5461278938389518e-18 -1.3642304945637811e-19 0.10276145117603099" free_energy=-162.590356403983 pbc="T T T"
Si       0.00000000       0.00000000       0.00000000       0.00000000      -0.00000000      -0.00000000
