1
Lattice="2.6516024954657422 2.165588061680214e-17 3.4268192280086436e-50 1.3258012477328713 2.296355121811545 -5.735723589119873e-49 -1.3543306208468443e-49 1.2431128871945808e-48 2.4625332853750823" Properties=species:S:1:pos:R:3 cutoff=-1.0 nneightol=1.2 n_minim_iter=1 energy=-162.83507086988993 free_energy=-162.83507086988993 pbc="T T T"
Si       0.00000000       0.00000000       0.00000000
