1
Lattice="2.821756295824588 2.3045542300017284e-17 3.6467188229839556e-50 1.410878147912294 2.4437126354727705 -6.103785984658234e-49 -4.827932339743826e-49 8.063907438399704e-48 2.6205544811362267" Properties=species:S:1:pos:R:3 cutoff=-1.0 nneightol=1.2 n_minim_iter=1 energy=-162.70630558235666 free_energy=-162.70630558235666 pbc="T T T"
Si       0.00000000       0.00000000       0.00000000
