1
Lattice="2.6961755682742448 2.2019912987836482e-17 3.484423587339577e-50 1.3480877841371224 2.334956535188442 -5.832140312812231e-49 -7.299025105642968e-50 -2.4194193327337933e-50 2.503928130797833" Properties=species:S:1:pos:R:3 cutoff=-1.0 nneightol=1.2 n_minim_iter=1 energy=-162.8283226157714 free_energy=-162.8283226157714 pbc="T T T"
Si       0.00000000       0.00000000       0.00000000
