1
Lattice="2.524906768024698 1.4560987371068768e-17 3.7970130551593545e-49 1.262453384012349 2.1866334032966512 -1.2400070605754757e-47 3.783235237433536e-48 1.1414437300233602e-47 2.367677595927456" Properties=species:S:1:pos:R:3 cutoff=-1.0 nneightol=1.2 n_minim_iter=1 stress="-0.12858601926484828 -1.1634554471587236e-15 -1.0784248984955793e-15 -1.1634554471587236e-15 -0.1285860192648874 -6.00037657175612e-15 -1.0784248984955793e-15 -6.00037657175612e-15 -0.1413722198280256" pbc="T T T"
Si       0.00000000       0.00000000       0.00000000
