1
Lattice="2.8805597289701157 2.3525795328227676e-17 3.7227138998179065e-50 1.4402798644850578 2.4946379024065375 -6.230984627437753e-49 -7.002905338278893e-49 1.2360854852168215e-47 2.6751650087936754" Properties=species:S:1:pos:R:3 cutoff=-1.0 nneightol=1.2 n_minim_iter=1 stress="0.08214481166166342 -5.849079921688464e-16 -9.164744270881676e-17 -5.849079921688464e-16 0.08214481166163977 -1.1599471863530238e-15 -9.164744270881676e-17 -1.1599471863530238e-15 0.09313945362203836" pbc="T T T"
Si       0.00000000       0.00000000       0.00000000
