1
Lattice="2.5817908084296213 2.1085722170090377e-17 3.33659754814366e-50 1.2908954042148109 2.235896427357214 -5.584712817024862e-49 -2.5581479007348648e-49 3.677487734360556e-48 2.3976994336463218" Properties=species:S:1:pos:R:3 cutoff=-1.0 nneightol=1.2 n_minim_iter=1 stress="-0.04264450249899903 -5.2214996944744486e-11 -1.7326766476311529e-15 -5.2214996944744486e-11 -0.04264450253406096 -3.0058840531139373e-16 -1.7326766476311529e-15 -3.0058840531139373e-16 -0.05725957161497096" pbc="T T T"
Si       0.00000000       0.00000000       0.00000000
