1
Lattice="2.628742715741462 2.1469182700548878e-17 3.397276212854162e-50 1.3143713578707312 2.276557971845402 -5.6862752355182875e-49 -1.3426547758740975e-49 1.2323958634995603e-48 2.4413034937439297" Properties=species:S:1:pos:R:3 cutoff=-1.0 nneightol=1.2 n_minim_iter=1 stress="-0.005378582668120238 2.0553423095164368e-11 1.944652685212103e-15 2.0553423095164368e-11 -0.0053785826443356775 -5.275107173969488e-15 1.944652685212103e-15 -5.275107173969488e-15 -0.011153992792320794" pbc="T T T"
Si       0.00000000       0.00000000       0.00000000
