2
Lattice="2.9575492190531616 9.325978004001527e-17 8.817182377375735e-17 9.325978004001527e-17 2.9575492190531616 9.132343509734136e-17 8.817182377375735e-17 9.132343509734136e-17 2.9575492190531616" Properties=species:S:1:pos:R:3:forces:R:3 n_minim_iter=1 energy=-325.05578335061693 stress="-0.09791661428388397 8.427595256107938e-17 4.117228778157479e-17 8.427595256107938e-17 -0.09791661428388401 1.9311979917423394e-17 4.117228778157479e-17 1.9311979917423394e-17 -0.09791661428388411" free_energy=-325.05578335061693 pbc="T T T"
Si      -0.00000000      -0.00000000      -0.00000000      -0.00000001      -0.00000001      -0.00000001
Si       1.47877461       1.47877461       1.47877461       0.00000001       0.00000001       0.00000001
