2
Lattice="3.092164784272919 9.750458446168982e-17 9.218504519955703e-17 9.750458446168982e-17 3.092164784272919 9.548010500303246e-17 9.218504519955703e-17 9.548010500303246e-17 3.092164784272919" Properties=species:S:1:pos:R:3:forces:R:3 n_minim_iter=2 energy=-325.20472054130676 stress="0.0029245988625957314 0.0029245988625957297 0.0029245988625957032 2.738587950746595e-17 4.03989079241087e-17 3.682641627039861e-17" pbc="T T T"
Si      -0.00000000      -0.00000000      -0.00000000      -0.00000001      -0.00000001      -0.00000001
Si       1.54608239       1.54608239       1.54608239       0.00000001       0.00000001       0.00000001
