2
Lattice="2.697727373970261 -1.223008216884573e-16 2.697727373970261 2.697727373970261 2.697727373970261 5.0236452682101054e-17 -2.1308729637961417e-17 2.697727373970261 2.697727373970261" Properties=species:S:1:pos:R:3:forces:R:3 n_minim_iter=1 energy=-326.3401593366277 stress="-0.02157046647357673 2.5595258315928186e-17 4.478172711356098e-18 2.5595258315928186e-17 -0.021570466473576654 -4.064100196308794e-17 4.478172711356098e-18 -4.064100196308794e-17 -0.021570466473576518" free_energy=-326.3401593366277 pbc="T T T"
Si       0.00000000       0.00000000       0.00000000       0.00000000       0.00000000      -0.00000000
Si       1.34886369       1.34886369       1.34886369      -0.00000000      -0.00000000       0.00000000
