2
Lattice="2.916199776580618 -1.3220521551761395e-16 2.916199776580618 2.916199776580618 2.916199776580618 5.430479502906245e-17 -2.303439302615199e-17 2.916199776580618 2.916199776580618" Properties=species:S:1:pos:R:3:forces:R:3 n_minim_iter=1 energy=-325.97448745009945 stress="0.07292943765823384 6.655818921577717e-17 -1.0297730999084632e-17 6.655818921577717e-17 0.07292943765823388 -2.2033779174226595e-18 -1.0297730999084632e-17 -2.2033779174226595e-18 0.07292943765823376" free_energy=-325.97448745009945 pbc="T T T"
Si       0.00000000       0.00000000       0.00000000       0.00000000      -0.00000000      -0.00000000
Si       1.45809989       1.45809989       1.45809989      -0.00000000       0.00000000       0.00000000
