2
Lattice="2.956152683434888 -1.340164709410738e-16 2.956152683434888 2.956152683434888 2.956152683434888 5.5048788782494677e-17 -2.3349971871747266e-17 2.956152683434888 2.956152683434888" Properties=species:S:1:pos:R:3:forces:R:3 n_minim_iter=1 energy=-325.8174501426588 stress="0.07784376455067385 6.361984342949388e-17 -1.0715832138868425e-17 6.361984342949388e-17 0.0778437645506739 1.6334374961160008e-17 -1.0715832138868425e-17 1.6334374961160008e-17 0.07784376455067382" free_energy=-325.8174501426588 pbc="T T T"
Si       0.00000000       0.00000000       0.00000000       0.00000000      -0.00000000       0.00000000
Si       1.47807634       1.47807634       1.47807634      -0.00000000      -0.00000000      -0.00000000
