2
Lattice="2.648257822887108 -1.3304927744754917e-52 -1.1322226834314397e-35 2.6582386269143373e-52 2.648257822887108 3.105584609796421e-17 1.6316956862701763e-35 -4.475593966898929e-17 3.8165203090967785" Properties=species:S:1:pos:R:3:tags:I:1 spacegroup="P 1" unit_cell=conventional n_minim_iter=1 energy=-1704.0596189085763 free_energy=-1704.0596189085763 pbc="T T T"
Ti       1.32412891       1.32412891       1.90826016        0
Al       0.00000000       0.00000000       0.00000000        1
