2
Lattice="2.622792228065795 -1.3176987822838486e-52 -1.1213352525119187e-35 2.6326770568789985e-52 2.622792228065795 3.075721369641744e-17 1.6160053328389005e-35 -4.432556743876019e-17 3.779820725325583" Properties=species:S:1:pos:R:3:tags:I:1 spacegroup="P 1" unit_cell=conventional n_minim_iter=1 energy=-1703.9415781015198 free_energy=-1703.9415781015198 pbc="T T T"
Ti       1.31139611       1.31139611       1.88991037        0
Al       0.00000000       0.00000000       0.00000000        1
