2
Lattice="2.570322246809873 -1.2913377043198597e-52 -1.0989025035311524e-35 2.580009325768172e-52 2.570322246809873 3.0141903642930847e-17 1.5836765160091904e-35 -4.343881717780454e-17 3.704203937809465" Properties=species:S:1:pos:R:3:tags:I:1 spacegroup="P 1" unit_cell=conventional n_minim_iter=1 energy=-1703.6102184526535 free_energy=-1703.6102184526535 pbc="T T T"
Ti       1.28516112       1.28516112       1.85210197        0
Al       0.00000000       0.00000000       0.00000000        1
