2
Lattice="2.82410522 0.0 0.0 0.0 2.82410522 0.0 0.0 0.0 4.06471199" Properties=species:S:1:pos:R:3:tags:I:1 spacegroup="P 1" unit_cell=conventional n_minim_iter=1 energy=-1704.2547927961814 free_energy=-1704.2547927961814 pbc="T T T"
Ti       1.41205261       1.41205261       2.03235600        0
Al       0.00000000       0.00000000       0.00000000        1
2
Lattice="2.7687957065439415 -1.3910513733664202e-52 -1.1837568372851988e-35 1.3972796906893352e-52 2.7687957065439415 3.246938141596431e-17 1.7060338538585152e-35 4.673292022361448e-17 3.9902327312847072" Properties=species:S:1:pos:R:3:tags:I:1 spacegroup="P 1" unit_cell=conventional n_minim_iter=2 stress="0.0007873651657864257 -3.890940270610536e-18 2.18991704265118e-17 -3.890940270610536e-18 0.0007873651657864257 1.2532637469884126e-17 2.18991704265118e-17 1.2532637469884126e-17 -0.0011238514047956986" pbc="T T T"
Ti       1.38439785       1.38439785       1.99511637        0
Al       0.00000000       0.00000000       0.00000000        1
