2
Lattice="2.81419386889587 -1.4138595480319262e-52 -1.2031661367713498e-35 2.8248000558227366e-52 2.81419386889587 3.300176097921803e-17 1.7339354033133034e-35 -4.7560282811071436e-17 4.0556580109211575" Properties=species:S:1:pos:R:3:tags:I:1 spacegroup="P 1" unit_cell=conventional n_minim_iter=1 stress="0.03658538377010976 2.0272303501609147e-17 2.1658474677113075e-17 2.0272303501609147e-17 0.03658538377010965 -4.779738918701769e-18 2.1658474677113075e-17 -4.779738918701769e-18 0.03440440022144423" pbc="T T T"
Ti       1.40709693       1.40709693       2.02782901        0
Al       0.00000000       0.00000000       0.00000000        1
