2
Lattice="2.921708394720775 -1.4678751723887885e-52 -1.249132350440313e-35 2.9327197844202203e-52 2.921708394720775 3.4262572724380256e-17 1.8001793265762696e-35 -4.9377293824792736e-17 4.210601901877486" Properties=species:S:1:pos:R:3:tags:I:1 spacegroup="P 1" unit_cell=conventional n_minim_iter=1 stress="0.08576025484834039 2.011181490482595e-17 -9.40887963950365e-18 2.011181490482595e-17 0.08576025484834034 1.8954288913974846e-18 -9.40887963950365e-18 1.8954288913974846e-18 0.08315755846255828" pbc="T T T"
Ti       1.46085420       1.46085420       2.10530096        0
Al      -0.00000000       0.00000000       0.00000001        1
