2
Lattice="2.8141938688958708 -1.4138595480319272e-52 -1.2031661367713499e-35 2.8248000558227385e-52 2.8141938688958708 3.3001760979218043e-17 1.7339354033133032e-35 -4.756028281107146e-17 4.055658010921158" Properties=species:S:1:pos:R:3:tags:I:1 spacegroup="P 1" unit_cell=conventional n_minim_iter=1 stress="0.01995303665042453 9.901325351141832e-18 -2.0333285008412208e-17 9.901325351141832e-18 0.01995303665042453 -2.268350673282196e-18 -2.0333285008412208e-17 -2.268350673282196e-18 0.0177699460697374" pbc="T T T"
Ti       1.40709693       1.40709693       2.02782901        0
Al      -0.00000000       0.00000000       0.00000000        1
