2
Lattice="2.515617847853105 -1.263854048115774e-52 -1.0755144629683905e-35 2.525098755840927e-52 2.515617847853105 2.9500390803734966e-17 1.549970986650856e-35 -4.251430493500931e-17 3.6253670331051384" Properties=species:S:1:pos:R:3:tags:I:1 spacegroup="P 1" unit_cell=conventional n_minim_iter=1 stress="-0.35948539052593664 -8.468509180253525e-18 3.38740367210141e-17 -8.468509180253525e-18 -0.3594853905259368 -4.619874204584736e-17 3.38740367210141e-17 -4.619874204584736e-17 -0.3631331795537267" pbc="T T T"
Ti       1.25780892       1.25780892       1.81268352        0
Al       0.00000000       0.00000000       0.00000000        1
