2
Lattice="2.7687957065439415 -1.3910513733664207e-52 -1.183756837285199e-35 2.779230796020359e-52 2.7687957065439415 3.246938141596431e-17 1.7059638119395154e-35 -4.679304731090749e-17 3.9902327312847077" Properties=species:S:1:pos:R:3:tags:I:1 spacegroup="P 1" unit_cell=conventional n_minim_iter=1 stress="0.000787365165786716 3.243131486525015e-17 2.197412816648707e-19 3.243131486525015e-17 0.0007873651657868321 1.236251116938796e-17 2.197412816648707e-19 1.236251116938796e-17 -0.001123851404795771" pbc="T T T"
Ti       1.38439785       1.38439785       1.99511637        0
Al       0.00000000       0.00000000       0.00000000        1
