2
Lattice="2.8796635792588097 -1.446751729386811e-52 -1.2311567238320142e-35 2.8905165096648054e-52 2.8796635792588097 3.3769517513924744e-17 1.774273863963674e-35 -4.8666730371360537e-17 4.150009277278768" Properties=species:S:1:pos:R:3:tags:I:1 spacegroup="P 1" unit_cell=conventional n_minim_iter=1 stress="0.06390823860272395 2.0965941185021597e-17 9.750493708049987e-18 2.0965941185021597e-17 0.06390823860272395 6.057527366151311e-19 9.750493708049987e-18 6.057527366151311e-19 0.060480484306270954" pbc="T T T"
Ti       1.43983179       1.43983179       2.07500464        0
Al      -0.00000000      -0.00000000       0.00000001        1
