2
Lattice="2.515617847853105 -1.2638540481157755e-52 -1.0755144629683905e-35 2.5250987558409275e-52 2.515617847853105 2.950039080373496e-17 1.5499709866508557e-35 -4.25143049350093e-17 3.6253670331051384" Properties=species:S:1:pos:R:3:tags:I:1 spacegroup="P 1" unit_cell=conventional n_minim_iter=1 stress="-0.3097187197648764 -2.9269040945576684e-17 -1.8146805386257544e-17 -2.9269040945576684e-17 -0.3097187197648761 -6.029422434788797e-17 -1.8146805386257544e-17 -6.029422434788797e-17 -0.311909058327936" pbc="T T T"
Ti       1.25780892       1.25780892       1.81268352        0
Al       0.00000000      -0.00000000       0.00000000        1
