2
Lattice="2.8363537881235295 -1.424992758764112e-52 -1.2126402759566395e-35 2.8470434917719024e-52 2.8363537881235295 3.3261628064337126e-17 1.7475890001418963e-35 -4.7934788646361134e-17 4.087593640847139" Properties=species:S:1:pos:R:3:tags:I:1 spacegroup="P 1" unit_cell=conventional n_minim_iter=1 stress="0.03658538377010976 2.0272303501609147e-17 2.1658474677113075e-17 2.0272303501609147e-17 0.03658538377010965 -4.779738918701769e-18 2.1658474677113075e-17 -4.779738918701769e-18 0.03440440022144423" pbc="T T T"
Ti       1.41817689       1.41817689       2.04379683        0
Al       0.00000000      -0.00000000       0.00000001        1
