2
Lattice="2.962576742244362 -1.4884075543249274e-52 -1.2666049959284778e-35 2.9737421573427023e-52 2.962576742244362 3.4741831616774267e-17 1.825359921072362e-35 -5.0067974800160486e-17 4.269499067015641" Properties=species:S:1:pos:R:3:tags:I:1 spacegroup="P 1" unit_cell=conventional n_minim_iter=1 stress="0.1006148831679155 7.558152544210406e-18 -1.0478108677927964e-20 7.558152544210406e-18 0.1006148831679157 1.3657361345386548e-17 -1.0478108677927964e-20 1.3657361345386548e-17 0.09956714378879387" pbc="T T T"
Ti       1.48128837       1.48128837       2.13474954        0
Al       0.00000000      -0.00000000       0.00000001        1
