8
Lattice="6.695520801572365 0.0 0.0 0.0 3.8283617373583443 1.5817117854723745e-16 0.0 4.87254972725303e-26 6.695520801572366" Properties=species:S:1:pos:R:3 unique_starting_index=2 config_type=initial n_minim_iter=1 energy=-1304.6437419511583 free_energy=-1304.6437419511583 pbc="T T T"
Si       2.15618394       0.95969524       5.50396258
Si       4.54157642       0.95969524       1.19383426
Si       5.50394434       2.87387611       2.15620218
Si       1.19381602       2.87387611       4.54159466
Si       7.88933682       2.86721557       2.15620218
Si      -1.19157646       2.86721557       4.54159466
Si       4.54157642       0.95303470       5.50396258
Si       2.15618394       0.95303470       1.19383426
8
Lattice="6.693820338923239 0.0 0.0 0.0 3.82799748170809 1.5813100778391847e-16 0.0 4.8686948214860695e-26 6.69382033892324" Properties=species:S:1:pos:R:3 unique_starting_index=2 config_type=initial n_minim_iter=2 stress="-8.33587367069157e-05 -3.330444797493583e-17 -3.352897234330618e-16 -3.330444797493583e-17 -7.95273388929836e-05 -2.621473706378186e-17 -3.352897234330618e-16 -2.621473706378186e-17 -8.335873670821414e-05" pbc="T T T"
Si       2.15567464       0.95955057       5.50260304
Si       4.54038469       0.95955057       1.19349276
Si       5.50258481       2.87354931       2.15569287
Si       1.19347452       2.87354931       4.54040293
Si       7.88729486       2.86699612       2.15569287
Si      -1.19123553       2.86699612       4.54040293
Si       4.54038469       0.95299738       5.50260304
Si       2.15567464       0.95299738       1.19349276
8
Lattice="6.69391420798978 -1.0324213473196823e-87 1.1079664332657725e-68 -3.946977336730805e-86 3.8291437654221587 1.5760293034245825e-16 -1.6707893154720855e-69 -9.274464985706586e-19 6.693914207989781" Properties=species:S:1:pos:R:3 unique_starting_index=2 config_type=initial n_minim_iter=3 stress="-0.00012366142703542935 -3.95721021033925e-17 6.690657712810685e-16 -3.95721021033925e-17 0.000517484805648372 2.6287037677266354e-18 6.690657712810685e-16 2.6287037677266354e-18 -0.00012366142703621876" pbc="T T T"
Si       2.15598989       0.95932234       5.50296523
Si       4.54016334       0.95932234       1.19322448
Si       5.50294699       2.87389422       2.15600812
Si       1.19320624       2.87389422       4.54018158
Si       7.88712045       2.86837021       2.15600812
Si      -1.19096722       2.86837021       4.54018158
Si       4.54016334       0.95379832       5.50296523
Si       2.15598989       0.95379832       1.19322448
8
Lattice="6.6960975603596316 5.9498816810044335e-86 1.556696452589815e-66 -5.332925697264435e-82 3.8262871267292256 1.57041415067464e-16 -2.269282388755922e-65 -1.9980384672302444e-18 6.696097560359631" Properties=species:S:1:pos:R:3 unique_starting_index=2 config_type=initial n_minim_iter=4 stress="2.861813970572223e-05 -1.0682135965096692e-16 5.604114759141645e-16 -1.0682135965096692e-16 -7.592581186371546e-05 3.766983533339744e-17 5.604114759141645e-16 3.766983533339744e-17 2.8618139705788238e-05" pbc="T T T"
Si       2.15714634       0.95756758       5.50521337
Si       4.54119097       0.95756758       1.19316043
Si       5.50519512       2.87071115       2.15716459
Si       1.19314219       2.87071115       4.54120921
Si       7.88923975       2.86726940       2.15716459
Si      -1.19090244       2.86726940       4.54120921
Si       4.54119097       0.95412584       5.50521337
Si       2.15714634       0.95412584       1.19316043
8
Lattice="6.694940774006215 -3.524744125043436e-80 -8.91956384172985e-65 -4.9947734883167466e-80 3.827619797925213 1.568696051578907e-16 3.8574557024176115e-64 -2.252210704380929e-18 6.694940774006215" Properties=species:S:1:pos:R:3 unique_starting_index=2 config_type=initial n_minim_iter=5 stress="-2.3284868101314397e-05 5.411074513773574e-17 -3.533300715861044e-16 5.411074513773574e-17 0.00011391777849432775 -1.0465219324966175e-17 -3.533300715861044e-16 -1.0465219324966175e-17 -2.3284868100685394e-05" pbc="T T T"
Si       2.15644034       0.95720974       5.50392897
Si       4.54073980       0.95720974       1.19328765
Si       5.50391073       2.87101964       2.15645858
Si       1.19326941       2.87101964       4.54075804
Si       7.88821018       2.86895941       2.15645858
Si      -1.19103004       2.86895941       4.54075804
Si       4.54073980       0.95514951       5.50392897
Si       2.15644034       0.95514951       1.19328765
