2
Lattice="2.727586693054009 -8.417854939607756e-16 -1.8805863908408934e-16 -1.3637933465270045 2.362159367198669 6.879682865727164e-17 -3.385055503513609e-16 -5.244474745673451e-17 4.901194603372653" Properties=species:S:1:pos:R:3:forces:R:3 n_minim_iter=1 energy=-325.18528901855086 stress="0.0497037474137128 -4.875659629075455e-16 -9.419293307338447e-17 -4.875659629075455e-16 0.04970374740129913 1.3326191857911394e-16 -9.419293307338447e-17 1.3326191857911394e-16 0.05270143631625472" free_energy=-325.18528901855086 pbc="T T T"
Si      -0.00000000      -0.00000000      -0.00000000       0.00000000      -0.00000000       0.00000000
Si      -0.00000000       1.57477291       2.45059730      -0.00000000       0.00000000      -0.00000000
