2
Lattice="2.998796248478512 0.0 0.0 0.0 2.998796248478511 0.0 0.0 9.765940429579245e-32 2.998796248478512" Properties=species:S:1:pos:R:3 Minim_Constant_Volume=F n_minim_iter=1 stress="-0.09602973171775854 -2.09362915332807e-16 2.256186666423459e-16 -2.09362915332807e-16 -0.09602973171775805 -2.1046134171141808e-16 2.256186666423459e-16 -2.1046134171141808e-16 -0.09602973171775857" pbc="T T T"
Ti       0.00000000       0.00000000       0.00000000
Ti       1.49939812       1.49939812       1.49939812
