2
Lattice="2.9078670820125843 0.0 0.0 0.0 2.9078670820125843 0.0 0.0 9.756956118684794e-32 2.9078670820125843" Properties=species:S:1:pos:R:3 Minim_Constant_Volume=F n_minim_iter=1 stress="-0.3351737618397186 -5.345846925436451e-18 1.0379349510930692e-18 -5.345846925436451e-18 -0.3351737618397186 -1.3669364162521584e-19 1.0379349510930692e-18 -1.3669364162521584e-19 -0.3351737618397186" pbc="T T T"
Ti       0.00000000       0.00000000       0.00000000
Ti       1.45393354       1.45393354       1.45393354
