2
Lattice="3.3640909782272583 0.0 0.0 0.0 3.3640909782272583 0.0 0.0 0.0 3.3640909782272583" Properties=species:S:1:pos:R:3 Minim_Constant_Volume=F n_minim_iter=1 stress="-0.020315055276632073 4.3989384396700506e-18 -9.224298746498527e-19 4.3989384396700506e-18 -0.020315055276632084 -1.4238921002626651e-18 -9.224298746498527e-19 -1.4238921002626651e-18 -0.020315055276632053" pbc="T T T"
Ti       0.00000000       0.00000000       0.00000000
Ti       1.68204549       1.68204549       1.68204549
