1
Lattice="2.546919888721033 2.32046182780599e-16 -7.750461122313416e-51 1.2734599443605166 2.2056973250362506 5.002132756967927e-50 1.038999918302891e-49 -7.027048040049887e-49 2.3781244115538134" Properties=species:S:1:pos:R:3:forces:R:3 cutoff=-1.0 nneightol=1.2 n_minim_iter=1 energy=-162.7493440554001 stress="-0.1014075474436478 2.0386097792647104e-17 5.193910265642582e-18 2.0386097792647104e-17 -0.1014075474436476 -2.472788215533272e-17 5.193910265642582e-18 -2.472788215533272e-17 -0.1201375701810262" free_energy=-162.7493440554001 pbc="T T T"
Si       0.00000000       0.00000000       0.00000000      -0.00000000       0.00000000       0.00000000
1
Lattice="2.540038061006655 2.387252301829207e-16 -1.9574568669989727e-51 1.2700190305033274 2.1997374874111326 4.640520870119124e-50 1.132812141827928e-49 -7.202871114535464e-49 2.391028165284351" Properties=species:S:1:pos:R:3:forces:R:3 cutoff=-1.0 nneightol=1.2 n_minim_iter=2 energy=-162.7500194042801 stress="-0.1068634320127564 1.0387820531285092e-17 2.85665064610342e-18 1.0387820531285092e-17 -0.10686343201275574 -2.852592903708384e-17 2.85665064610342e-18 -2.852592903708384e-17 -0.10686320825723056" free_energy=-162.7500194042801 pbc="T T T"
Si       0.00000000       0.00000000       0.00000000      -0.00000000      -0.00000000       0.00000000
