1
Lattice="2.7898351850910452 2.5417784365901955e-16 -8.489669908922106e-51 1.3949175925455226 2.4160681426605066 5.479216691379064e-50 1.1380956826418709e-49 -7.697260505237474e-49 2.6049406529266217" Properties=species:S:1:pos:R:3:forces:R:3 cutoff=-1.0 nneightol=1.2 n_minim_iter=1 energy=-162.7300675404512 stress="0.08080412815370855 6.323021192956188e-18 -1.5807552982390475e-18 6.323021192956188e-18 0.08080412815370855 -5.927832368396429e-18 -1.5807552982390475e-18 -5.927832368396429e-18 0.0811030829087596" free_energy=-162.7300675404512 pbc="T T T"
Si       0.00000000       0.00000000       0.00000000      -0.00000000       0.00000000      -0.00000000
