1
Lattice="2.662845283362271 2.4260797761087995e-16 -8.103230468626437e-51 1.331422641681135 2.306091661739299 5.229809417104482e-50 3.296715442822821e-50 -1.2714142180273479e-49 2.4863669252411116" Properties=species:S:1:pos:R:3:forces:R:3 cutoff=-1.0 nneightol=1.2 n_minim_iter=1 energy=-162.8358857572416 stress="0.0032021148820732537 2.6813561746379793e-17 6.362540075412162e-18 2.6813561746379793e-17 0.003202114882073711 -5.135478775154101e-17 6.362540075412162e-18 -5.135478775154101e-17 0.009041446147907846" free_energy=-162.8358857572416 pbc="T T T"
Si       0.00000000       0.00000000       0.00000000      -0.00000000      -0.00000000       0.00000000
