1
Lattice="2.5873402373699994 0.0 0.0 1.2936701186849995 2.240702373796079 0.0 0.0 0.0 2.58734024" Properties=species:S:1:pos:R:3:forces:R:3 cutoff=-1.0 nneightol=1.2 n_minim_iter=1 energy=-162.8010117247083 stress="-0.03853454274512935 -1.4224731406186538e-17 -4.1633360213228904e-18 -1.4224731406186538e-17 -0.03853454274512961 -2.6483443024526158e-17 -4.1633360213228904e-18 -2.6483443024526158e-17 0.0487768900645122" free_energy=-162.8010117247083 pbc="T T T"
Si       0.00000000       0.00000000       0.00000000       0.00000000      -0.00000000       0.00000000
1
Lattice="2.6832027510266756 1.0520933146560164e-16 -9.031498634162566e-51 1.3416013755133376 2.323721745893394 5.695329720263555e-50 1.6624733211689319e-50 1.748923118236659e-51 2.470893482463855" Properties=species:S:1:pos:R:3:forces:R:3 cutoff=-1.0 nneightol=1.2 n_minim_iter=2 energy=-162.8341866018615 stress="0.01500770404290825 1.486320670643947e-17 -2.026800914514473e-18 1.486320670643947e-17 0.015007704042908614 -2.252001016127193e-18 -2.026800914514473e-18 -2.252001016127193e-18 -0.00011484869853174462" free_energy=-162.8341866018615 pbc="T T T"
Si       0.00000000       0.00000000       0.00000000      -0.00000000       0.00000000      -0.00000000
1
Lattice="2.6628452833622704 2.426079776108798e-16 -8.103230468626438e-51 1.331422641681135 2.3060916617392997 5.229809417104483e-50 1.7834766263821431e-50 -5.631894634365821e-51 2.4863669252411116" Properties=species:S:1:pos:R:3:forces:R:3 cutoff=-1.0 nneightol=1.2 n_minim_iter=3 energy=-162.8358857572416 stress="0.0032021148820732537 2.6813561746379793e-17 6.362540075412162e-18 2.6813561746379793e-17 0.003202114882073711 -5.135478775154101e-17 6.362540075412162e-18 -5.135478775154101e-17 0.009041446147907846" free_energy=-162.8358857572416 pbc="T T T"
Si       0.00000000       0.00000000       0.00000000      -0.00000000      -0.00000000       0.00000000
