1
Lattice="2.6404673742530065 2.405691587181414e-16 -8.035132875404881e-51 1.3202336871265028 2.2867118239670967 5.185859360927367e-50 3.26901064187192e-50 -1.260729559782646e-49 2.465472097662142" Properties=species:S:1:pos:R:3:forces:R:3 cutoff=-1.0 nneightol=1.2 n_minim_iter=1 energy=-162.8358857572416 stress="0.0032021148820732537 2.6813561746379793e-17 6.362540075412162e-18 2.6813561746379793e-17 0.003202114882073711 -5.135478775154101e-17 6.362540075412162e-18 -5.135478775154101e-17 0.009041446147907846" free_energy=-162.8358857572416 pbc="T T T"
Si       0.00000000       0.00000000       0.00000000      -0.00000000      -0.00000000       0.00000000
