1
Lattice="2.7065062447710284 2.4658586457791784e-16 -8.236093926743029e-51 1.3532531223855142 2.343903163472935 5.315559238381007e-50 3.350769565540383e-50 -1.2922607792056018e-49 2.527134284520015" Properties=species:S:1:pos:R:3:forces:R:3 cutoff=-1.0 nneightol=1.2 n_minim_iter=1 energy=-162.8309624041263 stress="0.01813742937827182 2.128236401531594e-17 -3.547060669219325e-18 2.128236401531594e-17 0.01813742937827189 4.433825836524154e-18 -3.547060669219325e-18 4.433825836524154e-18 0.024931801219030478" free_energy=-162.8309624041263 pbc="T T T"
Si       0.00000000       0.00000000       0.00000000      -0.00000000       0.00000000       0.00000000
