1
Lattice="2.5945368582572708 2.3638449591930254e-16 -7.895362998806405e-51 1.297268429128635 2.2469348303058623 5.095652150396656e-50 6.160987872369642e-50 -3.606649642074849e-49 2.422585597066487" Properties=species:S:1:pos:R:3:forces:R:3 cutoff=-1.0 nneightol=1.2 n_minim_iter=1 energy=-162.8265017577486 stress="-0.03096494545193048 2.4158516827692797e-17 1.4351594155065036e-18 2.4158516827692797e-17 -0.03096494545193061 -1.2916434739558521e-17 1.4351594155065036e-18 -1.2916434739558521e-17 -0.03223785980663026" free_energy=-162.8265017577486 pbc="T T T"
Si       0.00000000       0.00000000       0.00000000       0.00000000      -0.00000000       0.00000000
