20
Lattice="4.416373512368796 -7.211529210504974e-16 4.143648637899527e-12 6.565559539094005e-16 4.020778731256255 6.539301604494433e-13 -2.0745484404666213e-11 -3.596065956569262e-12 22.110901727534305" Properties=species:S:1:pos:R:3 unique_starting_index=4 config_type=initial n_minim_iter=1 energy=-3256.56185026676 free_energy=-3256.56185026676 pbc="T T T"
Si       2.91208755       2.37869651      13.50441642
Si       2.91208755       1.64208222       8.60648531
Si       1.22381408       1.50514333      12.11417439
Si       1.22381408       2.51563540       9.99672733
Si       1.50428596       0.36830715      19.66193617
Si       1.50428596       3.65247158       2.44896556
Si       3.19255943       3.51553269      21.05217820
Si       3.19255943       0.50524604       1.05872353
Si       2.33175813       2.69798949       4.66882221
Si       2.33175813       1.32278924      17.44207952
Si       1.74865442       3.33958987      17.81827890
Si       1.74865442       0.68118886       4.29262283
Si       2.08461538       0.68760012       6.38662865
Si       2.08461538       3.33317861      15.72427308
Si       2.66771909       1.32920051      15.34807369
Si       2.66771909       2.69157822       6.76282803
Si       5.29189958       2.31740776      20.91697177
Si       5.29189958       1.70337097       1.19392996
Si      -0.87552607       3.71376034       9.86152090
Si      -0.87552607       0.30701839      12.24938082
