16
Lattice="8.850501743652197 1.0635044113349208 -0.6218057987168966 2.1626343860120105 6.861035233370613 -0.46796893283728586 0.8105187735176347 0.9848863090350654 6.446881298223551" Properties=species:S:1:pos:R:3 unique_starting_index=30 config_type=initial n_minim_iter=1 energy=-2606.694742473985 free_energy=-2606.694742473985 pbc="T T T"
Si       6.13371883       6.56846078       2.04208648
Si       5.68993607       2.34096518       3.31502009
Si       4.34998073       3.43446609       2.02330139
Si       7.47367417       5.47495987       3.33380517
Si       6.58193099       3.90152776       4.48245342
Si       5.24172391       5.00789819       0.87465315
Si       6.27988303       4.71294280      -0.95062580
Si       5.54377188       4.19648315       6.30773237
Si       2.53309515       3.80870349       3.10002433
Si       9.29055975       5.10072246       2.25708224
Si      10.60499856       6.58656930       1.45442462
Si       1.21865635       2.32285666       3.90268195
Si       3.45973451       1.94979976       3.56452779
Si       8.36392039       6.95962619       1.79257878
Si       6.75947979       6.58020395       0.00577230
Si       5.06417511       2.32922200       5.35133427
16
Lattice="8.852202967252824 1.064762067317222 -0.6215774177349066 2.1637714221535402 6.8631850758173885 -0.4677298938628885 0.810967062452566 0.9854668543248516 6.447677571869756" Properties=species:S:1:pos:R:3 unique_starting_index=30 config_type=initial n_minim_iter=2 stress="3.1018730686539384e-05 -0.00025187239407315284 -0.0004517621180335106 -0.00025187239407315284 0.0007918318851561986 0.000212840510537249 -0.0004517621180335106 0.000212840510537249 0.0010398930982107352" pbc="T T T"
Si       6.13561800       6.57102249       2.04273682
Si       5.69132345       2.34239151       3.31563344
Si       4.35122001       3.43602114       2.02379228
Si       7.47572144       5.47739286       3.33457798
Si       6.58367237       3.90348366       4.48325697
Si       5.24326908       5.00993034       0.87511329
Si       6.28151934       4.71495116      -0.95033968
Si       5.54542211       4.19846283       6.30870994
Si       2.53412726       3.81015263       3.10059110
Si       9.29281419       5.10326137       2.25777916
Si      10.60768781       6.58960784       1.45511241
Si       1.21925365       2.32380616       3.90325785
Si       3.46073380       1.95083046       3.56514001
Si       8.36620765       6.96258353       1.79323025
Si       6.76142727       6.58285008       0.00618997
Si       5.06551418       2.33056392       5.35218029
16
Lattice="8.853818139799904 1.0665317228608346 -0.619878829578799 2.165396723171433 6.863754181345357 -0.46748839483853355 0.8124601816619985 0.9854029677048914 6.446301381839328" Properties=species:S:1:pos:R:3 unique_starting_index=30 config_type=initial n_minim_iter=3 stress="-0.00042297987370863493 0.000332243667568436 0.0010530074506944274 0.000332243667568436 0.0011297482010145762 0.00017155468122217408 0.0010530074506944274 0.00017155468122217408 -0.001398803591456031" pbc="T T T"
Si       6.13832685       6.57213039       2.04313935
Si       5.69334820       2.34355849       3.31579480
Si       4.35305363       3.43703321       2.02402354
Si       7.47862142       5.47865566       3.33491061
Si       6.58631384       3.90470196       4.48317500
Si       5.24536121       5.01098691       0.87575916
Si       6.28332567       4.71631657      -0.94898858
Si       5.54834938       4.19937230       6.30792274
Si       2.53606785       3.81055208       3.10022934
Si       9.29560719       5.10513679       2.25870482
Si      10.61102558       6.59159795       1.45640723
Si       1.22064946       2.32409092       3.90252693
Si       3.46252727       1.95137574       3.56498846
Si       8.36914777       6.96431313       1.79394570
Si       6.76383934       6.58445596       0.00716921
Si       5.06783570       2.33123291       5.35176495
16
Lattice="8.863366250634982 1.0708356925407465 -0.6205123012547539 2.171390991202328 6.860179146734868 -0.4694584486994377 0.8136135023347032 0.983403793122167 6.44660277568683" Properties=species:S:1:pos:R:3 unique_starting_index=30 config_type=initial n_minim_iter=4 stress="0.001871099219618789 0.0011038567000570105 -0.0003488579916050206 0.0011038567000570105 -0.0012759047217765973 -7.410314359350912e-05 -0.0003488579916050206 -7.410314359350912e-05 8.798373634375293e-05" pbc="T T T"
Si       6.14809485       6.56948705       2.04152836
Si       5.70027590       2.34493158       3.31510367
Si       4.35963420       3.43740046       2.02335210
Si       7.48873655       5.47701817       3.33327993
Si       6.59482588       3.90452794       4.48156377
Si       5.25354487       5.00989070       0.87506825
Si       6.29231914       4.71663690      -0.94989720
Si       5.55605160       4.19778173       6.30652923
Si       2.54161194       3.80811977       3.09965142
Si       9.30675881       5.10629887       2.25698061
Si      10.62513657       6.59149784       1.45422826
Si       1.22323417       2.32292080       3.90240376
Si       3.46798736       1.95075082       3.56534808
Si       8.38038339       6.96366781       1.79128395
Si       6.77415126       6.58437447       0.00508066
Si       5.07421948       2.33004416       5.35155137
16
Lattice="8.861514433184517 1.0690259282237113 -0.6191237668972109 2.16921855512576 6.86065958051281 -0.47210357369715006 0.814720441449142 0.9804953285915344 6.448267974743859" Properties=species:S:1:pos:R:3 unique_starting_index=30 config_type=initial n_minim_iter=5 stress="0.0010644749279509667 -0.0013469939945550918 0.0006958653119355962 -0.0013469939945550918 -2.017523366633672e-05 -0.00038829812427721946 0.0006958653119355962 -0.00038829812427721946 0.0002839007763906365" pbc="T T T"
Si       6.14613236       6.56604742       2.04107062
Si       5.69932107       2.34413342       3.31597001
Si       4.35930912       3.43813241       2.02404579
Si       7.48614431       5.47204843       3.33299484
Si       6.59354839       3.90178197       4.48080927
Si       5.25190504       5.00839886       0.87623137
Si       6.28998654       4.71590318      -0.94933256
Si       5.55546689       4.19427766       6.30637319
Si       2.54233836       3.80617450       3.10005813
Si       9.30311507       5.10400634       2.25698250
Si      10.62140601       6.58671765       1.45382925
Si       1.22404742       2.32346318       3.90321138
Si       3.47048565       1.94782973       3.56806638
Si       8.37496778       6.96235111       1.78897425
Si       6.77103872       6.58552366       0.00363749
Si       5.07441470       2.32465718       5.35340314
16
Lattice="8.857584447098109 1.0736450958398398 -0.6215308198018724 2.171784115427186 6.861958521812239 -0.4724761160126155 0.8130342923882979 0.9811593755791013 6.448166509963071" Properties=species:S:1:pos:R:3 unique_starting_index=30 config_type=initial n_minim_iter=6 stress="-0.00107450459915983 0.0001892388559722288 0.00014094608567149147 0.0001892388559722288 -0.00048184736457731683 0.0010443389424568063 0.00014094608567149147 0.0010443389424568063 0.00032898909817010374" pbc="T T T"
Si       6.14598383       6.56894043       2.03980922
Si       5.69641903       2.34782257       3.31435035
Si       4.35855393       3.44123775       2.02330562
Si       7.48384892       5.47552524       3.33085395
Si       6.59082094       3.90567850       4.47871474
Si       5.25158191       5.01108450       0.87544483
Si       6.28943797       4.71917075      -0.95043210
Si       5.55296488       4.19759224       6.30459167
Si       2.54223616       3.80751189       3.09980761
Si       9.30016670       5.10925110       2.25435197
Si      10.61856406       6.59152294       1.45102037
Si       1.22383879       2.32524005       3.90313920
Si       3.46968473       1.94966766       3.56786257
Si       8.37271813       6.96709533       1.78629701
Si       6.77072193       6.58992993       0.00205542
Si       5.07168092       2.32683306       5.35210416
16
Lattice="8.859346371366648 1.0779838621163207 -0.625751744444096 2.175028552051557 6.865090677057315 -0.4781179659075894 0.8109018377391276 0.9771892796747071 6.445617527361892" Properties=species:S:1:pos:R:3 unique_starting_index=30 config_type=initial n_minim_iter=7 stress="-0.0006226225574275058 0.00019567421668236257 -0.0006596179391344109 0.00019567421668236257 0.00046074609163177356 -0.0009768927062250156 -0.0006596179391344109 -0.0009768927062250156 -0.0004608001192633639" pbc="T T T"
Si       6.14890839       6.57132417       2.03226257
Si       5.69636838       2.34893964       3.30948524
Si       4.36002486       3.44327316       2.01897036
Si       7.48525191       5.47699066       3.32277745
Si       6.59132634       3.90675424       4.47197995
Si       5.25395042       5.01350958       0.86976787
Si       6.29254183       4.72344029      -0.95559387
Si       5.55273493       4.19682353       6.29734168
Si       2.54247083       3.80719333       3.09583831
Si       9.30280593       5.11307049       2.24590951
Si      10.62150117       6.59535533       1.44146517
Si       1.22377559       2.32490849       3.90028265
Si       3.47073232       1.94896067       3.56509506
Si       8.37454444       6.97130314       1.77665276
Si       6.77385925       6.59527776      -0.00511432
Si       5.07141751       2.32498606       5.34686214
16
Lattice="8.8664507591076 1.0800179996656496 -0.6242581043447164 2.1783995177592974 6.864327306334183 -0.47747245200112115 0.8128904799176463 0.9775191013682782 6.446518602281753" Properties=species:S:1:pos:R:3 unique_starting_index=30 config_type=initial n_minim_iter=8 stress="0.0004603265087606266 -0.00031052845392034306 -0.000338193897033221 -0.00031052845392034306 0.0001727070843575483 0.0005853155537895412 -0.000338193897033221 0.0005853155537895412 -0.0008772329144547994" pbc="T T T"
Si       6.15625308       6.57148258       2.03390480
Si       5.70148768       2.35038183       3.31088325
Si       4.36504595       3.44493381       2.02046289
Si       7.49269481       5.47693060       3.32432516
Si       6.59838787       3.90880270       4.47354370
Si       5.25935289       5.01306171       0.87124434
Si       6.29875312       4.72384052      -0.95380208
Si       5.55898764       4.19802389       6.29859013
Si       2.54508353       3.80670534       3.09769927
Si       9.31265722       5.11515907       2.24708878
Si      10.63097875       6.59492995       1.44345240
Si       1.22676201       2.32693446       3.90133564
Si       3.47622787       1.94981512       3.56737373
Si       8.38151289       6.97204929       1.77741432
Si       6.78020954       6.59657599      -0.00310978
Si       5.07753121       2.32528842       5.34789782
16
Lattice="8.866892898766146 1.0837818120642422 -0.6209585798301589 2.1811213581670152 6.863483436649949 -0.48075895528439144 0.8165740062745572 0.9738376658409028 6.451904368782065" Properties=species:S:1:pos:R:3 unique_starting_index=30 config_type=initial n_minim_iter=9 stress="-0.0002955374761407592 3.9446146974504475e-05 0.0004190608043265661 3.9446146974504475e-05 7.73500656914754e-05 -0.00022411401002238147 0.0004190608043265661 -0.00022411401002238147 0.0007186419359443076" pbc="T T T"
Si       6.16053453       6.57091690       2.03494763
Si       5.70405374       2.35018601       3.31523920
Si       4.36741631       3.44538346       2.02295997
Si       7.49717195       5.47571946       3.32722686
Si       6.60253339       3.90820974       4.47826639
Si       5.26205487       5.01289317       0.87192044
Si       6.30088443       4.72570961      -0.95369568
Si       5.56370384       4.19539330       6.30388251
Si       2.54786336       3.80415654       3.10017034
Si       9.31672490       5.11694637       2.25001650
Si      10.63417946       6.59509678       1.44580852
Si       1.23040880       2.32600613       3.90437831
Si       3.48022742       1.94912656       3.57201025
Si       8.38436084       6.97197635       1.77817658
Si       6.78257645       6.59779008      -0.00312446
Si       5.08201182       2.32331283       5.35331129
16
Lattice="8.870955327940605 1.0847641866474984 -0.6228160911599315 2.182871669388031 6.863437004104943 -0.4822918485948686 0.8156657189702371 0.9727175073039046 6.449467692804788" Properties=species:S:1:pos:R:3 unique_starting_index=30 config_type=initial n_minim_iter=10 stress="-7.87967850297219e-05 -7.208259509820424e-05 8.610947529777191e-05 -7.208259509820424e-05 0.0001428251431337484 -4.6775130515247805e-05 8.610947529777191e-05 -4.6775130515247805e-05 0.0001286005659369443" pbc="T T T"
Si       6.16369108       6.57085697       2.03161189
Si       5.70580164       2.35006173       3.31274787
Si       4.36865889       3.44603877       2.02152977
Si       7.50083382       5.47487993       3.32282998
Si       6.60477653       3.90772185       4.47411352
Si       5.26471619       5.01319684       0.87024624
Si       6.30509455       4.72681215      -0.95521793
Si       5.56439816       4.19410655       6.29957768
Si       2.54845724       3.80325452       3.09865384
Si       9.32103548       5.11766418       2.24570592
Si      10.63864558       6.59425367       1.44109064
Si       1.23084713       2.32666502       3.90326912
Si       3.48252656       1.94959418       3.57080614
Si       8.38696616       6.97132452       1.77355362
Si       6.78526581       6.59801483      -0.00516966
Si       5.08422691       2.32290387       5.34952942
16
Lattice="8.87844593915802 1.0854716457309324 -0.6267856770046745 2.1853773688865785 6.863788268209795 -0.48287198026176253 0.8130740597548837 0.9729064967141318 6.44317458267449" Properties=species:S:1:pos:R:3 unique_starting_index=30 config_type=initial n_minim_iter=11 stress="6.101538096994274e-05 7.542867840091237e-05 -2.8656963657068854e-05 7.542867840091237e-05 3.204883985058502e-05 2.5528321637386098e-05 -2.8656963657068854e-05 2.5528321637386098e-05 -0.0002936711483843265" pbc="T T T"
Si       6.16809609       6.57232362       2.02845755
Si       5.70880128       2.34984279       3.30505937
Si       4.36926059       3.44870273       2.01942248
Si       7.50763678       5.47346368       3.31409445
Si       6.60808960       3.90946865       4.46654825
Si       5.26880777       5.01269776       0.86696867
Si       6.31220299       4.72760134      -0.95676952
Si       5.56469437       4.19456507       6.29028644
Si       2.54933544       3.80415187       3.09584623
Si       9.32756192       5.11801454       2.23767069
Si      10.64650578       6.59288763       1.43109454
Si       1.23039159       2.32927878       3.90242239
Si       3.48704324       1.95250347       3.56861114
Si       8.38985413       6.96966294       1.76490579
Si       6.78928750       6.59815052      -0.00899937
Si       5.08760987       2.32401589       5.34251630
16
Lattice="8.883007226793579 1.0899499288871066 -0.6269196287859023 2.1898312417746686 6.8648755202964065 -0.4829965113048398 0.8135600601576443 0.9730075140837859 6.438614866488679" Properties=species:S:1:pos:R:3 unique_starting_index=30 config_type=initial n_minim_iter=12 stress="0.00011282976756726592 0.00027347610177563125 -0.00016747215369963936 0.00027347610177563125 -6.553938678301502e-05 -6.343396006179448e-05 -0.00016747215369963936 -6.343396006179448e-05 -0.000495068015787537" pbc="T T T"
Si       6.17223110       6.57556796       2.02751633
Si       5.71416743       2.35226500       3.30118240
Si       4.37068704       3.45360417       2.01840654
Si       7.51571149       5.47422880       3.31029218
Si       6.61222496       3.91246651       4.46206195
Si       5.27417357       5.01536645       0.86663678
Si       6.31830153       4.72944936      -0.95691810
Si       5.56809700       4.19838360       6.28561682
Si       2.55131123       3.80648513       3.09549886
Si       9.33508730       5.12134784       2.23319986
Si      10.65413616       6.59603272       1.42457445
Si       1.23226237       2.33180025       3.90412428
Si       3.49192232       1.95739124       3.56941994
Si       8.39447621       6.97044173       1.75927879
Si       6.79380017       6.60203902      -0.00972257
Si       5.09259836       2.32579394       5.33842129
16
Lattice="8.88962266015984 1.0917031789154963 -0.6253113725529846 2.193228823259562 6.861393842759224 -0.4817352469406257 0.8153657547809672 0.9734101718454164 6.436930433499544" Properties=species:S:1:pos:R:3 unique_starting_index=30 config_type=initial n_minim_iter=13 stress="0.00024154135141005802 2.1226644868935313e-05 -0.00031135315259618536 2.1226644868935313e-05 -0.0004797549887413907 6.257982298827489e-05 -0.00031135315259618536 6.257982298827489e-05 -0.00034296597611781584" pbc="T T T"
Si       6.17662428       6.57365673       2.03053825
Si       5.72159296       2.35285046       3.29934556
Si       4.37329740       3.45565745       2.02015443
Si       7.52491984       5.47084974       3.30972939
Si       6.61725220       3.91139735       4.46185361
Si       5.28096504       5.01510984       0.86803021
Si       6.32471752       4.72723842      -0.95437486
Si       5.57349972       4.19926877       6.28425867
Si       2.55298741       3.80735105       3.09874215
Si       9.34522983       5.11915614       2.23114166
Si      10.66316776       6.59271719       1.42051103
Si       1.23504948       2.33379001       3.90937279
Si       3.49838026       1.96144138       3.57377775
Si       8.39983698       6.96506582       1.75610607
Si       6.79831587       6.60034138      -0.00811860
Si       5.09990137       2.32616581       5.33800241
16
Lattice="8.894843276801184 1.0987835260146124 -0.6142113849876966 2.200085562284307 6.857219865380425 -0.4792068197356928 0.8248439244173409 0.9730955719502391 6.438195991902945" Properties=species:S:1:pos:R:3 unique_starting_index=30 config_type=initial n_minim_iter=14 stress="9.027966417827447e-05 -0.00014184854157061144 -0.00021464908682858552 -0.00014184854157061144 0.00018361425280998247 -4.6295169713163644e-05 -0.00021464908682858552 -4.6295169713163644e-05 0.0005076888309152247" pbc="T T T"
Si       6.18650017       6.57354822       2.04131543
Si       5.73327260       2.35555075       3.30346236
Si       4.37940367       3.45999160       2.02873785
Si       7.54036910       5.46910737       3.31603994
Si       6.62925934       3.91245960       4.46921351
Si       5.29051342       5.01663937       0.87556427
Si       6.33330915       4.72563028      -0.94773824
Si       5.58646361       4.20346869       6.29251603
Si       2.56039716       3.81077300       3.10868199
Si       9.35937561       5.11832596       2.23609580
Si      10.67551209       6.59250575       1.42228256
Si       1.24426067       2.33659321       3.92249523
Si       3.51140740       1.96861837       3.58703892
Si       8.40836536       6.96048060       1.75773887
Si       6.80411629       6.60075785       0.00201709
Si       5.11565648       2.32834111       5.34276070
16
Lattice="8.89733394696898 1.1072638616757342 -0.6017872460629307 2.2071865481069732 6.852772014028692 -0.47862657716619567 0.8354744616179497 0.9705955644907323 6.4397382238532765" Properties=species:S:1:pos:R:3 unique_starting_index=30 config_type=initial n_minim_iter=15 stress="-0.00015320004091490223 -3.818294244420887e-05 0.00018688900146330263 -3.818294244420887e-05 0.00043572451406014294 -0.00019951649933552863 0.00018688900146330263 -0.00019951649933552863 0.00047208633972570404" pbc="T T T"
Si       6.19688217       6.57279952       2.05086615
Si       5.74311279       2.35783192       3.30845825
Si       4.38751313       3.46233211       2.03595620
Si       7.55248183       5.46829933       3.32336820
Si       6.64127045       3.91239636       4.47695065
Si       5.29872451       5.01823508       0.88237375
Si       6.34064780       4.72647722      -0.94154696
Si       5.59934716       4.20415422       6.30087136
Si       2.56889351       3.81320073       3.11736146
Si       9.37110145       5.11743071       2.24196294
Si      10.68561577       6.59267623       1.42641206
Si       1.25437919       2.33795521       3.93291234
Si       3.52182885       1.97222174       3.59891769
Si       8.41816611       6.95840970       1.76040671
Si       6.81021844       6.60040338       0.01046655
Si       5.12977652       2.33022806       5.34885785
16
Lattice="8.900855858486734 1.1110292105623203 -0.5896248642650297 2.2110966666815677 6.8480671449994714 -0.47566153438357384 0.8451900711818064 0.9701671854854278 6.440638808407735" Properties=species:S:1:pos:R:3 unique_starting_index=30 config_type=initial n_minim_iter=16 stress="4.910190090508735e-06 -0.0001669402185827943 0.00035833763738863755 -0.0001669402185827943 0.00027289800406891056 3.666687852161362e-05 0.00035833763738863755 3.666687852161362e-05 9.597582138171231e-05" pbc="T T T"
Si       6.20547552       6.57043459       2.06181794
Si       5.75166707       2.35882895       3.31353447
Si       4.39508340       3.46224732       2.04511182
Si       7.56205920       5.46701622       3.33024059
Si       6.65176145       3.91034927       4.48587013
Si       5.30538114       5.01891427       0.88948228
Si       6.34667229       4.72335159      -0.93416988
Si       5.61047030       4.20591195       6.30952229
Si       2.57712639       3.81653218       3.12799358
Si       9.38001621       5.11273137       2.24735883
Si      10.69287560       6.58668239       1.43102339
Si       1.26426700       2.34258115       3.94432902
Si       3.52990762       1.97572986       3.61111511
Si       8.42723498       6.95353368       1.76423730
Si       6.81493464       6.59752272       0.02064438
Si       5.14220796       2.33174082       5.35470803
16
Lattice="8.899451761215802 1.1140809281395778 -0.5865403570288851 2.213080410619683 6.846694230824329 -0.47624195727452623 0.8478276962780477 0.9688483775114 6.440942356135723" Properties=species:S:1:pos:R:3 unique_starting_index=30 config_type=initial n_minim_iter=17 stress="6.536323505788692e-05 0.00012909635048677354 8.669080202852058e-05 0.00012909635048677354 -3.593921617796722e-05 8.990717591319607e-05 8.669080202852058e-05 8.990717591319607e-05 -0.00010736007792275432" pbc="T T T"
Si       6.20789992       6.57062433       2.06265899
Si       5.75245995       2.35899921       3.31550105
Si       4.39750305       3.46231815       2.04652897
Si       7.56285682       5.46730539       3.33163108
Si       6.65393060       3.90995480       4.48768677
Si       5.30642927       5.01966874       0.89047327
Si       6.34802815       4.72413612      -0.93296410
Si       5.61233172       4.20548741       6.31112414
Si       2.58003214       3.81880962       3.12990389
Si       9.38032772       5.11081392       2.24825616
Si      10.69328123       6.58474942       1.43072895
Si       1.26707864       2.34487411       3.94743109
Si       3.52970952       1.97589123       3.61390690
Si       8.43065035       6.95373230       1.76425315
Si       6.81701623       6.59699208       0.02125056
Si       5.14334364       2.33263146       5.35690948
16
Lattice="8.89598311331232 1.1165367511757858 -0.5864187666061734 2.2137243068201067 6.848675006025749 -0.4786314541288114 0.8479757987038155 0.9667759450733582 6.438876692662314" Properties=species:S:1:pos:R:3 unique_starting_index=30 config_type=initial n_minim_iter=18 stress="4.870591599343204e-05 0.0002536168713428826 -0.00012201262029667852 0.0002536168713428826 -0.0001947409154659246 2.0046803117508655e-05 -0.00012201262029667852 2.0046803117508655e-05 -0.00038130055513421767" pbc="T T T"
Si       6.20761820       6.57355742       2.05897672
Si       5.75006502       2.35843029       3.31484975
Si       4.39793107       3.46425213       2.04549460
Si       7.55975215       5.46773557       3.32833187
Si       6.65240511       3.91014531       4.48509345
Si       5.30527811       5.02184239       0.88873303
Si       6.34805639       4.72614825      -0.93372066
Si       5.60962683       4.20583945       6.30754714
Si       2.58146006       3.82252493       3.13097819
Si       9.37622316       5.10946277       2.24284828
Si      10.68890241       6.58198305       1.42212083
Si       1.26878081       2.35000465       3.95170564
Si       3.52673161       1.97776310       3.61480398
Si       8.43095160       6.95422460       1.75902250
Si       6.81743871       6.59915881       0.01747444
Si       5.14024451       2.33282889       5.35635203
16
Lattice="8.896018088234996 1.118888712041169 -0.5838560283026805 2.2154962715981417 6.847605844093041 -0.47938333438109615 0.8502551723183588 0.965388344336133 6.438605625902154" Properties=species:S:1:pos:R:3 unique_starting_index=30 config_type=initial n_minim_iter=19 stress="-6.000424725150484e-05 4.2110060257224945e-05 -0.0001768368934268073 4.2110060257224945e-05 -0.00012331172384831757 -3.8319893733447116e-05 -0.0001768368934268073 -3.8319893733447116e-05 -0.0001758088011600944" pbc="T T T"
Si       6.21082982       6.57470546       2.05755795
Si       5.75093972       2.35717744       3.31780832
Si       4.39944576       3.46547946       2.04782156
Si       7.56232377       5.46640344       3.32754470
Si       6.65458749       3.90951735       4.48570021
Si       5.30718204       5.02236555       0.88966605
Si       6.35097842       4.72530650      -0.93203027
Si       5.61079111       4.20657640       6.30739654
Si       2.58447236       3.82656429       3.13416041
Si       9.37729718       5.10531861       2.24120585
Si      10.68939390       6.57551979       1.41547505
Si       1.27237564       2.35636311       3.95989121
Si       3.52710111       1.98019936       3.61781436
Si       8.43466843       6.95168354       1.75755190
Si       6.82162329       6.59935627       0.01638063
Si       5.14014624       2.33252663       5.35898563
16
Lattice="8.903473643372772 1.1301081514667501 -0.5745996440161778 2.2257518634284006 6.84434538568565 -0.48174627045554463 0.8592735568658512 0.960877159629759 6.435794479538467" Properties=species:S:1:pos:R:3 unique_starting_index=30 config_type=initial n_minim_iter=20 stress="0.00018091091093177302 -0.000213377785886587 -2.965345670529439e-05 -0.000213377785886587 0.000611261620518837 -0.0002653989036925271 -2.965345670529439e-05 -0.0002653989036925271 0.0005063642728322129" pbc="T T T"
Si       6.22838329       6.57827967       2.05587692
Si       5.76011577       2.35705102       3.32357165
Si       4.40876685       3.47104624       2.05371945
Si       7.57973221       5.46428446       3.32572911
Si       6.66854857       3.91072316       4.48581676
Si       5.31995049       5.02460754       0.89363180
Si       6.36614874       4.72623603      -0.92672904
Si       5.62235032       4.20909466       6.30617760
Si       2.59504611       3.83357619       3.14230999
Si       9.39345295       5.10175451       2.23713858
Si      10.70226681       6.56730320       1.39873325
Si       1.28623225       2.36802750       3.98071531
Si       3.53692131       1.98714523       3.62426439
Si       8.45157775       6.94818547       1.75518418
Si       6.84000887       6.60256837       0.01529606
Si       5.14849019       2.33276233       5.36415250
16
Lattice="8.919489364190014 1.1407196145436047 -0.5650911999112315 2.2386317133691613 6.835226044544002 -0.47965146743948656 0.8689428394612227 0.960000753775169 6.435656178167204" Properties=species:S:1:pos:R:3 unique_starting_index=30 config_type=initial n_minim_iter=21 stress="-0.0004960684075635699 -8.615004810478961e-05 2.1254592609400357e-05 -8.615004810478961e-05 -0.0009032964504728751 0.00042941907924687057 2.1254592609400357e-05 0.00042941907924687057 -0.0005190718861027217" pbc="T T T"
Si       6.25328775       6.57612716       2.05905781
Si       5.77377617       2.35981925       3.33185570
Si       4.42100897       3.47240136       2.06034204
Si       7.60605495       5.46354506       3.33057147
Si       6.68822161       3.91307669       4.49016183
Si       5.33884230       5.02286973       0.90075168
Si       6.38531024       4.72485942      -0.91983598
Si       5.64175368       4.21108699       6.31074949
Si       2.60431296       3.83334579       3.14506492
Si       9.42275096       5.10260063       2.24584860
Si      10.72698954       6.56570069       1.39813585
Si       1.30007438       2.37024572       3.99277766
Si       3.55044620       1.98672534       3.62185139
Si       8.47661771       6.94922107       1.76906212
Si       6.86689618       6.60012489       0.01988284
Si       5.16016774       2.33582152       5.37103067
