8
Lattice="6.679220015558246 -0.045448642550441995 -0.06505652025252562 -3.2993851776437357 5.807590123699188 0.06505652025252405 -3.29938554198575 -1.9370230370389623 5.475424617825238" Properties=species:S:1:pos:R:3 unique_starting_index=16 config_type=initial n_minim_iter=6 energy=-1301.500963305889 free_energy=-1301.500963305889 pbc="T T T"
Si      -1.79314079       1.05178397       3.36549447
Si       3.36179826       1.90041575       0.86040097
Si       1.87359040       1.02695480       3.32995327
Si      -3.28134849       3.67108768       3.39500979
Si       1.87359048       2.77333713       2.10993478
Si      -3.28134857       1.92470535       4.61502828
Si       3.36179818       0.15403342       2.08041946
Si      -1.79314071       2.79816630       2.14547598
