22
Lattice="5.575372425605905 -0.7375407571091913 -1.351296281229464 -2.6283442291558496 10.428049615545776 -2.039907568091829 -4.546107867701931 -4.946115676462685 10.769126705825277" Properties=species:S:1:pos:R:3 unique_starting_index=18 config_type=initial n_minim_iter=1 energy=-3583.7952133107174 free_energy=-3583.7952133107174 pbc="T T T"
Si      -0.24927648       9.08178855      -0.96121200
Si      -1.53973268      -1.23768067       5.70545899
Si      -3.79935168      -3.47891866       9.56705481
Si       0.24012834      -2.76224063       8.70431520
Si      -5.63113272      -0.25664641       8.90665109
Si       4.22619556       2.02703712       0.21478920
Si       2.17444192       0.69221629       0.40290576
Si      -1.46229825       0.47647873       6.95995204
Si      -1.68776247      -3.30269659       9.40287629
Si      -2.67275736       1.09118256       5.32410289
Si       1.18082180      -0.28799559       2.53900211
Si      -2.98675807       3.57320305       5.07042939
Si      -3.44965868      -2.68739012       6.29102592
Si      -0.70631133       6.65333669      -1.09219070
Si       1.05244023       1.38526119       3.88322185
Si       1.04224698       7.63183301      -1.81666601
Si      -0.89813953      -1.25457867       3.28418077
Si       2.74884544      -4.83666184       6.40087019
Si       0.21428884       3.16033274       3.04246558
Si      -2.82620151       2.50352759       6.89820158
Si      -1.41763483       4.46624294       3.42910478
Si      -1.81790272      -2.17825421       7.59147673
22
Lattice="5.575479509280321 -0.737598880109771 -1.351351294248601 -2.62842276032478 10.42845454412592 -2.039878818680873 -4.546262599169309 -4.946275963536471 10.769161713482593" Properties=species:S:1:pos:R:3 unique_starting_index=18 config_type=initial n_minim_iter=2 stress="0.000282566516589171 9.209227658878471e-05 -1.9879807522261875e-05 9.209227658878471e-05 0.00030852970821094083 8.433661258832413e-05 -1.9879807522261875e-05 8.433661258832413e-05 0.0002984532305876251" pbc="T T T"
Si      -0.24931662       9.08213227      -0.96117659
Si      -1.53981531      -1.23776955       5.70541784
Si      -3.79952231      -3.47898400       9.56710148
Si       0.24008589      -2.76239866       8.70432026
Si      -5.63137275      -0.25652417       8.90669877
Si       4.22626794       2.02709978       0.21476643
Si       2.17447170       0.69223849       0.40288522
Si      -1.46233567       0.47652173       6.96007655
Si      -1.68783376      -3.30284983       9.40288726
Si      -2.67289583       1.09127274       5.32409410
Si       1.18080751      -0.28797161       2.53898916
Si      -2.98688576       3.57336363       5.07041459
Si      -3.44974103      -2.68752733       6.29113297
Si      -0.70633827       6.65353652      -1.09221875
Si       1.05242280       1.38524523       3.88319143
Si       1.04219028       7.63209854      -1.81667465
Si      -0.89817960      -1.25460919       3.28420503
Si       2.74885680      -4.83679997       6.40077344
Si       0.21433152       3.16041657       3.04242604
Si      -2.82633973       2.50359707       6.89821867
Si      -1.41780459       4.46642807       3.42911134
Si      -1.81797572      -2.17827204       7.59145969
22
Lattice="5.575401007688404 -0.7376225621796564 -1.351324946426184 -2.628456467872715 10.428355547384092 -2.0398940205914924 -4.546166512674166 -4.946241605546506 10.768978647469865" Properties=species:S:1:pos:R:3 unique_starting_index=18 config_type=initial n_minim_iter=3 stress="-6.022231930436436e-05 3.635322690104887e-05 -3.537891996749859e-05 3.635322690104887e-05 4.2017175780133975e-06 6.855790242545205e-05 -3.537891996749859e-05 6.855790242545205e-05 8.934968184096193e-06" pbc="T T T"
Si      -0.24937545       9.08202625      -0.96119995
Si      -1.53978933      -1.23778392       5.70530155
Si      -3.79945325      -3.47895481       9.56693757
Si       0.24010051      -2.76242648       8.70416524
Si      -5.63130535      -0.25650896       8.90653040
Si       4.22619352       2.02704548       0.21475285
Si       2.17443419       0.69221412       0.40287170
Si      -1.46231233       0.47649228       6.95996084
Si      -1.68778474      -3.30285914       9.40271941
Si      -2.67287348       1.09125673       5.32397903
Si       1.18078701      -0.28797966       2.53893939
Si      -2.98687591       3.57331109       5.07028807
Si      -3.44966956      -2.68751697       6.29104446
Si      -0.70637175       6.65345137      -1.09224298
Si       1.05239828       1.38518662       3.88310063
Si       1.04210580       7.63200399      -1.81668084
Si      -0.89815952      -1.25460231       3.28415222
Si       2.74884495      -4.83678280       6.40065582
Si       0.21432284       3.16035234       3.04233956
Si      -2.82632332       2.50353835       6.89806615
Si      -1.41783596       4.46636484       3.42901852
Si      -1.81793260      -2.17826056       7.59131653
22
Lattice="5.5754712892469085 -0.7376641825453754 -1.3512493280785 -2.6286413924052527 10.428409046350787 -2.0401141669833796 -4.546069162125609 -4.94639559403367 10.768945822088842" Properties=species:S:1:pos:R:3 unique_starting_index=18 config_type=initial n_minim_iter=4 stress="8.356945150748467e-05 -9.87412930609998e-05 2.4947223267909908e-05 -9.87412930609998e-05 3.2564225093377675e-05 -0.00010472771181796745 2.4947223267909908e-05 -0.00010472771181796745 4.9041829844883104e-05" pbc="T T T"
Si      -0.24949847       9.08202853      -0.96137001
Si      -1.53974521      -1.23787819       5.70524956
Si      -3.79937879      -3.47907986       9.56689552
Si       0.24022335      -2.76261092       8.70414507
Si      -5.63129491      -0.25661342       8.90642238
Si       4.22623514       2.02698766       0.21475792
Si       2.17445732       0.69217729       0.40287678
Si      -1.46228432       0.47637977       6.95988929
Si      -1.68768129      -3.30303887       9.40267972
Si      -2.67286593       1.09117246       5.32387760
Si       1.18082413      -0.28803151       2.53893152
Si      -2.98692699       3.57322955       5.07013540
Si      -3.44962587      -2.68760706       6.29103020
Si      -0.70647169       6.65345096      -1.09238800
Si       1.05242531       1.38508302       3.88303896
Si       1.04198472       7.63201088      -1.81681221
Si      -0.89812643      -1.25465117       3.28414868
Si       2.74899982      -4.83693290       6.40071150
Si       0.21432972       3.16027920       3.04224037
Si      -2.82633749       2.50342278       6.89792857
Si      -1.41789308       4.46629527       3.42888035
Si      -1.81785750      -2.17837686       7.59128078
22
Lattice="5.575483178921007 -0.7375424225320709 -1.3511407226023502 -2.62846473470976 10.42826825393491 -2.0400609969869063 -4.546089841678671 -4.946442157156941 10.768506059692545" Properties=species:S:1:pos:R:3 unique_starting_index=18 config_type=initial n_minim_iter=5 stress="0.00020219000931238833 5.507769326641277e-05 0.00010615459801187484 5.507769326641277e-05 -8.698009723038836e-05 5.3255782506233114e-05 0.00010615459801187484 5.3255782506233114e-05 -9.99712814527311e-05" pbc="T T T"
Si      -0.24930538       9.08194700      -0.96128669
Si      -1.53972446      -1.23788355       5.70497957
Si      -3.79937942      -3.47906004       9.56652215
Si       0.24029249      -2.76259025       8.70381670
Si      -5.63122557      -0.25670826       8.90610208
Si       4.22635158       2.02707823       0.21484341
Si       2.17449263       0.69221877       0.40290309
Si      -1.46224760       0.47639979       6.95965481
Si      -1.68766051      -3.30308970       9.40227956
Si      -2.67276238       1.09106622       5.32361357
Si       1.18083853      -0.28794820       2.53884375
Si      -2.98685586       3.57311012       5.06990589
Si      -3.44964646      -2.68768339       6.29081721
Si      -0.70633744       6.65331920      -1.09238803
Si       1.05249727       1.38507044       3.88288407
Si       1.04205517       7.63196534      -1.81672781
Si      -0.89812202      -1.25463780       3.28404938
Si       2.74899671      -4.83681411       6.40047081
Si       0.21448392       3.16026761       3.04210927
Si      -2.82625474       2.50336505       6.89766446
Si      -1.41779670       4.46618995       3.42872974
Si      -1.81781967      -2.17835057       7.59100479
22
Lattice="5.575290475527384 -0.7375267417235815 -1.3512379233328866 -2.6282991939905296 10.4285117830669 -2.0401534660538627 -4.546122861112288 -4.946697134182588 10.768692721917693" Properties=species:S:1:pos:R:3 unique_starting_index=18 config_type=initial n_minim_iter=6 stress="-5.8890506365576457e-05 -2.6178051616745213e-05 4.288013886602905e-05 -2.6178051616745213e-05 -2.1388605159838262e-05 1.5411637210973418e-05 4.288013886602905e-05 1.5411637210973418e-05 0.0001388463970115468" pbc="T T T"
Si      -0.24925045       9.08216135      -0.96135686
Si      -1.53977434      -1.23796878       5.70500544
Si      -3.79941220      -3.47921196       9.56668353
Si       0.24013630      -2.76276989       8.70386815
Si      -5.63115926      -0.25683296       8.90629183
Si       4.22621655       2.02714341       0.21477166
Si       2.17440153       0.69223322       0.40287448
Si      -1.46234785       0.47635122       6.95972483
Si      -1.68776258      -3.30332323       9.40235683
Si      -2.67272086       1.09097620       5.32362771
Si       1.18073110      -0.28793893       2.53882505
Si      -2.98685714       3.57308687       5.06991533
Si      -3.44964541      -2.68784627       6.29097310
Si      -0.70626446       6.65342362      -1.09249247
Si       1.05239148       1.38503053       3.88284008
Si       1.04201112       7.63214346      -1.81685429
Si      -0.89814887      -1.25469199       3.28411907
Si       2.74876391      -4.83699568       6.40047867
Si       0.21447034       3.16030766       3.04205434
Si      -2.82628488       2.50333844       6.89772501
Si      -1.41780030       4.46620393       3.42870203
Si      -1.81787956      -2.17846250       7.59111157
22
Lattice="5.575322452425704 -0.7374565523692969 -1.3513373501827892 -2.6281017208154487 10.428846156082574 -2.0401507579788163 -4.546517388207596 -4.947088767953786 10.768435550943476" Properties=species:S:1:pos:R:3 unique_starting_index=18 config_type=initial n_minim_iter=7 stress="4.6916010652655396e-05 1.189250464369595e-05 -0.00012496227269624628 1.189250464369595e-05 2.7956721898034404e-05 -3.9937769043029156e-05 -0.00012496227269624628 -3.9937769043029156e-05 -5.775064037905464e-05" pbc="T T T"
Si      -0.24911257       9.08248884      -0.96139971
Si      -1.53996840      -1.23809375       5.70480388
Si      -3.79974620      -3.47947674       9.56644268
Si       0.23984495      -2.76299853       8.70350757
Si      -5.63142957      -0.25704799       8.90611930
Si       4.22625316       2.02727014       0.21461700
Si       2.17440073       0.69228078       0.40278702
Si      -1.46257658       0.47624243       6.95947362
Si      -1.68806791      -3.30364256       9.40203584
Si      -2.67284281       1.09087056       5.32343028
Si       1.18063320      -0.28793390       2.53866562
Si      -2.98699323       3.57305656       5.06970938
Si      -3.44989375      -2.68807951       6.29086124
Si      -0.70614138       6.65360063      -1.09255055
Si       1.05228662       1.38500146       3.88259565
Si       1.04212924       7.63240962      -1.81694213
Si      -0.89826437      -1.25478014       3.28404542
Si       2.74850772      -4.83724310       6.40017313
Si       0.21445746       3.16037609       3.04184163
Si      -2.82648282       2.50327217       6.89745726
Si      -1.41784617       4.46623829       3.42851367
Si      -1.81812999      -2.17864075       7.59087452
22
Lattice="5.575126769413352 -0.7373613795571755 -1.3511340120598168 -2.627827034434241 10.42951819991515 -2.0401923321245143 -4.5462782121923935 -4.947636081287524 10.767790634565024" Properties=species:S:1:pos:R:3 unique_starting_index=18 config_type=initial n_minim_iter=8 stress="-5.373113321652198e-05 -4.9354940947099536e-05 6.594370194104255e-05 -4.9354940947099536e-05 0.00013796150037860127 3.5914076514727695e-05 6.594370194104255e-05 3.5914076514727695e-05 -0.00012959567712645347" pbc="T T T"
Si      -0.24894499       9.08319498      -0.96127494
Si      -1.53984155      -1.23817995       5.70445333
Si      -3.79949613      -3.47975205       9.56589069
Si       0.23996264      -2.76326023       8.70303042
Si      -5.63109324      -0.25726015       8.90562999
Si       4.22624755       2.02753882       0.21473366
Si       2.17438666       0.69239697       0.40280721
Si      -1.46240179       0.47614868       6.95913171
Si      -1.68780490      -3.30411700       9.40149644
Si      -2.67257570       1.09080509       5.32298634
Si       1.18059947      -0.28784326       2.53849828
Si      -2.98681109       3.57310062       5.06928028
Si      -3.44980754      -2.68837946       6.29048226
Si      -0.70597596       6.65393434      -1.09261636
Si       1.05238802       1.38503985       3.88234581
Si       1.04214633       7.63290366      -1.81693169
Si      -0.89819108      -1.25486750       3.28392777
Si       2.74847897      -4.83766681       6.39990471
Si       0.21470782       3.16061203       3.04159679
Si      -2.82624537       2.50329547       6.89695579
Si      -1.41761486       4.46636592       3.42822694
Si      -1.81792887      -2.17878644       7.59044922
22
Lattice="5.575144870242261 -0.7372069422218966 -1.351189056535511 -2.6275815931988293 10.429322486058778 -2.0403125258883805 -4.546507182492133 -4.947791946382556 10.767995842221953" Properties=species:S:1:pos:R:3 unique_starting_index=18 config_type=initial n_minim_iter=9 stress="-5.059438074137074e-05 0.00011489423673242684 4.731716884430603e-05 0.00011489423673242684 -2.428514731240033e-05 -9.826132075798991e-05 4.731716884430603e-05 -9.826132075798991e-05 -5.364432937739396e-06" pbc="T T T"
Si      -0.24873736       9.08308739      -0.96133118
Si      -1.53993137      -1.23822208       5.70453615
Si      -3.79966583      -3.47984372       9.56606865
Si       0.23982417      -2.76330576       8.70313018
Si      -5.63120822      -0.25748234       8.90581633
Si       4.22632973       2.02761283       0.21469349
Si       2.17441484       0.69243554       0.40278686
Si      -1.46246274       0.47599914       6.95924187
Si      -1.68794131      -3.30426398       9.40163056
Si      -2.67259102       1.09066267       5.32301995
Si       1.18055144      -0.28780303       2.53848973
Si      -2.98682898       3.57288548       5.06928491
Si      -3.44997053      -2.68848058       6.29061538
Si      -0.70581535       6.65378655      -1.09271379
Si       1.05239095       1.38498998       3.88233916
Si       1.04229818       7.63281432      -1.81705761
Si      -0.89825056      -1.25488772       3.28400742
Si       2.74832782      -4.83764513       6.39998655
Si       0.21480491       3.16054397       3.04156782
Si      -2.82627880       2.50308986       6.89699886
Si      -1.41754098       4.46618313       3.42821341
Si      -1.81804881      -2.17885108       7.59057487
22
Lattice="5.575252126647733 -0.7372698923572598 -1.3513061315147097 -2.6276737016635936 10.429208041719656 -2.040112421642631 -4.54672052621263 -4.94753610995199 10.768039411742711" Properties=species:S:1:pos:R:3 unique_starting_index=18 config_type=initial n_minim_iter=10 stress="3.158857772440615e-05 -3.410346724631473e-05 -1.7696736871661753e-05 -3.410346724631473e-05 -8.729334199416802e-05 2.6927536280237176e-05 -1.7696736871661753e-05 2.6927536280237176e-05 -1.461585999296858e-06" pbc="T T T"
Si      -0.24880633       9.08300188      -0.96114069
Si      -1.54004890      -1.23807347       5.70456913
Si      -3.79984229      -3.47957989       9.56612297
Si       0.23969291      -2.76313207       8.70309969
Si      -5.63144764      -0.25729633       8.90598506
Si       4.22638168       2.02756668       0.21466280
Si       2.17444000       0.69242045       0.40275877
Si      -1.46261800       0.47609233       6.95933328
Si      -1.68807990      -3.30411435       9.40163096
Si      -2.67271106       1.09075490       5.32307592
Si       1.18050012      -0.28773937       2.53844544
Si      -2.98703303       3.57292374       5.06938052
Si      -3.45013290      -2.68831586       6.29066979
Si      -0.70586273       6.65367583      -1.09261070
Si       1.05231794       1.38503149       3.88233943
Si       1.04223577       7.63269012      -1.81696625
Si      -0.89830945      -1.25479868       3.28403418
Si       2.74829561      -4.83755495       6.39986861
Si       0.21477945       3.16056232       3.04160566
Si      -2.82647834       2.50317191       6.89709258
Si      -1.41765306       4.46617172       3.42831755
Si      -1.81819285      -2.17867510       7.59060811
22
Lattice="5.57513428375414 -0.7372177651371908 -1.3514761038375773 -2.6272591829894885 10.430009296452226 -2.039727536982795 -4.547117073852728 -4.947860053404108 10.767729024562023" Properties=species:S:1:pos:R:3 unique_starting_index=18 config_type=initial n_minim_iter=11 stress="-5.5697887676407625e-05 1.7417863163594534e-05 -1.2895807208447072e-05 1.7417863163594534e-05 -3.117973643561672e-05 8.633824434666664e-06 -1.2895807208447072e-05 8.633824434666664e-06 -3.0975823556975634e-05" pbc="T T T"
Si      -0.24846187       9.08378350      -0.96071726
Si      -1.54026975      -1.23795958       5.70445398
Si      -3.80001358      -3.47957235       9.56585452
Si       0.23925539      -2.76312010       8.70270727
Si      -5.63160692      -0.25734780       8.90603818
Si       4.22637001       2.02789124       0.21457987
Si       2.17444163       0.69257798       0.40266227
Si      -1.46287207       0.47617996       6.95932938
Si      -1.68834916      -3.30444418       9.40122590
Si      -2.67272863       1.09094846       5.32291418
Si       1.18023811      -0.28754690       2.53815739
Si      -2.98717550       3.57320293       5.06919055
Si      -3.45044183      -2.68844837       6.29059261
Si      -0.70562275       6.65411922      -1.09240130
Si       1.05212688       1.38524951       3.88215407
Si       1.04222514       7.63340711      -1.81670822
Si      -0.89843590      -1.25478141       3.28398371
Si       2.74788108      -4.83789305       6.39938604
Si       0.21502634       3.16094282       3.04148445
Si      -2.82663716       2.50328235       6.89690876
Si      -1.41755654       4.46646225       3.42835218
Si      -1.81854257      -2.17872882       7.59040023
22
Lattice="5.57532670183349 -0.7373365855346622 -1.3516136729989006 -2.627344989849166 10.430695782733816 -2.0393727215576916 -4.54755993892719 -4.947981866652738 10.76727705717754" Properties=species:S:1:pos:R:3 unique_starting_index=18 config_type=initial n_minim_iter=12 stress="-1.053354544104536e-05 -8.539090343315337e-06 -1.3909714567796735e-05 -8.539090343315337e-06 3.037798124035255e-06 -1.467095862501611e-05 -1.3909714567796735e-05 -1.467095862501611e-05 -3.459277418056176e-05" pbc="T T T"
Si      -0.24844255       9.08443553      -0.96031870
Si      -1.54052886      -1.23776660       5.70435415
Si      -3.80024206      -3.47940830       9.56538387
Si       0.23904295      -2.76320276       8.70228139
Si      -5.63213742      -0.25723623       8.90585493
Si       4.22649532       2.02801481       0.21445901
Si       2.17455176       0.69258226       0.40261827
Si      -1.46325166       0.47625148       6.95921811
Si      -1.68858059      -3.30471665       9.40060245
Si      -2.67300137       1.09119480       5.32256568
Si       1.18000722      -0.28739223       2.53780098
Si      -2.98759020       3.57342586       5.06893864
Si      -3.45082137      -2.68843965       6.29047501
Si      -0.70572769       6.65446229      -1.09214125
Si       1.05204876       1.38530312       3.88192370
Si       1.04208703       7.63400978      -1.81648261
Si      -0.89858006      -1.25472659       3.28383713
Si       2.74783275      -4.83812634       6.39888867
Si       0.21514564       3.16134058       3.04130067
Si      -2.82704565       2.50348164       6.89663737
Si      -1.41759164       4.46658719       3.42829262
Si      -1.81890245      -2.17878433       7.59008554
22
Lattice="5.575450386569558 -0.7374234757793313 -1.3517253014246065 -2.6274174413954285 10.43076105715501 -2.038964681305338 -4.547778312234985 -4.947634974546455 10.767174412053379" Properties=species:S:1:pos:R:3 unique_starting_index=18 config_type=initial n_minim_iter=13 stress="-2.341650612230743e-06 -1.3597966068993691e-05 -2.641375755489952e-06 -1.3597966068993691e-05 7.604486779912603e-06 -2.4028457736214113e-05 -2.641375755489952e-06 -2.4028457736214113e-05 1.400185333419272e-06" pbc="T T T"
Si      -0.24839048       9.08461114      -0.95975459
Si      -1.54068422      -1.23738852       5.70441491
Si      -3.80027806      -3.47882093       9.56518740
Si       0.23908699      -2.76303549       8.70229730
Si      -5.63260521      -0.25694869       8.90595742
Si       4.22658343       2.02803057       0.21442783
Si       2.17472471       0.69255732       0.40261213
Si      -1.46359215       0.47651579       6.95944661
Si      -1.68854900      -3.30475073       9.40048701
Si      -2.67304738       1.09146464       5.32251170
Si       1.17974828      -0.28713185       2.53752781
Si      -2.98781520       3.57356832       5.06892364
Si      -3.45112768      -2.68813809       6.29054936
Si      -0.70583828       6.65440227      -1.09177241
Si       1.05190201       1.38531946       3.88190852
Si       1.04190371       7.63420975      -1.81618973
Si      -0.89867187      -1.25452017       3.28378839
Si       2.74782941      -4.83798728       6.39863737
Si       0.21540797       3.16164835       3.04134710
Si      -2.82732028       2.50364560       6.89669744
Si      -1.41739841       4.46647604       3.42848819
Si      -1.81906190      -2.17857359       7.59010770
22
Lattice="5.575554365807164 -0.7374792293790567 -1.3518131486167182 -2.6274351736165897 10.430636765010911 -2.0384701182874974 -4.54792386163627 -4.947103044425078 10.76712939036227" Properties=species:S:1:pos:R:3 unique_starting_index=18 config_type=initial n_minim_iter=14 stress="1.6490142016051137e-05 -6.759258451248431e-06 -3.987476985233998e-07 -6.759258451248431e-06 2.6039328075134373e-05 -3.935052187593368e-06 -3.987476985233998e-07 -3.935052187593368e-06 4.023081354428015e-05" pbc="T T T"
Si      -0.24832106       9.08466961      -0.95909425
Si      -1.54079886      -1.23697916       5.70448656
Si      -3.80025805      -3.47812415       9.56503997
Si       0.23919047      -2.76268986       8.70241572
Si      -5.63288987      -0.25651976       8.90614197
Si       4.22670114       2.02804726       0.21448379
Si       2.17487326       0.69250532       0.40271624
Si      -1.46391702       0.47695273       6.95971559
Si      -1.68840928      -3.30456390       9.40041508
Si      -2.67308991       1.09183575       5.32265268
Si       1.17952933      -0.28684367       2.53732807
Si      -2.98796308       3.57367088       5.06908080
Si      -3.45139863      -2.68771618       6.29060555
Si      -0.70587563       6.65425030      -1.09135139
Si       1.05190521       1.38538766       3.88197165
Si       1.04179501       7.63422657      -1.81585769
Si      -0.89874371      -1.25426726       3.28375334
Si       2.74785117      -4.83769169       6.39848040
Si       0.21576988       3.16185978       3.04149872
Si      -2.82750932       2.50386177       6.89684561
Si      -1.41721824       4.46641999       3.42879954
Si      -1.81923313      -2.17829384       7.59019369
22
Lattice="5.575597907339745 -0.7375484365336026 -1.3517831157852882 -2.6275452723989 10.43041486183462 -2.0381391598546945 -4.547841700181042 -4.946638327095338 10.7668685617643" Properties=species:S:1:pos:R:3 unique_starting_index=18 config_type=initial n_minim_iter=15 stress="1.889446417062342e-05 -4.2055179371391836e-06 4.623669539752871e-06 -4.2055179371391836e-06 2.8361176256592016e-05 -9.751041516695176e-06 4.623669539752871e-06 -9.751041516695176e-06 4.1331587121070695e-05" pbc="T T T"
Si      -0.24833068       9.08458374      -0.95855541
Si      -1.54083827      -1.23661081       5.70452246
Si      -3.79995173      -3.47752054       9.56463472
Si       0.23949306      -2.76238196       8.70237280
Si      -5.63303535      -0.25609533       8.90605520
Si       4.22679115       2.02799032       0.21456492
Si       2.17499128       0.69241266       0.40287579
Si      -1.46413684       0.47721220       6.95977814
Si      -1.68813110      -3.30451353       9.40019198
Si      -2.67302787       1.09205980       5.32258447
Si       1.17931676      -0.28658697       2.53709227
Si      -2.98800034       3.57369359       5.06900482
Si      -3.45156501      -2.68729385       6.29049752
Si      -0.70593545       6.65403108      -1.09103516
Si       1.05189735       1.38531906       3.88192248
Si       1.04156501       7.63414234      -1.81563161
Si      -0.89877439      -1.25404176       3.28362408
Si       2.74796716      -4.83748060       6.39833271
Si       0.21623501       3.16190746       3.04152315
Si      -2.82763834       2.50401369       6.89692749
Si      -1.41704932       4.46629285       3.42895842
Si      -1.81932006      -2.17808726       7.59003267
22
Lattice="5.575788439869433 -0.7378421500374074 -1.351582068497005 -2.628166432974129 10.430375924515037 -2.0377400776729266 -4.547403954228443 -4.945945589975193 10.766260265558204" Properties=species:S:1:pos:R:3 unique_starting_index=18 config_type=initial n_minim_iter=16 stress="2.613265263707519e-05 1.148317712253153e-06 6.397449905420215e-06 1.148317712253153e-06 -1.1282377943684234e-05 6.286880991070907e-06 6.397449905420215e-06 6.286880991070907e-06 1.704949337772078e-05" pbc="T T T"
Si      -0.24866251       9.08443702      -0.95774872
Si      -1.54081299      -1.23601841       5.70432265
Si      -3.79910560      -3.47669710       9.56377275
Si       0.24027431      -2.76163430       8.70208135
Si      -5.63336352      -0.25540984       8.90578277
Si       4.22702781       2.02778017       0.21476444
Si       2.17511787       0.69228280       0.40330454
Si      -1.46429455       0.47759804       6.95987848
Si      -1.68714066      -3.30447897       9.39971731
Si      -2.67292611       1.09254905       5.32242924
Si       1.17904459      -0.28625086       2.53674288
Si      -2.98802094       3.57376793       5.06888399
Si      -3.45172124      -2.68671819       6.29027159
Si      -0.70620237       6.65391626      -1.09059699
Si       1.05192555       1.38507771       3.88184871
Si       1.04096193       7.63411450      -1.81536488
Si      -0.89881610      -1.25373172       3.28324549
Si       2.74853791      -4.83729560       6.39797070
Si       0.21681816       3.16211588       3.04146141
Si      -2.82791977       2.50438855       6.89685140
Si      -1.41686720       4.46607042       3.42900201
Si      -1.81923403      -2.17782763       7.58976962
22
Lattice="5.575811611464645 -0.737980595960108 -1.3515010211458447 -2.62838000750694 10.430740198228998 -2.037584280076205 -4.547197715643677 -4.9458647863103495 10.765992391477814" Properties=species:S:1:pos:R:3 unique_starting_index=18 config_type=initial n_minim_iter=17 stress="1.3465489272295478e-05 1.0360337218306265e-05 2.6174267467689627e-06 1.0360337218306265e-05 6.349858898720478e-06 8.094664063366312e-06 2.6174267467689627e-06 8.094664063366312e-06 4.923883444859845e-06" pbc="T T T"
Si      -0.24878784       9.08466424      -0.95739924
Si      -1.54082629      -1.23583228       5.70423987
Si      -3.79868525      -3.47648643       9.56340070
Si       0.24067978      -2.76140204       8.70192277
Si      -5.63345616      -0.25508731       8.90564760
Si       4.22713810       2.02777370       0.21486857
Si       2.17516050       0.69232528       0.40342863
Si      -1.46438795       0.47778842       6.95991467
Si      -1.68677302      -3.30468724       9.39956444
Si      -2.67287059       1.09280650       5.32240078
Si       1.17889100      -0.28612755       2.53657420
Si      -2.98804951       3.57385963       5.06878774
Si      -3.45179314      -2.68660796       6.29019686
Si      -0.70631494       6.65409851      -1.09040402
Si       1.05199047       1.38507681       3.88180155
Si       1.04075086       7.63439885      -1.81528612
Si      -0.89886353      -1.25365554       3.28304217
Si       2.74873949      -4.83741437       6.39773910
Si       0.21704291       3.16233164       3.04141916
Si      -2.82803630       2.50457945       6.89683596
Si      -1.41672256       4.46607837       3.42898286
Si      -1.81925612      -2.17783777       7.58963331
22
Lattice="5.575778883622654 -0.7380874847915945 -1.351434795110367 -2.628504390765116 10.431056066214751 -2.0374086942355616 -4.547011294723245 -4.945790817562664 10.765692047056842" Properties=species:S:1:pos:R:3 unique_starting_index=18 config_type=initial n_minim_iter=18 stress="4.766350649037827e-06 2.2022562140962265e-05 4.47941107251515e-06 2.2022562140962265e-05 3.0958594016623343e-06 1.1837670319176482e-05 4.47941107251515e-06 1.1837670319176482e-05 -1.6852550966501397e-05" pbc="T T T"
Si      -0.24887484       9.08483627      -0.95710445
Si      -1.54085408      -1.23567873       5.70420794
Si      -3.79838921      -3.47629116       9.56307935
Si       0.24095025      -2.76124876       8.70175995
Si      -5.63348608      -0.25474735       8.90545580
Si       4.22723794       2.02778686       0.21499025
Si       2.17515705       0.69239129       0.40352148
Si      -1.46446527       0.47795929       6.95986210
Si      -1.68637036      -3.30478296       9.39926386
Si      -2.67278028       1.09299884       5.32237691
Si       1.17876978      -0.28604832       2.53644094
Si      -2.98802140       3.57398929       5.06866214
Si      -3.45184538      -2.68653781       6.29008663
Si      -0.70641945       6.65424945      -1.09021265
Si       1.05197973       1.38516780       3.88173988
Si       1.04063758       7.63466142      -1.81517159