22
Lattice="8.8842919852484 0.6676083460087685 -0.4596957469430431 -3.134878829116797 8.339597095157824 0.4596957469429978 -3.262191109243726 -4.2562664434323185 7.129514029150247" Properties=species:S:1:pos:R:3 unique_starting_index=6 config_type=initial n_minim_iter=1 energy=-3586.062664019321 free_energy=-3586.062664019321 pbc="T T T"
Si      -2.47879698       5.13361908       6.51791352
Si       1.77959419       1.65125520       4.39183845
Si       6.55662086       3.68780407      -0.38330696
Si      -0.76028631      -1.04911343       3.58703164
Si       6.37063790      -1.27926607       2.27797983
Si      -0.69699102       3.99626980       1.07129625
Si       1.85571386       3.61962487       3.54248239
Si      -2.67760432       3.24356251       7.51282099
Si       0.03293311       5.91483306       1.72526399
Si       1.60309273       5.71799954       3.15468254
Si       1.37846783       4.24801986       1.55539722
Si       2.11269884       6.20065288       1.12368967
Si       1.24940824      -0.39480347       3.97483148
Si       2.08901002      -1.73615112       5.40425003
Si       1.47264770       0.27064134       6.00582435
Si       0.01062972      -1.21743606       5.57411680
Si      -1.26942434       2.00335334       1.63506922
Si       3.32436282       3.02351774       4.98160221
Si      -1.91931269       0.03205785       2.14791181
Si      -4.04547368       3.77534074       5.95414056
Si       2.87470658       4.50360272      -0.00000000
Si       2.81105044      -1.79432904       3.33490914
