8
Lattice="3.2599865629027516 -8.433582398230571e-32 -5.619282595563409e-47 -1.5358999852164225e-44 8.335530248214676 4.447212515713346e-15 -1.0576736855544062e-58 -6.4382800371853295e-15 14.708744965749332" Properties=species:S:1:pos:R:3 unique_starting_index=54 config_type=initial n_minim_iter=12 energy=-1308.4029838486817 free_energy=-1308.4029838486817 pbc="T T T"
Si       0.81524033       0.70799800       1.93671248
Si       2.44523361       7.62753224       1.93671248
Si       0.81524033       4.87576313       9.29108496
Si       2.44523361       3.45976712       9.29108496
Si       0.81524033       7.62757447       0.52078785
Si       2.44523361       0.70795578       0.52078785
Si       0.81524033       3.45980934       7.87516033
Si       2.44523361       4.87572091       7.87516033
