22
Lattice="5.435914136530604 0.5918592243164179 -0.003936533402049534 3.4122594656337317 5.671319025219939 0.2546005780780223 0.9436471087063624 1.19186476133422 15.842042268459462" Properties=species:S:1:pos:R:3 unique_starting_index=40 config_type=initial n_minim_iter=1 energy=-3584.6920945821194 free_energy=-3584.6920945821194 pbc="T T T"
Si       6.79390260       3.07380245      12.37791437
Si       1.52355368       2.67552996       4.28335728
Si       4.98263369       1.54353021       7.20957395
Si       4.01094013       4.77307767      13.30297474
Si       4.29408893       3.20007896      14.70937603
Si       6.54779117       6.36494577       6.78839764
Si       6.11736572       2.74746882       1.98161027
Si       5.49618782       5.40513097       9.95122205
Si       4.65506089       2.75272715       0.36194940
Si       5.21109772       5.56097778      14.86971284
Si       5.29661915       3.15107984      10.70907188
Si       3.89758606       4.70810708      11.15495566
Si       2.61447369       1.91867740       0.87282560
Si       1.53819975       0.80984470       7.93708020
Si       2.99598960       1.56771356      15.17963204
Si       6.98366168       6.53844225       8.89967875
Si       3.76819164       3.07198857       4.13679057
Si       4.58883986       6.88707540       6.09369566
Si       5.36821426       4.27328039       3.26294366
Si       5.50258284       1.33294025       9.48854239
Si       6.29411864       2.43138516      14.54337903
Si       4.63125437       1.33385064       5.11392385
22
Lattice="5.435750342603595 0.591972498456735 -0.004026774454489385 3.412330650498287 5.670767319080255 0.25457300523981785 0.9433661660101983 1.1919780158541156 15.839250252323296" Properties=species:S:1:pos:R:3 unique_starting_index=40 config_type=initial n_minim_iter=2 stress="-0.0009800501860388153 -0.00018579086274206583 -4.844665481239854e-05 -0.00018579086274206583 -0.00027902273591576667 0.00012576305244254774 -4.844665481239854e-05 0.00012576305244254774 -0.0005507985199073239" pbc="T T T"
Si       6.79355652       3.07384178      12.37566255
Si       1.52354440       2.67533774       4.28260733
Si       4.98241314       1.54360434       7.20823029
Si       4.01074522       4.77280730      13.30065508
Si       4.29378699       3.20003636      14.70675165
Si       6.54771628       6.36450815       6.78721549
Si       6.11723275       2.74740366       1.98121368
Si       5.49602523       5.40482394       9.94940592
Si       4.65499067       2.75263761       0.36180214
Si       5.21078745       5.56064669      14.86709788
Si       5.29634620       3.15104959      10.70712295
Si       3.89739820       4.70787292      11.15299147
Si       2.61442099       1.91854289       0.87265081
Si       1.53800835       0.80988743       7.93567684
Si       2.99566812       1.56784776      15.17689941
Si       6.98347609       6.53803135       8.89805772
Si       3.76810424       3.07182256       4.13605358
Si       4.58876216       6.88649848       6.09266819
Si       5.36810486       4.27298935       3.26229745
Si       5.50223856       1.33306948       9.48677568
Si       6.29370571       2.43153909      14.54071850
Si       4.63105639       1.33390711       5.11295245
22
Lattice="5.4373410884565 0.5925552706071996 -0.004108083671395361 3.413948661752953 5.670625953231999 0.2543897390141408 0.9435672898886898 1.1916539666161685 15.837704816421068" Properties=species:S:1:pos:R:3 unique_starting_index=40 config_type=initial n_minim_iter=3 stress="0.0013332073810515736 0.0005801198131735576 -0.00028783544920630915 0.0005801198131735576 -0.0006058115282127026 0.00020100007134706365 -0.00028783544920630915 0.00020100007134706365 -0.00015030329817317876" pbc="T T T"
Si       6.79568541       3.07409761      12.37437176
Si       1.52435063       2.67522402       4.28210585
Si       4.98399964       1.54386115       7.20745314
Si       4.01231826       4.77246574      13.29931434
Si       4.29517431       3.19984621      14.70520703
Si       6.55042096       6.36452141       6.78650714
Si       6.11931986       2.74790183       1.98097375
Si       5.49817374       5.40476596       9.94815078
Si       4.65665165       2.75318178       0.36157110
Si       5.21252856       5.56024722      14.86558604
Si       5.29804840       3.15120030      10.70593147
Si       3.89883854       4.70779016      11.15180575
Si       2.61531130       1.91862115       0.87251520
Si       1.53834836       0.80975075       7.93492000
Si       2.99650739       1.56775550      15.17528921
Si       6.98605868       6.53805679       8.89694333
Si       3.76951014       3.07194093       4.13561474
Si       4.59061949       6.88625024       6.09200168
Si       5.37000638       4.27312242       3.26171565
Si       5.50369229       1.33327504       9.48573470
Si       6.29550778       2.43184699      14.53913686
Si       4.63246794       1.33416413       5.11233446
22
Lattice="5.436817688716522 0.5921900437513533 -0.0030430842375988297 3.413154583108713 5.671854800472692 0.25360364348674125 0.9469397934826738 1.187607889975306 15.83652911309592" Properties=species:S:1:pos:R:3 unique_starting_index=40 config_type=initial n_minim_iter=4 stress="0.0003257256400871454 -0.00019130251995261413 0.0005972614726537653 -0.00019130251995261413 0.0004919262973114477 -0.00041932949818544035 0.0005972614726537653 -0.00041932949818544035 -0.0006363854620208914" pbc="T T T"
Si       6.79772437       3.07096160      12.37442409
Si       1.52554764       2.67493444       4.28133305
Si       4.98555267       1.54164550       7.20779189
Si       4.01475539       4.76944721      13.29830768
Si       4.29787477       3.19579707      14.70434097
Si       6.55176797       6.36381956       6.78657792
Si       6.11940824       2.74787631       1.98181123
Si       5.49978722       5.40301953       9.94680110
Si       4.65624101       2.75457489       0.36151637
Si       5.21398928       5.55660397      14.86461971
Si       5.29964280       3.14890889      10.70535238
Si       3.90042974       4.70651007      11.15058786
Si       2.61481454       1.91853804       0.87264301
Si       1.53948792       0.80731642       7.93461373
Si       2.99955388       1.56382871      15.17401256
Si       6.98673179       6.53687898       8.89590921
Si       3.77002031       3.07161468       4.13567758
Si       4.59016525       6.88604861       6.09134239
Si       5.36950787       4.27288046       3.26102836
Si       5.50458453       1.32989835       9.48574020
Si       6.29770652       2.42846226      14.53858570
Si       4.63322437       1.33238879       5.11244416
22
Lattice="5.435904474103446 0.592351679710058 -0.003946282887824376 3.4127463249668586 5.6714994169558715 0.25355227878141945 0.9440509010901079 1.1888638498459623 15.840897362266068" Properties=species:S:1:pos:R:3 unique_starting_index=40 config_type=initial n_minim_iter=5 stress="-0.0004456530348391674 0.00010342911034933627 -0.0004748583908541891 0.00010342911034933627 3.026359254770727e-05 -0.00012294659331615456 -0.0004748583908541891 -0.00012294659331615456 0.00042372096498688515" pbc="T T T"
Si       6.79457359       3.07199539      12.37703511
Si       1.52488985       2.67521957       4.28246057
Si       4.98365371       1.54222412       7.20917020
Si       4.01197937       4.76999463      13.30181531
Si       4.29477812       3.19678812      14.70801188
Si       6.54999442       6.36406128       6.78817024
Si       6.11833640       2.74810836       1.98158810
Si       5.49741913       5.40352452       9.94890059
Si       4.65552287       2.75493363       0.36089968
Si       5.21035167       5.55749197      14.86853919
Si       5.29693828       3.14985199      10.70759508
Si       3.89800367       4.70755550      11.15332889
Si       2.61415720       1.91847631       0.87266718
Si       1.53776811       0.80778486       7.93668315
Si       2.99638227       1.56500147      15.17759707
Si       6.98416723       6.53732410       8.89764577
Si       3.76887711       3.07194457       4.13660109
Si       4.58844302       6.88610500       6.09304695
Si       5.36801461       4.27301390       3.26120612
Si       5.50171076       1.33048705       9.48747830
Si       6.29410010       2.42987614      14.54160026
Si       4.63161531       1.33274486       5.11302096
22
Lattice="5.436437890388903 0.5920352528767329 -0.0029743842020783346 3.412877882611157 5.67076337970136 0.25519392710906724 0.9465945689927963 1.1917366223241799 15.842004528767212" Properties=species:S:1:pos:R:3 unique_starting_index=40 config_type=initial n_minim_iter=6 stress="-0.00020323598951462005 -6.961861706905886e-05 0.0008752392774132848 -6.961861706905886e-05 -0.0005344905059128191 0.0011649412001524348 0.0008752392774132848 0.0011649412001524348 0.000499712026467833" pbc="T T T"
Si       6.79720392       3.07373594      12.37940843
Si       1.52599113       2.67583112       4.28340977
Si       4.98525659       1.54307223       7.21073604
Si       4.01427951       4.77120069      13.30397487
Si       4.29755282       3.19898713      14.71022620
Si       6.55170248       6.36435276       6.79123696
Si       6.11954962       2.74797587       1.98321526
Si       5.49935617       5.40439865       9.95107885
Si       4.65597542       2.75490344       0.36206770
Si       5.21238530       5.55980538      14.87144220
Si       5.29893711       3.15153629      10.70935415
Si       3.90013959       4.70975484      11.15512488
Si       2.61430128       1.91819549       0.87353141
Si       1.53920932       0.80879446       7.93755014
Si       2.99883285       1.56738664      15.17855761
Si       6.98589312       6.53802219       8.90025163
Si       3.76999772       3.07241698       4.13829198
Si       4.58959174       6.88633215       6.09572150
Si       5.36859662       4.27301803       3.26282142
Si       5.50321899       1.33140084       9.48896162
Si       6.29692756       2.43234095      14.54343324
Si       4.63284925       1.33312642       5.11402136
22
Lattice="5.438285215643288 0.5916671689521976 -0.004084846723400518 3.413593110941473 5.670824909379657 0.252915114486707 0.9440880576340429 1.1872090959751134 15.83759419214341" Properties=species:S:1:pos:R:3 unique_starting_index=40 config_type=initial n_minim_iter=7 stress="0.00044592039488526667 -0.000817481596711298 -0.0005517037380724552 -0.000817481596711298 -3.899647638378308e-05 -6.891936572276637e-06 -0.0005517037380724552 -6.891936572276637e-06 -0.00043586462677400076" pbc="T T T"
Si       6.79748962       3.06992136      12.37465729
Si       1.52654969       2.67508325       4.28131186
Si       4.98564158       1.54039652       7.20791913
Si       4.01305291       4.76580802      13.29855449
Si       4.29681053       3.19452637      14.70587365
Si       6.55280199       6.36234503       6.78783457
Si       6.12212280       2.74732974       1.98095924
Si       5.49938628       5.40100231       9.94560299
Si       4.65735818       2.75542847       0.36013308
Si       5.20951009       5.55659264      14.86590337
Si       5.29841856       3.14885311      10.70441922
Si       3.89960488       4.70852514      11.14985654
Si       2.61448673       1.91756601       0.87236973
Si       1.53851243       0.80552646       7.93533303
Si       2.99660472       1.56228317      15.17249814
Si       6.98600100       6.53547023       8.89460469
Si       3.77095562       3.07166196       4.13657259
Si       4.58987686       6.88479641       6.09233238
Si       5.36886379       4.27219531       3.25935412
Si       5.50211557       1.32704708       9.48511377
Si       6.29645578       2.42843916      14.53726686
Si       4.63351343       1.33077731       5.11110250
22
Lattice="5.437795191776411 0.5941360402847621 -0.0034057213719000416 3.415712716701472 5.672476556249226 0.25214368997997405 0.9468609893169826 1.1841064038470341 15.83713132759748" Properties=species:S:1:pos:R:3 unique_starting_index=40 config_type=initial n_minim_iter=8 stress="-0.0003507758825136952 0.0005378762726235019 0.00017292535378967842 0.0005378762726235019 -0.0003702211295634582 -0.0005500283726358799 0.00017292535378967842 -0.0005500283726358799 -5.199326193225977e-05" pbc="T T T"
Si       6.79995712       3.07031413      12.37493087
Si       1.52867197       2.67514767       4.28085237
Si       4.98682440       1.54089239       7.20822976
Si       4.01666952       4.76380656      13.29768429
Si       4.29995343       3.19296694      14.70594013
Si       6.55582376       6.36396488       6.78776890
Si       6.12335778       2.74985530       1.98122075
Si       5.50290281       5.40109344       9.94463627
Si       4.65828364       2.75797422       0.36043924
Si       5.21232144       5.55648477      14.86533027
Si       5.30047309       3.14930784      10.70397746
Si       3.90299731       4.70901543      11.14895896
Si       2.61487932       1.91839211       0.87231453
Si       1.53977083       0.80391129       7.93535667
Si       2.99895139       1.56000413      15.17144540
Si       6.98909876       6.53682572       8.89388819
Si       3.77282302       3.07282661       4.13688388
Si       4.59359522       6.88577652       6.09183292
Si       5.37020391       4.27407436       3.25887037
Si       5.50276027       1.32667288       9.48530745
Si       6.29889313       2.42844613      14.53684033
Si       4.63426381       1.33137141       5.11126257
22
Lattice="5.438254990366424 0.5946434959072495 -0.004043574117357998 3.4162447989527376 5.674832945718666 0.25278057916596064 0.9447730314248074 1.1879341355161426 15.832483213634696" Properties=species:S:1:pos:R:3 unique_starting_index=40 config_type=initial n_minim_iter=9 stress="-0.00015559624388943545 0.00029338084859489725 -0.0003385862999901079 0.00029338084859489725 0.0009240765403969529 0.0004371545667646508 -0.0003385862999901079 0.0004371545667646508 -0.0008278120398864268" pbc="T T T"
Si       6.79920783       3.07446807      12.37125250
Si       1.52899566       2.67753310       4.28001261
Si       4.98643799       1.54296298       7.20557505
Si       4.01556456       4.76693466      13.29399649
Si       4.29812762       3.19680784      14.70238725
Si       6.55572378       6.36813437       6.78653696
Si       6.12463796       2.75169392       1.98013183
Si       5.50326151       5.40493306       9.94131324
Si       4.65937249       2.76013497       0.36093261
Si       5.20852632       5.56299517      14.86142427
Si       5.29912221       3.15363863      10.70010599
Si       3.90199128       4.71522212      11.14594205
Si       2.61468821       1.91900951       0.87208930
Si       1.53823593       0.80505885       7.93333303
Si       2.99709922       1.56385453      15.16530808
Si       6.98837984       6.54147237       8.89168220
Si       3.77341212       3.07560639       4.13670925
Si       4.59425582       6.89016301       6.09139108
Si       5.36991936       4.27679764       3.25783385
Si       5.50113352       1.32822847       9.48175913
Si       6.29772158       2.43344584      14.53109530
Si       4.63405980       1.33249747       5.10955998
22
Lattice="5.438831721526783 0.5929268878747158 -0.0037241287422494 3.415359881477352 5.669967625693445 0.25182148794616566 0.9459427875148787 1.1832266331662757 15.835933399815174" Properties=species:S:1:pos:R:3 unique_starting_index=40 config_type=initial n_minim_iter=10 stress="-2.458105373869226e-05 -0.0003025648770576252 -8.133921438102434e-05 -0.0003025648770576252 -0.0008511136998767131 -0.0001619684727601692 -8.133921438102434e-05 -0.0001619684727601692 -5.857207818582751e-05" pbc="T T T"
Si       6.80067769       3.06786990      12.37428642
Si       1.52938978       2.67466535       4.28066401
Si       4.98729131       1.53877143       7.20713717
Si       4.01625788       4.75802369      13.29609274
Si       4.29908429       3.18948768      14.70642603
Si       6.55560815       6.36050320       6.78721057
Si       6.12575881       2.74799483       1.98032564
Si       5.50468190       5.39669759       9.94250438
Si       4.65967800       2.75776665       0.36107603
Si       5.20674008       5.55514799      14.86421498
Si       5.29944667       3.14827249      10.70168953
Si       3.90238383       4.71019937      11.14757784
Si       2.61428423       1.91638692       0.87221752
Si       1.53813978       0.80155712       7.93544634
Si       2.99850299       1.55860482      15.16725176
Si       6.98823435       6.53312226       8.89298738
Si       3.77422529       3.07212797       4.13822314
Si       4.59446508       6.88323995       6.09182117
Si       5.36962910       4.27171298       3.25788222
Si       5.50180511       1.32279546       9.48403941
Si       6.29948113       2.42766674      14.53340167
Si       4.63490822       1.32860705       5.11120761
22
Lattice="5.4393176463198065 0.5950852284735585 -0.0027564854755945463 3.417642876644454 5.672906436376151 0.2529457774335433 0.9490807325009459 1.1854341871059024 15.836879285821169" Properties=species:S:1:pos:R:3 unique_starting_index=40 config_type=initial n_minim_iter=11 stress="6.443184982232055e-05 0.00026528277103237617 9.663072984752641e-05 0.00026528277103237617 -1.3127968143188182e-06 0.0001702792652511569 9.663072984752641e-05 0.0001702792652511569 2.325108425661835e-05" pbc="T T T"
Si       6.80474764       3.07253673      12.37688621
Si       1.53176712       2.67735146       4.28172064
Si       4.98894213       1.54120603       7.20798688
Si       4.02063066       4.75839574      13.29667440
Si       4.30422431       3.19288088      14.71063827
Si       6.55860904       6.36520050       6.78885800
Si       6.12907584       2.75162933       1.98130521
Si       5.51141033       5.39855779       9.94433942
Si       4.66090633       2.76241203       0.36169272
Si       5.20582561       5.56039461      14.86750542
Si       5.30115600       3.15350532      10.70184011
Si       3.90648221       4.71832558      11.14856917
Si       2.61437651       1.91686769       0.87392830
Si       1.53799176       0.80154701       7.93671687
Si       3.00191445       1.56143427      15.16537659
Si       6.99223327       6.53857257       8.89529320
Si       3.77794575       3.07599663       4.14171640
Si       4.59966979       6.88875904       6.09350100
Si       5.37203521       4.27480742       3.25924180
Si       5.50366851       1.32409487       9.48582488
Si       6.30363558       2.43455279      14.53275878
Si       4.63706512       1.32972780       5.11365696
22
Lattice="5.438436917747898 0.5940928706140003 -0.0026180775704198562 3.416149875836265 5.672085260091362 0.25197251617393396 0.9494927957053053 1.1819639635919055 15.838719953602403" Properties=species:S:1:pos:R:3 unique_starting_index=40 config_type=initial n_minim_iter=12 stress="0.00015283768829485017 0.00022675187126493278 0.00019612279850512274 0.00022675187126493278 7.538315690972539e-05 9.492421223305592e-05 0.00019612279850512274 9.492421223305592e-05 0.0004977019756884112" pbc="T T T"
Si       6.80419748       3.06882018      12.37859881
Si       1.53161778       2.67741141       4.28207060
Si       4.98706913       1.53824803       7.20839345
Si       4.02036991       4.75025596      13.29650145
Si       4.30466816       3.18902589      14.71311037
Si       6.55552100       6.36200640       6.78923843
Si       6.12901246       2.75073052       1.98074849
Si       5.51421894       5.39209547       9.94424124
Si       4.66068141       2.76417401       0.36236865
Si       5.19781708       5.55660623      14.86981503
Si       5.29824414       3.15159084      10.70095953
Si       3.90545607       4.72002237      11.14857115
Si       2.61284137       1.91465236       0.87587589
Si       1.53805064       0.79743922       7.93839551
Si       3.00136508       1.55642360      15.16339643
Si       6.99018910       6.53559736       8.89458501
Si       3.77901800       3.07545981       4.14490379
Si       4.59810305       6.88814973       6.09257385
Si       5.37153755       4.27203261       3.25913326
Si       5.50290920       1.31940403       9.48869802
Si       6.30424981       2.43375695      14.53123230
Si       4.63760785       1.32643853       5.11547687
22
Lattice="5.4390646164012395 0.5906582530547673 -0.003716141319142679 3.4133724129931653 5.667814401638564 0.24961318116252526 0.9462733553166669 1.176190232057274 15.8333873812252" Properties=species:S:1:pos:R:3 unique_starting_index=40 config_type=initial n_minim_iter=13 stress="0.0005806019048464472 0.00014273135665506984 0.0002228017192308543 0.00014273135665506984 0.00043021030376956375 0.00014823456764988838 0.0002228017192308543 0.00014823456764988838 0.0007556439811097209" pbc="T T T"
Si       6.80149831       3.06026940      12.37263268
Si       1.53017474       2.67691587       4.27975329
Si       4.98802057       1.53293359       7.20569779
Si       4.01601121       4.73452837      13.28521731
Si       4.30157714       3.17998961      14.71159420
Si       6.54881171       6.35199917       6.78453207
Si       6.12940537       2.74628932       1.97682434
Si       5.51728524       5.37722271       9.93670709
Si       4.66144679       2.76510123       0.36315947
Si       5.18037688       5.54828862      14.86669846
Si       5.29054671       3.14658800      10.69260573
Si       3.90164482       4.72153421      11.14076220
Si       2.61242244       1.90868694       0.87691488
Si       1.53517472       0.78883196       7.93800515
Si       2.99690667       1.54622640      15.15086716
Si       6.98620078       6.52696971       8.88788593
Si       3.78071325       3.07156592       4.14877507
Si       4.59118618       6.88408532       6.08785549
Si       5.37194119       4.26476398       3.25698156
Si       5.50235855       1.31043087       9.48871507
Si       6.30500034       2.43217969      14.51877682
Si       4.63857465       1.31978007       5.11189650
22
Lattice="5.4398921818303325 0.5898918993132236 -0.004794630640092368 3.4132839293145754 5.665568123994842 0.24617939026201419 0.9440309199737477 1.1676643907340358 15.828852906858192" Properties=species:S:1:pos:R:3 unique_starting_index=40 config_type=initial n_minim_iter=14 stress="0.0006131686062345312 9.04939386275267e-05 -2.2251945379290016e-05 9.04939386275267e-05 0.0005880089518344589 2.4459246794521594e-05 -2.2251945379290016e-05 2.4459246794521594e-05 0.0005403399382761781" pbc="T T T"
Si       6.79986135       3.05265034      12.36608810
Si       1.53056644       2.67483505       4.27712299
Si       4.98773101       1.52876894       7.20265615
Si       4.01482674       4.72213414      13.27790859
Si       4.30039115       3.17113581      14.70694766
Si       6.54764657       6.34576240       6.77792354
Si       6.13057287       2.74336869       1.97311868
Si       5.51889804       5.36567304       9.92960469
Si       4.66262083       2.76533896       0.36278712
Si       5.17070268       5.53814835      14.86076398
Si       5.28610006       3.14119571      10.68656458
Si       3.90066427       4.71847372      11.13172817
Si       2.61383061       1.90497092       0.87650240
Si       1.53390166       0.78136937       7.93764710
Si       2.99467770       1.53613300      15.14314136
Si       6.98765249       6.52064800       8.88172018
Si       3.78184413       3.06773855       4.14953790
Si       4.58961211       6.87985585       6.08341317
Si       5.37286917       4.26183068       3.25446049
Si       5.50249568       1.30348855       9.48734989
Si       6.30481186       2.42874785      14.51025217
Si       4.63745551       1.31514238       5.10826904
22
Lattice="5.438266971448635 0.5872319485258554 -0.0044409787627783465 3.4100201326889996 5.660813733390591 0.24246568935493926 0.9455768664830753 1.154962641336401 15.825637803348346" Properties=species:S:1:pos:R:3 unique_starting_index=40 config_type=initial n_minim_iter=15 stress="-3.332093351825531e-05 -0.00018645781134286763 -0.0001691085647477067 -0.00018645781134286763 0.00038628267192745844 6.170516522809495e-05 -0.0001691085647477067 6.170516522809495e-05 0.00023733529996125004" pbc="T T T"
Si       6.79718842       3.03962831      12.36053158
Si       1.53176413       2.67026457       4.27492725
Si       4.98638319       1.52147024       7.19990382
Si       4.01318976       4.70283913      13.26958905
Si       4.30090299       3.15668973      14.70384711
Si       6.54383356       6.33541346       6.77241463
Si       6.12938146       2.73696504       1.97102638
Si       5.52248988       5.34819412       9.92127234
Si       4.66029540       2.76359137       0.36271040
Si       5.16016166       5.52181457      14.85889082
Si       5.28019907       3.13105525      10.68238585
Si       3.89755659       4.71107395      11.12307708
Si       2.61514793       1.89851355       0.87688440
Si       1.53533708       0.77059551       7.93845506
Si       2.99537068       1.52105125      15.13685122
Si       6.98718387       6.50834243       8.87786428
Si       3.78149945       3.06075627       4.15207752
Si       4.58635565       6.87142152       6.08055740
Si       5.37102571       4.25643368       3.25328339
Si       5.50319221       1.29211744       9.48896903
Si       6.30539439       2.42178152      14.50391898
Si       4.63369719       1.30675023       5.10643162
22
Lattice="5.438447692134291 0.5837766255479688 -0.006738088277033458 3.406918936832018 5.656195588623836 0.2356811678786789 0.9399432968598951 1.1384663560747463 15.813334544594621" Properties=species:S:1:pos:R:3 unique_starting_index=40 config_type=initial n_minim_iter=16 stress="-0.0004571754276793209 -0.0003224753607586464 -0.0006376901302461989 -0.0003224753607586464 -3.217432062952428e-05 -3.427703316280631e-05 -0.0006376901302461989 -3.427703316280631e-05 -0.00025627212840648276" pbc="T T T"
Si       6.79015334       3.02318297      12.34361581
Si       1.53107926       2.66375015       4.26948189
Si       4.98542053       1.51236658       7.19057147
Si       4.00590459       4.68061742      13.25110320
Si       4.29380073       3.13899132      14.68761913
Si       6.53769538       6.32373227       6.76016376
Si       6.12872691       2.73025059       1.96584718
Si       5.52115030       5.32683687       9.90575015
Si       4.65897804       2.76142704       0.35958688
Si       5.14435728       5.50206481      14.84607756
Si       5.27102816       3.11703349      10.66989188
Si       3.89041995       4.70129953      11.10432379
Si       2.61725591       1.89133387       0.87564006
Si       1.53237019       0.75917843       7.93204329
Si       2.98999000       1.50217443      15.12155440
Si       6.98320722       6.49314662       8.86481460
Si       3.77948842       3.05300358       4.14902506
Si       4.58170046       6.86176170       6.07017879
Si       5.36914574       4.24947568       3.24637523
Si       5.50180210       1.27803816       9.48270866
Si       6.30206095       2.40968279      14.48737826
Si       4.62878324       1.29625362       5.09982817
22
Lattice="5.437923713412839 0.5820434292764762 -0.009198488897330485 3.4049347958530554 5.653688886895332 0.2292402786916322 0.9338894818756801 1.1238046137484337 15.801204912189297" Properties=species:S:1:pos:R:3 unique_starting_index=40 config_type=initial n_minim_iter=17 stress="-0.0006777087381420525 -2.8290918766216775e-05 -0.0005868585807065817 -2.8290918766216775e-05 -0.0005219405590028886 1.74699920863182e-05 -0.0005868585807065817 1.74699920863182e-05 -0.0007646591234753642" pbc="T T T"
Si       6.78189611       3.01076720      12.32561293
Si       1.53028567       2.65755786       4.26459041
Si       4.98280432       1.50564676       7.18442591
Si       3.99908380       4.66336305      13.23186596
Si       4.28583860       3.12364074      14.67164379
Si       6.53245322       6.31593262       6.74971826
Si       6.12815828       2.72641954       1.96165014
Si       5.51997006       5.30912377       9.88929092
Si       4.65710190       2.76071659       0.35585502
Si       5.12789631       5.48632264      14.83353341
Si       5.26136842       3.10531932      10.65802725
Si       3.88286980       4.69427936      11.08549377
Si       2.62052344       1.88477044       0.87439397
Si       1.52902401       0.74911901       7.92831630
Si       2.98430747       1.48595227      15.10689916
Si       6.97997746       6.48204746       8.85068933
Si       3.77719134       3.04797356       4.14523098
Si       4.57864925       6.85600976       6.05782054
Si       5.36805813       4.24504402       3.23992329
Si       5.50101533       1.26692669       9.47548698
Si       6.29819707       2.40062329      14.47207363
Si       4.62348917       1.28727293       5.09237106
22
Lattice="5.438278166788427 0.5820894511171331 -0.009580338660189328 3.4054012834806198 5.651714479841385 0.2277017183050173 0.9332891411364483 1.1197264347863658 15.796845955619167" Properties=species:S:1:pos:R:3 unique_starting_index=40 config_type=initial n_minim_iter=18 stress="-0.0001635617101574455 0.0001099951227606384 0.00045075857579116626 0.0001099951227606384 -0.00047954314114366075 -1.9416182807713e-05 0.00045075857579116626 -1.9416182807713e-05 -0.0005273710657691434" pbc="T T T"
Si       6.77904552       3.00890275      12.31579113
Si       1.52988969       2.65324540       4.26285870
Si       4.98540322       1.50690311       7.18240287
Si       3.99950061       4.66092477      13.22360860
Si       4.28367493       3.11920652      14.66405437
Si       6.53256987       6.31376107       6.74897554
Si       6.13060518       2.72457310       1.96206645
Si       5.52131686       5.30117043       9.88285148
Si       4.65581731       2.75866850       0.35367512
Si       5.12234123       5.48186539      14.83049352
Si       5.25809377       3.09970192      10.65590447
Si       3.88183662       4.69023955      11.07625778
Si       2.62647143       1.87998528       0.87386553
Si       1.53112689       0.74810850       7.92845590
Si       2.98412314       1.48077037      15.10370434
Si       6.98156348       6.47667979       8.84873438