22
Lattice="5.574188160145707 -0.7427986299630266 -1.3479041337845163 -2.636559060487123 10.437201764473127 -2.0354014869685213 -4.5359714098827055 -4.941781702811385 10.758317367964475" Properties=species:S:1:pos:R:3 unique_starting_index=18 config_type=initial n_minim_iter=1 energy=-3583.7958903929703 free_energy=-3583.7958903929703 pbc="T T T"
Si      -0.25785778       9.08921860      -0.95444999
Si      -1.54250545      -1.23019971       5.70385927
Si      -3.78203790      -3.46649473       9.55268069
Si       0.25642456      -2.75517787       8.69728595
Si      -5.63181066      -0.24515995       8.89999288
Si       4.22963537       2.02469478       0.21640798
Si       2.17527921       0.69118349       0.40455391
Si      -1.46500878       0.48315735       6.95975357
Si      -1.66909416      -3.30942836       9.39134956
Si      -2.67181083       1.09610847       5.32014037
Si       1.17832169      -0.28682234       2.53701911
Si      -2.98437013       3.57750643       5.06464262
Si      -3.45131699      -2.68554410       6.28933721
Si      -0.71525474       6.65868484      -1.08596095
Si       1.05256332       1.38539839       3.88126282
Si       1.03195553       7.63845673      -1.81119759
Si      -0.89929705      -1.25180960       3.28182390
Si       2.75925923      -4.84339450       6.39323713
Si       0.22092172       3.16356802       3.04048693
Si      -2.82657609       2.50918914       6.89345408
Si      -1.41397525       4.46594850       3.42670761
Si      -1.81771961      -2.17509437       7.58822235
22
Lattice="5.574258036919908 -0.7428028688420463 -1.3479214259580978 -2.6365784619626416 10.437352373114361 -2.035421324882006 -4.53605176084082 -4.94187080912063 10.758391811546263" Properties=species:S:1:pos:R:3 unique_starting_index=18 config_type=initial n_minim_iter=2 stress="0.0001751891843231486 -9.963311260494244e-06 4.728046094485721e-06 -9.963311260494244e-06 0.00013727547602158003 -1.4764835015433427e-05 4.728046094485721e-06 -1.4764835015433427e-05 0.00013943022149706566" pbc="T T T"
Si      -0.25785113       9.08935000      -0.95447208
Si      -1.54253972      -1.23022536       5.70388850
Si      -3.78210675      -3.46656314       9.55273881
Si       0.25640822      -2.75522245       8.69733525
Si      -5.63190738      -0.24517872       8.90004840
Si       4.22969322       2.02472696       0.21639970
Si       2.17530753       0.69119454       0.40454477
Si      -1.46503939       0.48315228       6.95979078
Si      -1.66912717      -3.30949597       9.39140968
Si      -2.67184444       1.09610717       5.32018294
Si       1.17833407      -0.28683109       2.53703471
Si      -2.98442040       3.57754465       5.06466691
Si      -3.45137410      -2.68559675       6.28938477
Si      -0.71526137       6.65878635      -1.08596859
Si       1.05257751       1.38541800       3.88128218
Si       1.03197560       7.63857473      -1.81121948
Si      -0.89931449      -1.25183069       3.28185182
Si       2.75927332      -4.84347512       6.39327846
Si       0.22092344       3.16360961       3.04049423
Si      -2.82661942       2.50920985       6.89349518
Si      -1.41400079       4.46601576       3.42672433
Si      -1.81776039      -2.17513322       7.58827375
22
Lattice="5.574261040405561 -0.7427717743680848 -1.3479586358255282 -2.636457835153827 10.437605655597034 -2.03535314407056 -4.5362267856754945 -4.942056200104677 10.758191269241514" Properties=species:S:1:pos:R:3 unique_starting_index=18 config_type=initial n_minim_iter=3 stress="2.8573997438079836e-05 -5.5363182014792613e-05 -7.895476924032899e-05 -5.5363182014792613e-05 1.8096140343079044e-05 -1.3529199495617646e-05 -7.895476924032899e-05 -1.3529199495617646e-05 -7.309106578099385e-05" pbc="T T T"
Si      -0.25775501       9.08958276      -0.95449875
Si      -1.54264614      -1.23027302       5.70372809
Si      -3.78225873      -3.46672038       9.55251090
Si       0.25626525      -2.75526069       8.69710997
Si      -5.63209677      -0.24523879       8.89986845
Si       4.22973674       2.02481444       0.21634551
Si       2.17532117       0.69123068       0.40445860
Si      -1.46511709       0.48312447       6.95961278
Si      -1.66921457      -3.30965497       9.39121056
Si      -2.67184904       1.09605710       5.32015529
Si       1.17832041      -0.28684763       2.53698319
Si      -2.98450378       3.57756961       5.06454655
Si      -3.45147533      -2.68572889       6.28930033
Si      -0.71522625       6.65899053      -1.08590384
Si       1.05260502       1.38548497       3.88118283
Si       1.03204211       7.63882238      -1.81119580
Si      -0.89935991      -1.25186224       3.28182973
Si       2.75912097      -4.84361965       6.39312625
Si       0.22092462       3.16369051       3.04037879
Si      -2.82666519       2.50921175       6.89335632
Si      -1.41403560       4.46617584       3.42665891
Si      -1.81788619      -2.17518738       7.58813256
22
Lattice="5.57419899428854 -0.7427027217249161 -1.3478989532889418 -2.636330479588311 10.437587432387648 -2.0353823647221496 -4.536120961011694 -4.942100451149544 10.758221298238565" Properties=species:S:1:pos:R:3 unique_starting_index=18 config_type=initial n_minim_iter=4 stress="-3.293770350861085e-05 5.8250897137678667e-05 -9.647334174676474e-07 5.8250897137678667e-05 1.588219516820468e-05 1.9227400218517586e-06 -9.647334174676474e-07 1.9227400218517586e-06 3.749448964493476e-05" pbc="T T T"
Si      -0.25764682       9.08959840      -0.95450067
Si      -1.54258567      -1.23028030       5.70375076
Si      -3.78215129      -3.46675865       9.55252932
Si       0.25634085      -2.75522722       8.69718524
Si      -5.63196408      -0.24529310       8.89987169
Si       4.22975463       2.02487531       0.21641543
Si       2.17532614       0.69125864       0.40448247
Si      -1.46500724       0.48311951       6.95965742
Si      -1.66911022      -3.30967340       9.39126247
Si      -2.67174226       1.09602378       5.32018325
Si       1.17835100      -0.28683065       2.53703131
Si      -2.98437919       3.57754549       5.06455546
Si      -3.45140594      -2.68577281       6.28931608
Si      -0.71515773       6.65900228      -1.08589756
Si       1.05268697       1.38550955       3.88124100
Si       1.03210489       7.63885477      -1.81117951
Si      -0.89932525      -1.25186438       3.28186051
Si       2.75912039      -4.84358463       6.39322245
Si       0.22100451       3.16371113       3.04041009
Si      -2.82651751       2.50919209       6.89339351
Si      -1.41392757       4.46618817       3.42668386
Si      -1.81780859      -2.17518955       7.58817932
22
Lattice="5.57423224524553 -0.7427705284224233 -1.3477884857341316 -2.6365202584169687 10.437558084853384 -2.03539411442382 -4.535900420166298 -4.9419927911229795 10.758055604651236" Properties=species:S:1:pos:R:3 unique_starting_index=18 config_type=initial n_minim_iter=5 stress="-6.532008584478767e-06 -7.912800835676841e-05 9.307706631014026e-05 -7.912800835676841e-05 9.841537972344902e-06 4.2595516288565314e-05 9.307706631014026e-05 4.2595516288565314e-05 8.650790359563465e-06" pbc="T T T"
Si      -0.25779348       9.08957047      -0.95449560
Si      -1.54249899      -1.23023718       5.70368012
Si      -3.78195232      -3.46667653       9.55236249
Si       0.25653892      -2.75516245       8.69711502
Si      -5.63186059      -0.24521543       8.89970745
Si       4.22979807       2.02481157       0.21650753
Si       2.17534986       0.69121645       0.40450693
Si      -1.46490202       0.48315259       6.95958034
Si      -1.66889192      -3.30963500       9.39113854
Si      -2.67167725       1.09603509       5.32010680
Si       1.17842923      -0.28684481       2.53705679
Si      -2.98435851       3.57757366       5.06446471
Si      -3.45128341      -2.68571957       6.28922686
Si      -0.71528328       6.65898933      -1.08587274
Si       1.05277151       1.38548288       3.88124507
Si       1.03197655       7.63879590      -1.81113162
Si      -0.89925412      -1.25183071       3.28184806
Si       2.75931374      -4.84358915       6.39323604
Si       0.22101559       3.16370862       3.04038653
Si      -2.82643553       2.50922824       6.89330315
Si      -1.41393260       4.46621520       3.42664717
Si      -1.81767490      -2.17512474       7.58809179
22
Lattice="5.574321065253735 -0.7426933369763611 -1.3477875587934147 -2.636455462934837 10.437430058257153 -2.0354781831722963 -4.536069441285749 -4.942102201420699 10.757991423727496" Properties=species:S:1:pos:R:3 unique_starting_index=18 config_type=initial n_minim_iter=6 stress="0.00010065070544618724 3.9494013861856777e-05 3.157779625736786e-05 3.9494013861856777e-05 -6.066323406133102e-05 -3.593879803979048e-05 3.157779625736786e-05 -3.593879803979048e-05 -6.653155418949405e-05" pbc="T T T"
Si      -0.25773770       9.08951003      -0.95461825
Si      -1.54259952      -1.23029480       5.70362293
Si      -3.78206485      -3.46678912       9.55224926
Si       0.25648808      -2.75517111       8.69700732
Si      -5.63201557      -0.24538580       8.89961575
Si       4.22992485       2.02481957       0.21647001
Si       2.17539579       0.69119611       0.40446580
Si      -1.46495997       0.48305246       6.95948167
Si      -1.66896165      -3.30975557       9.39101800
Si      -2.67173728       1.09588758       5.32004004
Si       1.17846524      -0.28687247       2.53705930
Si      -2.98438745       3.57745156       5.06435191
Si      -3.45138580      -2.68582766       6.28923280
Si      -0.71525926       6.65894150      -1.08590701
Si       1.05281033       1.38539077       3.88118375
Si       1.03205967       7.63873055      -1.81120253
Si      -0.89929202      -1.25184874       3.28187261
Si       2.75926856      -4.84359973       6.39321795
Si       0.22101622       3.16365550       3.04028338
Si      -2.82647135       2.50909073       6.89319242
Si      -1.41392482       4.46615034       3.42655739
Si      -1.81779999      -2.17518806       7.58802700
22
Lattice="5.574253882707779 -0.7427257407720341 -1.3478533710328826 -2.636441165444553 10.43751627098321 -2.0354464464350754 -4.536082707738584 -4.94209605271783 10.758113569961882" Properties=species:S:1:pos:R:3 unique_starting_index=18 config_type=initial n_minim_iter=7 stress="-2.3490158484267675e-05 -9.635645441287487e-06 -3.0060112097740477e-05 -9.635645441287487e-06 7.041827214113158e-07 6.852687416326447e-06 -3.0060112097740477e-05 6.852687416326447e-06 3.225443081519972e-05" pbc="T T T"
Si      -0.25778184       9.08960261      -0.95461836
Si      -1.54264710      -1.23028282       5.70367834
Si      -3.78206694      -3.46677831       9.55233614
Si       0.25642117      -2.75514652       8.69706219
Si      -5.63202635      -0.24534616       8.89974066
Si       4.22986727       2.02481283       0.21643302
Si       2.17535966       0.69117832       0.40444077
Si      -1.46500761       0.48308308       6.95955800
Si      -1.66898994      -3.30976888       9.39108887
Si      -2.67175664       1.09589089       5.32010702
Si       1.17844262      -0.28688196       2.53708983
Si      -2.98440041       3.57750690       5.06442451
Si      -3.45137938      -2.68583697       6.28933459
Si      -0.71528318       6.65900732      -1.08588111
Si       1.05276495       1.38538894       3.88121545
Si       1.03202142       7.63877578      -1.81120809
Si      -0.89930324      -1.25183966       3.28193236
Si       2.75918468      -4.84364591       6.39324581
Si       0.22096017       3.16369433       3.04030303
Si      -2.82649529       2.50914400       6.89328248
Si      -1.41395280       4.46621910       3.42660920
Si      -1.81785890      -2.17517088       7.58810515
22
Lattice="5.574192989684226 -0.7427203787879892 -1.3477387814034434 -2.636427250346478 10.437700295902069 -2.0354779059000436 -4.535902616389079 -4.942230921375776 10.757832793660477" Properties=species:S:1:pos:R:3 unique_starting_index=18 config_type=initial n_minim_iter=8 stress="1.3795602364856377e-05 4.3748409538323225e-05 1.6427594424019531e-06 4.3748409538323225e-05 9.659683506169385e-05 9.57897227357404e-05 1.6427594424019531e-06 9.57897227357404e-05 -0.00011040774640967616" pbc="T T T"
Si      -0.25782479       9.08982824      -0.95468698
Si      -1.54262880      -1.23033269       5.70352964
Si      -3.78185029      -3.46686614       9.55203817
Si       0.25659134      -2.75516936       8.69687215
Si      -5.63187390      -0.24536305       8.89945079
Si       4.22986834       2.02483262       0.21643738
Si       2.17536683       0.69116180       0.40441463
Si      -1.46488817       0.48308963       6.95942198
Si      -1.66876976      -3.30991574       9.39087339
Si      -2.67166900       1.09580992       5.31993048
Si       1.17852950      -0.28692601       2.53711739
Si      -2.98426821       3.57754879       5.06426207
Si      -3.45127169      -2.68596423       6.28921482
Si      -0.71532835       6.65916264      -1.08585964
Si       1.05281917       1.38538892       3.88115383
Si       1.03196896       7.63891096      -1.81115543
Si      -0.89925276      -1.25185494       3.28193077
Si       2.75928811      -4.84378013       6.39320873
Si       0.22098068       3.16374981       3.04021128
Si      -2.82633331       2.50917294       6.89303635
Si      -1.41389422       4.46631509       3.42647504
Si      -1.81782011      -2.17521672       7.58793081
22
Lattice="5.574149706788057 -0.7427258148459573 -1.347692290591698 -2.6365038331214232 10.437660493184415 -2.035745042556988 -4.535748357742745 -4.94237946697802 10.758015929452416" Properties=species:S:1:pos:R:3 unique_starting_index=18 config_type=initial n_minim_iter=9 stress="-4.8411001023840214e-05 -1.532138910080881e-05 2.7362192437320155e-05 -1.532138910080881e-05 5.93397560299331e-05 -8.623938101051136e-05 2.7362192437320155e-05 -8.623938101051136e-05 -2.1115885892174102e-05" pbc="T T T"
Si      -0.25792902       9.08979495      -0.95492792
Si      -1.54260775      -1.23043064       5.70360013
Si      -3.78169053      -3.46699655       9.55215829
Si       0.25671487      -2.75530119       8.69701446
Si      -5.63177523      -0.24549087       8.89949526
Si       4.22983978       2.02476081       0.21640229
Si       2.17535668       0.69110950       0.40439722
Si      -1.46482521       0.48296060       6.95949326
Si      -1.66861464      -3.31010094       9.39102400
Si      -2.67162508       1.09566413       5.31993324
Si       1.17857825      -0.28700762       2.53719662
Si      -2.98422305       3.57742635       5.06421297
Si      -3.45118275      -2.68607662       6.28934260
Si      -0.71541309       6.65914444      -1.08600217
Si       1.05283385       1.38528719       3.88117722
Si       1.03186751       7.63886404      -1.81131336
Si      -0.89921302      -1.25189511       3.28202949
Si       2.75938344      -4.84391370       6.39342262
Si       0.22096337       3.16365233       3.04016817
Si      -2.82625697       2.50902382       6.89300252
Si      -1.41389821       4.46622608       3.42638865
Si      -1.81777408      -2.17533056       7.58805271
22
Lattice="5.574216729720696 -0.742726864327411 -1.347735046733763 -2.636566492264833 10.437252729528856 -2.0357047948251084 -4.535794710409283 -4.942088282269597 10.758226732171332" Properties=species:S:1:pos:R:3 unique_starting_index=18 config_type=initial n_minim_iter=10 stress="3.233492876420454e-05 -5.123697302274335e-06 -1.043029496374826e-05 -5.123697302274335e-06 -6.125013627306426e-05 1.4403026559025274e-05 -1.043029496374826e-05 1.4403026559025274e-05 3.204895649042719e-05" pbc="T T T"
Si      -0.25800471       9.08948424      -0.95492382
Si      -1.54269232      -1.23033152       5.70372692
Si      -3.78169316      -3.46674927       9.55232879
Si       0.25678083      -2.75508418       8.69717200
Si      -5.63186959      -0.24536782       8.89969118
Si       4.22990467       2.02464941       0.21638393
Si       2.17538551       0.69105178       0.40437705
Si      -1.46485691       0.48302712       6.95968041
Si      -1.66857987      -3.30992835       9.39119176
Si      -2.67167716       1.09561647       5.32005801
Si       1.17863799      -0.28701422       2.53730132
Si      -2.98426111       3.57733685       5.06435799
Si      -3.45123210      -2.68595901       6.28951309
Si      -0.71548993       6.65890629      -1.08594696
Si       1.05283628       1.38528532       3.88127802
Si       1.03182816       7.63855149      -1.81126893
Si      -0.89922784      -1.25180298       3.28215492
Si       2.75946851      -4.84372002       6.39353950
Si       0.22093546       3.16354296       3.04025637
Si      -2.82627550       2.50899646       6.89314345
Si      -1.41394654       4.46611071       3.42648125
Si      -1.81784420      -2.17515646       7.58823271
22
Lattice="5.57392678128337 -0.7427215038541016 -1.3475958544561613 -2.636488508702163 10.437392249498377 -2.035857656247326 -4.535322939928406 -4.942233636407553 10.758190768228214" Properties=species:S:1:pos:R:3 unique_starting_index=18 config_type=initial n_minim_iter=11 stress="-1.3090751989892897e-05 7.319027008587459e-06 -7.843605778924637e-06 7.319027008587459e-06 -2.907454780275985e-06 5.108376427987442e-06 -7.843605778924637e-06 5.108376427987442e-06 1.6425278400479048e-05" pbc="T T T"
Si      -0.25820517       9.08974696      -0.95521972
Si      -1.54279513      -1.23038625       5.70383062
Si      -3.78109339      -3.46671385       9.55224254
Si       0.25729355      -2.75504194       8.69717307
Si      -5.63147630      -0.24540218       8.89953624
Si       4.22985019       2.02457796       0.21632788
Si       2.17531504       0.69097896       0.40426419
Si      -1.46476020       0.48316548       6.95968157
Si      -1.66804531      -3.31016222       9.39102751
Si      -2.67153333       1.09538931       5.32004452
Si       1.17886581      -0.28722211       2.53755857
Si      -2.98388075       3.57740515       5.06420576
Si      -3.45102725      -2.68626868       6.28964691
Si      -0.71571840       6.65909950      -1.08589229
Si       1.05287359       1.38536834       3.88132212
Si       1.03165527       7.63867478      -1.81119246
Si      -0.89915408      -1.25178969       3.28239477
Si       2.75971565      -4.84404550       6.39364934
Si       0.22094481       3.16345611       3.04024465
Si      -2.82584054       2.50892731       6.89293825
Si      -1.41383473       4.46624394       3.42632156
Si      -1.81769731      -2.17508684       7.58837185
22
Lattice="5.573768797119926 -0.7427927223907261 -1.347310633819039 -2.6366731049650864 10.4376623832773 -2.0360967705350212 -4.534709975261043 -4.942453520861134 10.757777577135615" Properties=species:S:1:pos:R:3 unique_starting_index=18 config_type=initial n_minim_iter=12 stress="2.756683891307055e-06 2.8342837681807468e-06 3.329373532862453e-06 2.8342837681807468e-06 -1.3064244756894067e-05 -8.151228680201616e-07 3.329373532862453e-06 -8.151228680201616e-07 8.521721415944317e-07" pbc="T T T"
Si      -0.25859876       9.09005704      -0.95557833
Si      -1.54284507      -1.23038899       5.70379910
Si      -3.78038611      -3.46672518       9.55183924
Si       0.25802413      -2.75511098       8.69693629
Si      -5.63109568      -0.24531324       8.89896808
Si       4.22991253       2.02445010       0.21632416
Si       2.17530858       0.69094525       0.40409034
Si      -1.46453568       0.48312362       6.95942109
Si      -1.66730202      -3.31050686       9.39055688
Si      -2.67145078       1.09513053       5.31972368
Si       1.17917734      -0.28749829       2.53777072
Si      -2.98354254       3.57748458       5.06379031
Si      -3.45079435      -2.68663044       6.28955109
Si      -0.71612372       6.65934365      -1.08587596
Si       1.05302257       1.38541464       3.88124975
Si       1.03142796       7.63884482      -1.81115101
Si      -0.89905754      -1.25181742       3.28250294
Si       2.76021302      -4.84456492       6.39357423
Si       0.22094218       3.16335995       3.04010857
Si      -2.82541961       2.50889503       6.89254127
Si      -1.41371777       4.46639894       3.42598362
Si      -1.81747963      -2.17512590       7.58831919
22
Lattice="5.573699479834218 -0.7428954797391062 -1.347201303851213 -2.6368313494151927 10.438104378918334 -2.0361695707106713 -4.534424134180263 -4.94263586968433 10.75757752457175" Properties=species:S:1:pos:R:3 unique_starting_index=18 config_type=initial n_minim_iter=13 stress="9.152923887124468e-06 3.4308236453791632e-06 9.876248031410023e-07 3.4308236453791632e-06 1.1493742156329632e-05 3.2942869345806256e-06 9.876248031410023e-07 3.2942869345806256e-06 -6.351995044799842e-06" pbc="T T T"
Si      -0.25884661       9.09039286      -0.95572949
Si      -1.54289735      -1.23038911       5.70373000
Si      -3.78003989      -3.46678162       9.55164090
Si       0.25835286      -2.75511085       8.69677033
Si      -5.63094535      -0.24522839       8.89875328
Si       4.22995358       2.02441659       0.21632491
Si       2.17527269       0.69096319       0.40402295
Si      -1.46446845       0.48316349       6.95931785
Si      -1.66692086      -3.31073372       9.39028426
Si      -2.67147188       1.09512166       5.31962800
Si       1.17929856      -0.28764882       2.53787274
Si      -2.98342394       3.57760411       5.06367684
Si      -3.45069764      -2.68684687       6.28952595
Si      -0.71635246       6.65966436      -1.08585438
Si       1.05309548       1.38548497       3.88121949
Si       1.03128052       7.63913433      -1.81111323
Si      -0.89904759      -1.25186963       3.28250792
Si       2.76048656      -4.84493384       6.39347703
Si       0.22087001       3.16343878       3.04005057
Si      -2.82529310       2.50900198       6.89231361
Si      -1.41369095       4.46656647       3.42581109
Si      -1.81743175      -2.17520839       7.58832045
22
Lattice="5.573473745753858 -0.7431409265829836 -1.3470061968430762 -2.63722788990314 10.438785011492206 -2.036430884654341 -4.533718837927822 -4.942906424327039 10.757426572045897" Properties=species:S:1:pos:R:3 unique_starting_index=18 config_type=initial n_minim_iter=14 stress="-1.8886586233393154e-07 -8.426986948751595e-07 -6.390717416889446e-06 -8.426986948751595e-07 1.1701733277517444e-05 -4.424964103290433e-06 -6.390717416889446e-06 -4.424964103290433e-06 1.8228288461607552e-06" pbc="T T T"
Si      -0.25942386       9.09076991      -0.95613645
Si      -1.54299161      -1.23040759       5.70375918
Si      -3.77918573      -3.46684083       9.55142597
Si       0.25907609      -2.75499340       8.69657334
Si      -5.63067021      -0.24504770       8.89853376
Si       4.22995887       2.02424605       0.21631419
Si       2.17513994       0.69098373       0.40391074
Si      -1.46428700       0.48315609       6.95926416
Si      -1.66608158      -3.31122344       9.39002767
Si      -2.67141110       1.09503194       5.31956745
Si       1.17949484      -0.28797319       2.53814460
Si      -2.98309776       3.57783062       5.06348696
Si      -3.45043152      -2.68721972       6.28963276
Si      -0.71684114       6.66017685      -1.08590429
Si       1.05305184       1.38554525       3.88121537
Si       1.03085856       7.63953629      -1.81112775
Si      -0.89903658      -1.25198005       3.28253668
Si       2.76105655      -4.84562036       6.39342334
Si       0.22069490       3.16348040       3.03998351
Si      -2.82505441       2.50913485       6.89209539
Si      -1.41365517       4.46674290       3.42548422
Si      -1.81725568      -2.17526407       7.58835882
22
Lattice="5.573273074761881 -0.7433805937104437 -1.346729984789994 -2.637673538555332 10.439205217430388 -2.036625024699168 -4.53287540008054 -4.942947146523347 10.757178432898892" Properties=species:S:1:pos:R:3 unique_starting_index=18 config_type=initial n_minim_iter=15 stress="1.0561191992449362e-05 -2.903161765201475e-06 -1.0914165225072813e-05 -2.903161765201475e-06 1.2889887205137249e-05 4.038792151248295e-07 -1.0914165225072813e-05 4.038792151248295e-07 7.415597209480225e-06" pbc="T T T"
Si      -0.26006205       9.09099560      -0.95641684
Si      -1.54302016      -1.23037756       5.70377605
Si      -3.77820185      -3.46671163       9.55107095
Si       0.25996438      -2.75472210       8.69639429
Si      -5.63026073      -0.24464791       8.89824688
Si       4.23001286       2.02403540       0.21639361
Si       2.17502094       0.69094170       0.40393808
Si      -1.46404407       0.48325534       6.95919669
Si      -1.66500125      -3.31154229       9.38973597
Si      -2.67134548       1.09505345       5.31957991
Si       1.17970621      -0.28823963       2.53844582
Si      -2.98271342       3.57801822       5.06329131
Si      -3.45013016      -2.68743040       6.28964258
Si      -0.71731227       6.66051888      -1.08591920
Si       1.05316079       1.38560114       3.88122025
Si       1.03046852       7.63966590      -1.81112493
Si      -0.89899720      -1.25203707       3.28251458
Si       2.76174906      -4.84611018       6.39342529
Si       0.22071287       3.16337769       3.03997399
Si      -2.82475308       2.50926348       6.89195784
Si      -1.41363660       4.46688009       3.42521176
Si      -1.81704541      -2.17520800       7.58828557
22
Lattice="5.572916229488153 -0.7435990109158539 -1.346274482446549 -2.6381191646479705 10.439444955203832 -2.0369189103102894 -4.531620739742446 -4.942941116027844 10.756726460456283" Properties=species:S:1:pos:R:3 unique_starting_index=18 config_type=initial n_minim_iter=16 stress="-1.2398012627414006e-05 5.315635172826198e-06 -7.471249359068504e-06 5.315635172826198e-06 1.2248698404298397e-05 -6.210300374405156e-06 -7.471249359068504e-06 -6.210300374405156e-06 1.3714213151175068e-06" pbc="T T T"
Si      -0.26071265       9.09104722      -0.95678189
Si      -1.54288878      -1.23029586       5.70360639
Si      -3.77677286      -3.46651622       9.55044595
Si       0.26126445      -2.75441170       8.69615129
Si      -5.62948423      -0.24422394       8.89771406
Si       4.23003085       2.02378099       0.21657986
Si       2.17489034       0.69086689       0.40402575
Si      -1.46367983       0.48340674       6.95897819
Si      -1.66363522      -3.31191787       9.38935562
Si      -2.67103019       1.09495616       5.31949463
Si       1.17994403      -0.28850823       2.53879726
Si      -2.98204872       3.57809561       5.06301995
Si      -3.44965319      -2.68762632       6.28950049
Si      -0.71779686       6.66077001      -1.08596342
Si       1.05331010       1.38560616       3.88119647
Si       1.02997643       7.63968789      -1.81110938
Si      -0.89887852      -1.25209493       3.28242897
Si       2.76251930      -4.84659268       6.39346193
Si       0.22087433       3.16316844       3.03994737
Si      -2.82422291       2.50942134       6.89172120
Si      -1.41339828       4.46694453       3.42488372
Si      -1.81661870      -2.17520633       7.58823561
22
Lattice="5.572822855287274 -0.7437987830160274 -1.3459180870688734 -2.638613799285035 10.439455598726376 -2.037067889546893 -4.530728727976143 -4.94272238635524 10.756403575422796" Properties=species:S:1:pos:R:3 unique_starting_index=18 config_type=initial n_minim_iter=17 stress="-1.868582577176841e-06 6.689638134340393e-06 6.10147955445063e-06 6.689638134340393e-06 -2.8108501253207475e-06 -5.2154292418402895e-06 6.10147955445063e-06 -5.2154292418402895e-06 -5.195496412183089e-07" pbc="T T T"
Si      -0.26124836       9.09097015      -0.95695807
Si      -1.54276314      -1.23014135       5.70352603
Si      -3.77580950      -3.46618521       9.54997856
Si       0.26228864      -2.75414690       8.69607738
Si      -5.62913055      -0.24382278       8.89730769
Si       4.23012761       2.02353924       0.21674367
Si       2.17486956       0.69073793       0.40417323
Si      -1.46340520       0.48356150       6.95888712
Si      -1.66249068      -3.31200156       9.38910703
Si      -2.67084929       1.09497176       5.31944917
Si       1.18013489      -0.28865742       2.53905279
Si      -2.98162503       3.57815556       5.06290479
Si      -3.44935982      -2.68763332       6.28938908
Si      -0.71824384       6.66084526      -1.08591749
Si       1.05346205       1.38554997       3.88124819
Si       1.02960395       7.63958779      -1.81103894
Si      -0.89877673      -1.25207933       3.28236434
Si       2.76321492      -4.84678427       6.39351103
Si       0.22099627       3.16305928       3.03997438
Si      -2.82389958       2.50959614       6.89155813
Si      -1.41322928       4.46692044       3.42471633
Si      -1.81618990      -2.17505949       7.58823563
22
Lattice="5.5728089338243505 -0.7440757266726592 -1.3456730188321862 -2.6392067939841826 10.43960828255441 -2.0371170421920652 -4.530003016582138 -4.942438179529632 10.756229882876875" Properties=species:S:1:pos:R:3 unique_starting_index=18 config_type=initial n_minim_iter=18 stress="5.614136031307146e-06 3.2671678274930394e-06 3.288825940488487e-06 3.2671678274930394e-06 5.042599415628153e-06 -1.2062024494212443e-05 3.288825940488487e-06 -1.2062024494212443e-05 5.113804923697838e-06" pbc="T T T"
Si      -0.26184035       9.09101522      -0.95706576
Si      -1.54272064      -1.22994940       5.70357535
Si      -3.77494565      -3.46576533       9.54961647
Si       0.26326638      -2.75388235       8.69607693
Si      -5.62897281      -0.24333538       8.89705944
Si       4.23022341       2.02328692       0.21684445
Si       2.17488533       0.69059670       0.40426789
Si      -1.46328339       0.48378968       6.95891309
Si      -1.66159948      -3.31209460       9.38902838
Si      -2.67082585       1.09512671       5.31949885
Si       1.18025712      -0.28879020       2.53927789
Si      -2.98140344       3.57831144       5.06285329
Si      -3.44916010      -2.68758173       6.28940679
Si      -0.71878034       6.66100810      -1.08578565
Si       1.05362994       1.38551405       3.88135330
Si       1.02920274       7.63960544      -1.81093405