8
Lattice="6.63343850573203 -0.012551165724785254 -0.017965784335086665 -3.2483283930416236 5.783686245989585 0.017965784335084965 -3.2483287579523066 -1.9730147724147586 5.436778430154148" Properties=species:S:1:pos:R:3 unique_starting_index=16 config_type=initial n_minim_iter=1 energy=-1301.4315820171641 free_energy=-1301.4315820171641 pbc="T T T"
Si      -1.73715496       1.01894499       3.32127649
Si       3.36971687       1.90181495       0.85961481
Si       1.87393667       1.03017687       3.33735449
Si      -3.23293500       3.64530908       3.35532027
Si       1.87393675       2.77917796       2.11550654
Si      -3.23293508       1.89630799       4.57716822
Si       3.36971679       0.15281386       2.08146276
Si      -1.73715488       2.76794608       2.09942855
8
Lattice="6.636404148439877 -0.007435981160237553 -0.010643708264794537 -3.2453110947846073 5.788771131536788 0.010643708264792858 -3.245311460340244 -1.9816393033208586 5.439033719392602" Properties=species:S:1:pos:R:3 unique_starting_index=16 config_type=initial n_minim_iter=2 stress="-0.002374318562043082 0.0057915942351552995 0.008290314545862898 0.0057915942351552995 0.004102421765688828 -0.004862757016822034 0.008290314545862898 -0.004862757016822034 0.0005387917589281601" pbc="T T T"
Si      -1.73549833       1.01797328       3.32218261
Si       3.37245663       1.90706264       0.86482950
Si       1.88128029       1.03056729       3.34021042
Si      -3.22667450       3.64379376       3.35085413
Si       1.88128037       2.78172521       2.11685572
Si      -3.22667459       1.89263585       4.57420882
Si       3.37245654       0.15590473       2.08818420
Si      -1.73549824       2.76913119       2.09882791
8
Lattice="6.665808120311692 -0.02546904182269398 -0.03645693681100077 -3.275401019265181 5.80563473979385 0.03645693681099904 -3.275401384746872 -1.9632038911573308 5.463748889516174" Properties=species:S:1:pos:R:3 unique_starting_index=16 config_type=initial n_minim_iter=3 stress="-0.0038370425037597376 0.0007465099121377302 0.0010685834904763586 0.0007465099121377302 -0.003002220405270402 -0.0006267870582739788 0.0010685834904763586 -0.0006267870582739788 -0.003461555955245193" pbc="T T T"
Si      -1.77009244       1.03826476       3.34366541
Si       3.37346482       1.90568537       0.87042124
Si       1.88509850       1.03464327       3.33848172
Si      -3.25845860       3.65533551       3.37493866
Si       1.88509858       2.77869970       2.12008810
Si      -3.25845868       1.91127909       4.59333227
Si       3.37346474       0.16162894       2.08881486
Si      -1.77009236       2.78232119       2.12527180
8
Lattice="6.67283278383816 -0.027179483034086425 -0.038905328993961784 -3.2803222364831477 5.810931260150774 0.03890532899396027 -3.280322602191589 -1.9627272447720527 5.46956443404481" Properties=species:S:1:pos:R:3 unique_starting_index=16 config_type=initial n_minim_iter=4 stress="0.0016613051839285326 0.0001739053042402591 0.00024893485537907576 0.0001739053042402591 0.0018557835005134234 -0.00014601493200795017 0.00024893485537907576 -0.00014601493200795017 0.001748777702909163" pbc="T T T"
Si      -1.77375082       1.04041062       3.34800252
Si       3.37579402       1.90672909       0.87064982
Si       1.88593911       1.03537195       3.34079023
Si      -3.26360557       3.65954271       3.37969556
Si       1.88593919       2.78061657       2.12156654
Si      -3.26360566       1.91429809       4.59891924
Si       3.37579394       0.16148448       2.08987351
Si      -1.77375074       2.78565523       2.12877884
8
Lattice="6.679059351416952 -0.03899422396531578 -0.05581741227331593 -3.2936732081993148 5.810599897329267 0.055817412273314417 -3.293673573139753 -1.9467336222937588 5.475071921920077" Properties=species:S:1:pos:R:3 unique_starting_index=16 config_type=initial n_minim_iter=5 stress="0.0005546139439630878 4.89886207871564e-05 7.01242281485794e-05 4.89886207871564e-05 0.0006093979227796477 -4.1131983669888135e-05 7.01242281485794e-05 -4.1131983669888135e-05 0.0005792546993488712" pbc="T T T"
Si      -1.78769493       1.04858966       3.35998516
Si       3.36785123       1.90322551       0.86535981
Si       1.87940783       1.03078237       3.33449536
Si      -3.27613817       3.66715188       3.39031277
Si       1.87940791       2.77628505       2.11509139
Si      -3.27613825       1.92164920       4.60971674
Si       3.36785115       0.15772283       2.08476378
Si      -1.78769485       2.79409234       2.14058119
8
Lattice="6.679220015558246 -0.045448642550441995 -0.06505652025252562 -3.2993851776437357 5.807590123699188 0.06505652025252405 -3.29938554198575 -1.9370230370389623 5.475424617825238" Properties=species:S:1:pos:R:3 unique_starting_index=16 config_type=initial n_minim_iter=6 stress="1.0815216955514674e-05 8.303460509067244e-05 0.00011885898190362485 8.303460509067244e-05 0.00010367282292362801 -6.971778273177406e-05 0.00011885898190362485 -6.971778273177406e-05 5.2580740449415305e-05" pbc="T T T"
Si      -1.79314079       1.05178397       3.36549447
Si       3.36179826       1.90041575       0.86040097
Si       1.87359040       1.02695480       3.32995327
Si      -3.28134849       3.67108768       3.39500979
Si       1.87359048       2.77333713       2.10993478
Si      -3.28134857       1.92470535       4.61502828
Si       3.36179818       0.15403342       2.08041946
Si      -1.79314071       2.79816630       2.14547598
