22
Lattice="5.431107313834684 -0.735681435800237 -1.3821831566401725 -2.4776102923252505 10.498614446558909 -1.8070446690590727 -4.482724765143316 -4.796945952056091 10.719666435289998" Properties=species:S:1:pos:R:3 unique_starting_index=18 config_type=initial n_minim_iter=1 energy=-3580.3905015031364 free_energy=-3580.3905015031364 pbc="T T T"
Si       0.20939136       8.93199182      -0.66773628
Si      -0.88961987      -0.64887626       5.48585542
Si      -4.03071339      -3.19976359       9.55835342
Si      -0.02166308      -2.39312479       8.69606163
Si      -5.36317823       0.25019759       8.96514849
Si       3.86663906       2.00917118       0.03270754
Si       2.17467788       0.28364940       0.04001508
Si      -1.82826026       0.76484154       7.78531828
Si      -1.95540109      -3.18723711       9.13656772
Si      -2.50138858       1.22043576       5.79143946
Si       1.41679377      -0.48610919       2.81285809
Si      -2.97941251       3.55779958       5.06981572
Si      -2.97858857      -1.95811525       6.13130674
Si      -0.80264301       6.84102600      -0.62221694
Si       1.00350696       1.31846324       4.10560250
Si       1.04840727       7.21837508      -1.61534301
Si      -0.70674420      -1.29888526       3.22545624
Si       2.36368233      -4.51032115       6.02659923
Si       0.19018444       2.65597548       2.63665136
Si      -2.78363083       2.89013372       7.07387879
Si      -1.40493139       4.15179938       3.30976586
Si      -1.77850321      -1.50889143       7.81765697
22
Lattice="5.430683681102151 -0.7318920571853105 -1.374225442584674 -2.477422164593744 10.468605466925608 -1.8094713271965197 -4.472029393752022 -4.785664173497569 10.705748084480557" Properties=species:S:1:pos:R:3 unique_starting_index=18 config_type=initial n_minim_iter=2 stress="-0.006464207687628142 -0.0004979825530167036 -0.0008749902483518232 -0.0004979825530167036 -0.004157703046799002 -0.0032557544519707525 -0.0008749902483518232 -0.0032557544519707525 -0.005720043663172885" pbc="T T T"
Si       0.21142729       8.90693651      -0.66780076
Si      -0.88337387      -0.64785064       5.48054894
Si      -4.02149534      -3.19270189       9.54596723
Si      -0.01119978      -2.38738778       8.68932404
Si      -5.35315602       0.24731203       8.95094794
Si       3.86858931       2.00462228       0.03733812
Si       2.17549752       0.28377259       0.04247382
Si      -1.81878247       0.76137928       7.77671142
Si      -1.94524776      -3.17971648       9.12684944
Si      -2.49446931       1.21617526       5.78358994
Si       1.42050514      -0.48449029       2.81232230
Si      -2.97324784       3.54628544       5.06155261
Si      -2.97283805      -1.95429634       6.12204521
Si      -0.80132021       6.82186286      -0.62322728
Si       1.00948272       1.31528916       4.10290661
Si       1.04849583       7.19885728      -1.61312543
Si      -0.70321183      -1.29563221       3.22192529
Si       2.37073698      -4.49733902       6.02534463
Si       0.19419582       2.64830499       2.63480938
Si      -2.77484403       2.88036029       7.06453164
Si      -1.39986176       4.13951440       3.30511378
Si      -1.76953634      -1.50582610       7.81004833
22
Lattice="5.439455223195206 -0.7308615218201461 -1.3708103215367413 -2.4806361691487013 10.459990534455807 -1.8051543971314716 -4.47135556201758 -4.77532679434251 10.70843188760147" Properties=species:S:1:pos:R:3 unique_starting_index=18 config_type=initial n_minim_iter=3 stress="0.015762259160768118 -0.00017525738191205074 0.004620299704203488 -0.00017525738191205074 0.0031896704541952764 0.002759351649950719 0.004620299704203488 0.002759351649950719 0.00992035654046537" pbc="T T T"
Si       0.21401297       8.90137254      -0.66095491
Si      -0.88013086      -0.64346449       5.48530332
Si      -4.02190995      -3.18417674       9.54951370
Si      -0.00252182      -2.37931085       8.69675491
Si      -5.35365635       0.25271617       8.95430111
Si       3.87720822       2.00448454       0.04282873
Si       2.17984520       0.28453590       0.04498701
Si      -1.81412216       0.76635853       7.78369880
Si      -1.94025339      -3.17099155       9.13122222
Si      -2.49276830       1.21921232       5.78751702
Si       1.42577380      -0.48133379       2.81610050
Si      -2.97333266       3.54718840       5.06608656
Si      -2.97385670      -1.94963256       6.12251349
Si      -0.80080865       6.81778831      -0.61864866
Si       1.01601027       1.31909481       4.10822599
Si       1.05083210       7.19350137      -1.60784994
Si      -0.70152301      -1.29226704       3.22316713
Si       2.38040981      -4.48863592       6.03104790
Si       0.19767147       2.64879760       2.64045343
Si      -2.77258425       2.88379189       7.07265265
Si      -1.39768755       4.13937005       3.31083285
Si      -1.76554088      -1.49898759       7.81652613
22
Lattice="5.428283392418939 -0.7287253483941636 -1.3731120856336017 -2.4685779961319225 10.452756303789759 -1.7931837504482067 -4.470320548580621 -4.766682707772377 10.696930506190212" Properties=species:S:1:pos:R:3 unique_starting_index=18 config_type=initial n_minim_iter=4 stress="-0.0031296171096238915 -0.001912678356743113 0.003693271335493091 -0.001912678356743113 -0.00012205820242819407 0.012512410852369397 0.003693271335493091 0.012512410852369397 0.005382855771008707" pbc="T T T"
Si       0.21876235       8.89854915      -0.65276305
Si      -0.88268483      -0.63979486       5.48160855
Si      -4.02267200      -3.17713954       9.54077189
Si      -0.00666590      -2.37246140       8.68795415
Si      -5.34551967       0.25660924       8.94693310
Si       3.87170919       2.00516991       0.04182715
Si       2.17540228       0.28587247       0.04472209
Si      -1.81380904       0.77043920       7.77839202
Si      -1.94217738      -3.16327653       9.11965032
Si      -2.48992479       1.22199805       5.78280609
Si       1.42062432      -0.47770597       2.81182145
Si      -2.96928174       3.54797415       5.06439930
Si      -2.97347718      -1.94678519       6.11437971
Si      -0.79355096       6.81635209      -0.61072464
Si       1.01317305       1.32454105       4.10217487
Si       1.05267743       7.18935780      -1.60116447
Si      -0.70188897      -1.28897513       3.21846073
Si       2.37137479      -4.47948921       6.02302984
Si       0.19584903       2.64968865       2.64150149
Si      -2.77031576       2.88778479       7.07302998
Si      -1.39355734       4.13992827       3.31286799
Si      -1.76720885      -1.49234828       7.81136751
22
Lattice="5.429443581620293 -0.7213298830981352 -1.3755291172898205 -2.4575143499917846 10.45422453433747 -1.8077459498574044 -4.485703171224151 -4.790505854501378 10.697341306843981" Properties=species:S:1:pos:R:3 unique_starting_index=18 config_type=initial n_minim_iter=5 stress="0.0018156901130845936 0.004446425365721976 -0.0018452993066356213 0.004446425365721976 -0.0005898087681247111 0.0009102829173316838 -0.0018452993066356213 0.0009102829173316838 0.003975695859102036" pbc="T T T"
Si       0.22740052       8.90157316      -0.66845611
Si      -0.88995579      -0.65147227       5.47853247
Si      -4.03744591      -3.19872808       9.53970294
Si      -0.01560408      -2.38987760       8.68318967
Si      -5.35317660       0.23505669       8.93905720
Si       3.87531111       2.00800486       0.03356460
Si       2.17576412       0.28779649       0.04294957
Si      -1.82080403       0.75332356       7.76969115
Si      -1.95386039      -3.18227191       9.11520125
Si      -2.49443530       1.20940878       5.77494085
Si       1.41715427      -0.48134440       2.80739566
Si      -2.97234151       3.53619965       5.05316528
Si      -2.98282939      -1.96220939       6.11156990
Si      -0.78563630       6.81897161      -0.62074013
Si       1.01026384       1.31946387       4.09119360
Si       1.06024083       7.19321519      -1.61391665
Si      -0.70574235      -1.29516503       3.21663853
Si       2.36315032      -4.48776835       6.02418384
Si       0.19412998       2.64491859       2.63451814
Si      -2.77633665       2.87250785       7.06415124
Si      -1.39257144       4.13299351       3.30349074
Si      -1.77717117      -1.50774255       7.80820299
22
Lattice="5.430654223318032 -0.7286988047039122 -1.3697772245314481 -2.474519029509277 10.467659402129792 -1.8160524682565153 -4.473819302965037 -4.797762692129263 10.68164264039696" Properties=species:S:1:pos:R:3 unique_starting_index=18 config_type=initial n_minim_iter=6 stress="0.002541595827425637 -0.004264692961328487 -0.0006936364099152017 -0.004264692961328487 0.0006843926864331988 0.0009168997534341872 -0.0006936364099152017 0.0009168997534341872 -0.002862380783018636" pbc="T T T"
Si       0.21336856       8.91047674      -0.67551853
Si      -0.88756439      -0.65678585       5.47084242
Si      -4.02859922      -3.20518575       9.52471262
Si      -0.00635467      -2.40083262       8.67214309
Si      -5.34921557       0.23419704       8.91951637
Si       3.87412199       2.00303173       0.03263760
Si       2.17578472       0.28537345       0.04393067
Si      -1.81810737       0.74785290       7.75511095
Si      -1.94526926      -3.19148645       9.10282143
Si      -2.49272477       1.20887500       5.76201040
Si       1.41913530      -0.48632489       2.80321094
Si      -2.97603051       3.53866250       5.03897840
Si      -2.97795581      -1.96648013       6.10036626
Si      -0.79536493       6.82734214      -0.62596145
Si       1.00951341       1.31603191       4.08127932
Si       1.04849926       7.19794739      -1.61832240
Si      -0.70168156      -1.29782416       3.21102091
Si       2.37424442      -4.50016018       6.02086823
Si       0.19010198       2.64428525       2.62868406
Si      -2.77894330       2.87203388       7.04863772
Si      -1.39666775       4.13532389       3.29403254
Si      -1.77141194      -1.51262561       7.79624853
22
Lattice="5.422915460034747 -0.7234314425390748 -1.3639365095465674 -2.465126207362558 10.473610661796448 -1.8285573358766114 -4.461720154649027 -4.81372979735831 10.685567203647672" Properties=species:S:1:pos:R:3 unique_starting_index=18 config_type=initial n_minim_iter=7 stress="-0.00444998795946854 -0.00013821459095705578 0.004561589776249562 -0.00013821459095705578 0.0039877761606372025 -0.0019466156839662433 0.004561589776249562 -0.0019466156839662433 0.002581104168477556" pbc="T T T"
Si       0.21958375       8.91891380      -0.68310952
Si      -0.88310114      -0.66398709       5.47469939
Si      -4.01582169      -3.22029714       9.52707704
Si       0.00231217      -2.41030796       8.67943496
Si      -5.33334425       0.22161995       8.91576120
Si       3.87346594       2.00654671       0.03406351
Si       2.17393154       0.28827219       0.04639157
Si      -1.80698906       0.73820028       7.75611023
Si      -1.93697608      -3.20367057       9.11004508
Si      -2.48292003       1.20377457       5.75950715
Si       1.41972931      -0.48757038       2.80535065
Si      -2.96413345       3.53497970       5.03437327
Si      -2.97047089      -1.97730219       6.10035500
Si      -0.78872185       6.83265519      -0.63204751
Si       1.01321748       1.31370631       4.08058564
Si       1.05156154       7.20408683      -1.62494187
Si      -0.69770306      -1.30147587       3.21117738
Si       2.37484072      -4.50617720       6.03010548
Si       0.19307385       2.64432344       2.62917228
Si      -2.76811756       2.86555625       7.04594455
Si      -1.38720978       4.13424297       3.29157748
Si      -1.76234006      -1.52041667       7.79959718
22
Lattice="5.429063417638049 -0.7186312932029824 -1.368668567200636 -2.4571699458227827 10.45870785128571 -1.8209886446110735 -4.481112766942415 -4.808174682025443 10.679708055884515" Properties=species:S:1:pos:R:3 unique_starting_index=18 config_type=initial n_minim_iter=8 stress="0.0012597269683176974 0.0037544877759073565 -0.0002687728022030108 0.0037544877759073565 0.0027921167940414306 0.0033716604817376713 -0.0002687728022030108 0.0033716604817376713 -0.008764563102591744" pbc="T T T"
Si       0.22740006       8.91146421      -0.67964781
Si      -0.89295331      -0.66413213       5.47359902
Si      -4.03127819      -3.21925402       9.52208914
Si      -0.00740625      -2.40458219       8.67342073
Si      -5.34708344       0.21954558       8.91213869
Si       3.88116507       2.00595404       0.02933602
Si       2.17640649       0.29104728       0.04487543
Si      -1.81596406       0.73580220       7.75212388
Si      -1.95077814      -3.19847583       9.10701413
Si      -2.49055786       1.20387485       5.75568187
Si       1.41702236      -0.48445579       2.79982649
Si      -2.96870205       3.53118032       5.03488362
Si      -2.98126744      -1.97786726       6.09717374
Si      -0.78299424       6.82469326      -0.62703440
Si       1.01041371       1.31349321       4.07327945
Si       1.06048313       7.19555570      -1.62349586
Si      -0.70144171      -1.29869075       3.20640454
Si       2.36747162      -4.49720151       6.02083267
Si       0.19005900       2.64321283       2.62991643
Si      -2.77903810       2.86333008       7.04249133
Si      -1.38712082       4.12999698       3.29356807
Si      -1.77338333      -1.51646520       7.79497422
22
Lattice="5.434420546184287 -0.7212787770663079 -1.3835140395931778 -2.470126378183829 10.414071489023117 -1.8378375506015998 -4.4962643964025935 -4.793401514980744 10.73563026650733" Properties=species:S:1:pos:R:3 unique_starting_index=18 config_type=initial n_minim_iter=9 stress="-0.0034411856670928226 -0.00037590362315958694 -0.0034650680689577947 -0.00037590362315958694 -0.002135793222918008 -0.0017643895707491713 -0.0034650680689577947 -0.0017643895707491713 0.00027207510178991096" pbc="T T T"
Si       0.21499533       8.87496485      -0.69546432
Si      -0.90967823      -0.67229050       5.50332538
Si      -4.04404447      -3.21773732       9.57010885
Si      -0.01910911      -2.40463837       8.71388040
Si      -5.36622077       0.21281352       8.95265056
Si       3.88441425       1.98714908       0.01611193
Si       2.17636182       0.28780015       0.04411034
Si      -1.83248212       0.71772777       7.78452330
Si      -1.96306516      -3.19031631       9.15501127
Si      -2.50460359       1.19638410       5.77536827
Si       1.41075642      -0.48717367       2.80439716
Si      -2.98427316       3.51285077       5.05589236
Si      -2.99008173      -1.97814465       6.12888807
Si      -0.79158549       6.79459844      -0.63492849
Si       1.00067342       1.29829109       4.07738880
Si       1.05336171       7.16136015      -1.64394811
Si      -0.70283793      -1.29414607       3.21601785
Si       2.36340769      -4.48816443       6.04412578
Si       0.17503276       2.62927552       2.64090607
Si      -2.80577938       2.84675625       7.06768812
Si      -1.39663338       4.10881379       3.30749162
Si      -1.78626100      -1.51599957       7.83085832
22
Lattice="5.4413456058389125 -0.7196305313105302 -1.3771482940892672 -2.48128851668338 10.37502286707094 -1.8526973300970053 -4.489489230159167 -4.784269165801712 10.736201224837513" Properties=species:S:1:pos:R:3 unique_starting_index=18 config_type=initial n_minim_iter=10 stress="-0.0033089145193215498 0.0010557997030430733 -0.0020192497107144962 0.0010557997030430733 -0.0013419405439354614 4.1366982648958856e-05 -0.0020192497107144962 4.1366982648958856e-05 -0.006207082016733011" pbc="T T T"
Si       0.21094597       8.84574566      -0.70772405
Si      -0.91601780      -0.68400150       5.51246584
Si      -4.03432442      -3.22415024       9.56865767
Si      -0.00763101      -2.40373116       8.72191315
Si      -5.36348148       0.20325371       8.94184902
Si       3.89680912       1.97237187       0.01420606
Si       2.17876511       0.28771444       0.05249561
Si      -1.82838567       0.69708131       7.78086702
Si      -1.95573915      -3.18156521       9.15806690
Si      -2.50135535       1.18639611       5.76169452
Si       1.41280169      -0.48779380       2.79940460
Si      -2.98265857       3.49846360       5.05124831
Si      -2.98274925      -1.98425126       6.13169654
Si      -0.79353318       6.76921596      -0.64166355
Si       1.00427785       1.28209533       4.06686236
Si       1.04557155       7.13651891      -1.65188190
Si      -0.69497676      -1.28954425       3.20795166
Si       2.37698239      -4.47874290       6.05144431
Si       0.16887263       2.62188081       2.64666673
Si      -2.81772397       2.83731573       7.05804368
Si      -1.39141632       4.09149312       3.30856547
Si      -1.78084430      -1.51882599       7.83014924
22
Lattice="5.469516463832975 -0.7291055424764258 -1.3696827960361757 -2.5340633661322816 10.29332830208547 -1.884359784148375 -4.475321716117805 -4.747115452171708 10.772676440819676" Properties=species:S:1:pos:R:3 unique_starting_index=18 config_type=initial n_minim_iter=11 stress="-0.0008921581774947898 -0.000984470444791246 -0.001154562274917047 -0.000984470444791246 -0.007625923992568229 -0.003009889809120087 -0.001154562274917047 -0.003009889809120087 -0.004091532765946868" pbc="T T T"
Si       0.18084279       8.78420875      -0.72781733
Si      -0.93433472      -0.70769835       5.55038655
Si      -4.02581860      -3.22137590       9.60060525
Si       0.02029635      -2.39421347       8.76058384
Si      -5.37050287       0.19479800       8.95050337
Si       3.92389257       1.93070381       0.01260710
Si       2.18839599       0.29261351       0.06235830
Si      -1.83228091       0.66120771       7.79544762
Si      -1.94008887      -3.16150695       9.19173267
Si      -2.50961456       1.18305478       5.76305219
Si       1.41994875      -0.49113869       2.79271790
Si      -2.99799078       3.48050401       5.05110598
Si      -2.96306180      -1.98828905       6.16697214
Si      -0.81352267       6.71527321      -0.65364697
Si       1.02426991       1.24153073       4.06269968
Si       1.01460455       7.07497920      -1.67324491
Si      -0.67668946      -1.27571396       3.20094234
Si       2.42427315      -4.45741666       6.09066338
Si       0.15328950       2.61365764       2.67404861
Si      -2.85847449       2.81659404       7.06929482
Si      -1.39013316       4.05986551       3.32803821
Si      -1.76790833      -1.51766281       7.84988436
22
Lattice="5.470197241967176 -0.7158590087911791 -1.370772745481926 -2.5165563563094557 10.272743237753057 -1.9054327044938377 -4.48359772541924 -4.763044789496304 10.805269490824221" Properties=species:S:1:pos:R:3 unique_starting_index=18 config_type=initial n_minim_iter=12 stress="0.0016107340842968748 -0.0022238301225570188 0.001823811460452359 -0.0022238301225570188 -0.004531088234701238 -0.0005856991561197708 0.001823811460452359 -0.0005856991561197708 0.006403550213899509" pbc="T T T"
Si       0.19905366       8.78545581      -0.74161386
Si      -0.96195510      -0.74124810       5.58046855
Si      -4.03028029      -3.25271667       9.63071397
Si       0.01650127      -2.39875072       8.78153110
Si      -5.36502018       0.16439734       8.96414455
Si       3.93828603       1.92310597       0.00528443
Si       2.18671300       0.31049069       0.07195480
Si      -1.84304561       0.62701104       7.80155665
Si      -1.94804990      -3.16929176       9.21705029
Si      -2.49616261       1.17393188       5.77587012
Si       1.41325502      -0.48969991       2.77711127
Si      -2.99477282       3.46967600       5.06011354
Si      -2.95748517      -2.02232991       6.18988703
Si      -0.79872032       6.70047379      -0.66079804
Si       1.03336745       1.22884870       4.04953270
Si       1.02373322       7.07095680      -1.69355538
Si      -0.66929230      -1.27402813       3.19474113
Si       2.42615898      -4.45379841       6.12065218
Si       0.14945029       2.62716832       2.70393005
Si      -2.88177401       2.80311913       7.07251284
Si      -1.36336313       4.05272892       3.34944557
Si      -1.75198617      -1.52966638       7.87554266
22
Lattice="5.461842564322623 -0.6979145164378181 -1.369881220117487 -2.488306160863962 10.267118535153598 -1.9415444767988512 -4.486964139558099 -4.803874564664482 10.842040692942318" Properties=species:S:1:pos:R:3 unique_starting_index=18 config_type=initial n_minim_iter=13 stress="0.0052838773407794665 0.0010390607310949316 0.00305104939327263 0.0010390607310949316 -0.002959439308797708 -0.0010768119352299317 0.00305104939327263 -0.0010768119352299317 0.016330927407480485" pbc="T T T"
Si       0.22406788       8.79752883      -0.76858013
Si      -0.98790930      -0.78534576       5.60920518
Si      -4.03057187      -3.30266238       9.66375529
Si       0.01169783      -2.42146582       8.80360989
Si      -5.34470541       0.12319046       8.97565967
Si       3.94675954       1.92076524      -0.00584505
Si       2.18199133       0.33247090       0.07855213
Si      -1.85075192       0.58236489       7.80396920
Si      -1.94980356      -3.19737432       9.25367278
Si      -2.47438630       1.15222559       5.78522156
Si       1.40479734      -0.49139446       2.76085142
Si      -2.98805652       3.45211237       5.06046077
Si      -2.94663773      -2.06858221       6.21525186
Si      -0.77893264       6.69242701      -0.67960424
Si       1.04422517       1.21729751       4.03256238
Si       1.03540708       7.08146521      -1.72288251
Si      -0.66218823      -1.27934837       3.19100577
Si       2.41935418      -4.46561322       6.15309934
Si       0.14683702       2.64151903       2.72929895
Si      -2.89754771       2.78286894       7.07503272
Si      -1.33003307       4.04500259       3.36400927
Si      -1.73901089      -1.55834978       7.89912374
22
Lattice="5.450725397834971 -0.695923046189388 -1.3528579529651987 -2.4805564717707815 10.334424847853859 -1.9597160858257725 -4.460302391178065 -4.855204950329654 10.812956024061073" Properties=species:S:1:pos:R:3 unique_starting_index=18 config_type=initial n_minim_iter=14 stress="0.007467874127258546 0.004510594702794623 0.006627341530553671 0.004510594702794623 0.007302790844067296 -0.0028659940991100706 0.006627341530553671 -0.0028659940991100706 0.011092966242054176" pbc="T T T"
Si       0.23117990       8.86261731      -0.78000605
Si      -0.98854312      -0.81526308       5.59945258
Si      -4.00785980      -3.34486788       9.63884732
Si       0.02973203      -2.45382618       8.78225716
Si      -5.31006786       0.10735168       8.93831445
Si       3.94711685       1.93110284      -0.00286384
Si       2.17684512       0.34466643       0.08686472
Si      -1.83946661       0.56745077       7.77146814
Si      -1.92453036      -3.22833646       9.23484805
Si      -2.45137135       1.15200419       5.76885762
Si       1.40619073      -0.49500303       2.74357620
Si      -2.97558441       3.46665193       5.03587021
Si      -2.92475832      -2.10357318       6.19765715
Si      -0.77433746       6.73155882      -0.69043353
Si       1.06108574       1.21990239       4.01192253
Si       1.03434460       7.13455222      -1.73059819
Si      -0.65228123      -1.29106336       3.17924650
Si       2.42659220      -4.50675399       6.15219699
Si       0.15211912       2.66726138       2.73126956
Si      -2.88787119       2.78931184       7.04152528
Si      -1.30743357       4.07101834       3.35775256
Si      -1.71372580      -1.58846778       7.88149342
22
Lattice="5.436535564973907 -0.7055993894170545 -1.3601387973882777 -2.477843291455905 10.421353143737248 -1.9567797530679796 -4.463954801032036 -4.896605382858609 10.797504463103861" Properties=species:S:1:pos:R:3 unique_starting_index=18 config_type=initial n_minim_iter=15 stress="0.0029356999361575035 -0.0023677602666818034 -0.0010683749672425432 -0.0023677602666818034 0.014636549272525385 0.0015768379612566288 -0.0010683749672425432 0.0015768379612566288 0.009184626563024578" pbc="T T T"
Si       0.23053862       8.93783177      -0.78758503
Si      -1.02024322      -0.85588929       5.58898695
Si      -4.01237643      -3.36601892       9.63019714
Si       0.02257753      -2.49429241       8.74884836
Si      -5.30406924       0.11353267       8.92554670
Si       3.94187987       1.93560985      -0.01039866
Si       2.16378129       0.36274134       0.08462596
Si      -1.87036203       0.56192072       7.73960833
Si      -1.93759305      -3.25199715       9.22677019
Si      -2.44314442       1.15957612       5.77316829
Si       1.39454771      -0.49228086       2.70567036
Si      -2.99034023       3.50538044       5.01712064
Si      -2.91606050      -2.13421593       6.18710757
Si      -0.78530794       6.77226858      -0.69280295
Si       1.05698234       1.22925678       3.97739302
Si       1.02578577       7.20904131      -1.73402745
Si      -0.65555151      -1.30124987       3.17397448
Si       2.40830500      -4.56457076       6.13866266
Si       0.15202464       2.70078868       2.74093002
Si      -2.91304787       2.81089608       7.02912317
Si      -1.30625168       4.12482099       3.37561123
Si      -1.70804899      -1.61412740       7.86930340
22
Lattice="5.438608308448952 -0.7099256051031427 -1.3552737112774922 -2.491688798503057 10.421950707292275 -1.9685653850481506 -4.452942784305865 -4.900517190197295 10.796833136748411" Properties=species:S:1:pos:R:3 unique_starting_index=18 config_type=initial n_minim_iter=16 stress="0.004760545676813713 -0.003524308808810315 0.0034972523563179905 -0.003524308808810315 0.009547307255248485 -0.00033848517860715323 0.0034972523563179905 -0.00033848517860715323 0.00962222820864505" pbc="T T T"
Si       0.22285695       8.94722427      -0.79835899
Si      -1.04083048      -0.89043563       5.59431104
Si      -4.00764437      -3.37066374       9.63346326
Si       0.04169021      -2.51520777       8.74656458
Si      -5.29530384       0.10778886       8.91207089
Si       3.95813540       1.92241241      -0.00760724
Si       2.15955344       0.37302702       0.09354487
Si      -1.87826527       0.53573899       7.73279992
Si      -1.92759947      -3.25369686       9.23186413
Si      -2.43618342       1.16048734       5.76660462
Si       1.39416094      -0.48477902       2.68150410
Si      -2.99740720       3.51212437       5.01012757
Si      -2.89906583      -2.15204273       6.18959621
Si      -0.79474342       6.76830845      -0.69693446
Si       1.06733515       1.21828563       3.95405884
Si       1.01177277       7.21529498      -1.74051669
Si      -0.64919621      -1.30030113       3.17073803
Si       2.41999381      -4.58296149       6.14962108
Si       0.14662465       2.71599965       2.75643175
Si      -2.93228052       2.81310749       7.01466383
Si      -1.29572991       4.13708401       3.39433459
Si      -1.69500503      -1.61676648       7.86246610
22
Lattice="5.448331687583389 -0.7206589448760443 -1.358084341952286 -2.5173906215607085 10.397374176134198 -1.9611943332927264 -4.454545756600638 -4.872086323154965 10.79148437336102" Properties=species:S:1:pos:R:3 unique_starting_index=18 config_type=initial n_minim_iter=17 stress="0.007479803474587933 -0.0011432705248673603 0.0033549906094919807 -0.0011432705248673603 0.0003709324023225111 -0.0004357441044524797 0.0033549906094919807 -0.0004357441044524797 0.008155672599115218" pbc="T T T"
Si       0.20366609       8.93705597      -0.79605977
Si      -1.06724335      -0.91471054       5.59698148
Si      -4.00667651      -3.35185232       9.63177845
Si       0.04174825      -2.51325026       8.73918443
Si      -5.29653871       0.12417356       8.90166451
Si       3.97613318       1.90066870      -0.00936411
Si       2.15608123       0.37789849       0.10213341
Si      -1.89604255       0.51575224       7.73305835
Si      -1.92719225      -3.22914031       9.22980010
Si      -2.44376219       1.17382597       5.76032460
Si       1.39230448      -0.47126884       2.65281621
Si      -3.01601005       3.52568323       5.00517102
Si      -2.89354420      -2.15435862       6.18928995
Si      -0.80933698       6.74921349      -0.69219896
Si       1.06931560       1.20615010       3.93016444
Si       0.99029627       7.19685798      -1.73616733
Si      -0.64661747      -1.29113934       3.16829422
Si       2.43153576      -4.58499588       6.15114337
Si       0.13671169       2.72741237       2.77301673
Si      -2.96310774       2.81644107       7.00799286
Si      -1.29743676       4.14932056       3.42184781
Si      -1.69578012      -1.60642836       7.85780897
22
Lattice="5.456957714369147 -0.7328895302642037 -1.3580293755805668 -2.5366635448303008 10.434505960336589 -1.9482546726183199 -4.459184915498163 -4.874212724884707 10.759490068069434" Properties=species:S:1:pos:R:3 unique_starting_index=18 config_type=initial n_minim_iter=18 stress="0.005292379280733764 -0.0036034277042105703 0.0010519213822055731 -0.0036034277042105703 0.004279274695426892 0.0005441330990977881 0.0010519213822055731 0.0005441330990977881 0.0009395766645232211" pbc="T T T"
Si       0.19023497       8.96597052      -0.79513555
Si      -1.07496310      -0.92687443       5.57641600
Si      -4.01157034      -3.34764554       9.60452727
Si       0.03568669      -2.52045059       8.70827107
Si      -5.30724080       0.13699175       8.87521460
Si       3.98522963       1.89970129      -0.00857319
Si       2.15454177       0.37697504       0.10491052
Si      -1.90640822       0.51608195       7.72018197
Si      -1.92432110      -3.23190541       9.20527701
Si      -2.45780573       1.19026638       5.73997047
Si       1.39391427      -0.46484471       2.62896849
Si      -3.03202968       3.55097138       4.99089913
Si      -2.90001546      -2.16050704       6.17032339
Si      -0.82272933       6.77363165      -0.68718921
Si       1.06983598       1.20980222       3.91356487
Si       0.97357410       7.22445743      -1.72143524
Si      -0.64989828      -1.29281415       3.16732687
Si       2.43685689      -4.60869688       6.13442262