16
Lattice="8.919489364190012 1.1407196145436056 -0.5650911999112317 2.238631713369161 6.835226044544 -0.4796514674394863 0.8689428394612223 0.9600007537751686 6.435656178167203" Properties=species:S:1:pos:R:3 unique_starting_index=30 config_type=initial n_minim_iter=1 energy=-2606.7224301044994 free_energy=-2606.7224301044994 pbc="T T T"
Si       6.25328775       6.57612716       2.05905781
Si       5.77377617       2.35981925       3.33185570
Si       4.42100897       3.47240136       2.06034204
Si       7.60605495       5.46354506       3.33057147
Si       6.68822161       3.91307669       4.49016183
Si       5.33884230       5.02286973       0.90075168
Si       6.38531024       4.72485942      -0.91983598
Si       5.64175368       4.21108699       6.31074949
Si       2.60431296       3.83334579       3.14506492
Si       9.42275096       5.10260063       2.24584860
Si      10.72698954       6.56570069       1.39813585
Si       1.30007438       2.37024572       3.99277766
Si       3.55044620       1.98672534       3.62185139
Si       8.47661771       6.94922107       1.76906212
Si       6.86689618       6.60012489       0.01988284
Si       5.16016774       2.33582152       5.37103067
16
Lattice="8.92027573149907 1.1410736333850195 -0.5652598901622374 2.238928162184266 6.836365880499172 -0.4802118952840466 0.8690082032884642 0.959684863424246 6.43616076132418" Properties=species:S:1:pos:R:3 unique_starting_index=30 config_type=initial n_minim_iter=2 stress="0.00044710362598830537 6.633092068591237e-05 -0.00023467276389115747 6.633092068591237e-05 0.0006568230738223172 0.0002048174562469211 -0.00023467276389115747 0.0002048174562469211 0.0007462663663895241" pbc="T T T"
Si       6.25392853       6.57706761       2.05877667
Si       5.77428357       2.36005676       3.33191231
Si       4.42146333       3.47288388       2.06023588
Si       7.60674876       5.46424050       3.33045309
Si       6.68880709       3.91343606       4.49026422
Si       5.33940501       5.02368831       0.90042475
Si       6.38592978       4.72578242      -0.92026635
Si       5.64228232       4.21134196       6.31095533
Si       2.60463143       3.83372076       3.14507125
Si       9.42358067       5.10340361       2.24561773
Si      10.72799050       6.56682551       1.39769186
Si       1.30022159       2.37029886       3.99299711
Si       3.55075327       1.98681499       3.62199716
Si       8.47745883       6.95030938       1.76869182
Si       6.86758412       6.60121593       0.01936495
Si       5.16062798       2.33590845       5.37132402
16
Lattice="8.920193010646742 1.1412121073438195 -0.5648765597050577 2.238900915283455 6.836654424689745 -0.4810813738641216 0.8693737498777498 0.9587407734536451 6.435551140311324" Properties=species:S:1:pos:R:3 unique_starting_index=30 config_type=initial n_minim_iter=3 stress="0.000119347167280566 9.272547709814162e-06 0.00043816658941408837 9.272547709814162e-06 0.0005152018774741847 -0.0005467029320192098 0.00043816658941408837 -0.0005467029320192098 -0.00047660113601914826" pbc="T T T"
Si       6.25406610       6.57687987       2.05808452
Si       5.77440157       2.35972743       3.33150869
Si       4.42165350       3.47277277       2.05974519
Si       7.60681417       5.46383453       3.32984802
Si       6.68894759       3.91287150       4.48974629
Si       5.33952009       5.02373580       0.89984692
Si       6.38582212       4.72611614      -0.92046304
Si       5.64264555       4.21049116       6.31005625
Si       2.60492596       3.83326377       3.14443809
Si       9.42354171       5.10334354       2.24515512
Si      10.72797034       6.56692618       1.39710071
Si       1.30049734       2.36968113       3.99249250
Si       3.55089616       1.98633975       3.62154916
Si       8.47757151       6.95026756       1.76804405
Si       6.86754697       6.60130480       0.01876793
Si       5.16092071       2.33530250       5.37082528
16
Lattice="8.919851780499776 1.141071820331866 -0.566196926692163 2.2388908258699094 6.835502534944634 -0.48163793807776084 0.8684653346078267 0.958406409178856 6.436337910417036" Properties=species:S:1:pos:R:3 unique_starting_index=30 config_type=initial n_minim_iter=4 stress="0.00022826868838812044 0.00012024861440143034 -0.00044366450607807514 0.00012024861440143034 -0.0009624907261152682 -0.0006074093830964549 -0.00044366450607807514 -0.0006074093830964549 0.0007463989615384616" pbc="T T T"
Si       6.25368523       6.57542056       2.05775839
Si       5.77352271       2.35956020       3.33074466
Si       4.42152255       3.47243452       2.05915791
Si       7.60568540       5.46254625       3.32934513
Si       6.68785085       3.91205096       4.48940100
Si       5.33935709       5.02292981       0.89910205
Si       6.38564845       4.72544625      -0.92145610
Si       5.64155949       4.20953451       6.30995915
Si       2.60471360       3.83219297       3.14459409
Si       9.42249434       5.10278779       2.24390895
Si      10.72713062       6.56603821       1.39538615
Si       1.30007732       2.36894255       3.99311690
Si       3.55008421       1.98595229       3.62132700
Si       8.47712373       6.94902847       1.76717605
Si       6.86722301       6.59980430       0.01769376
Si       5.15998493       2.33517646       5.37080929
16
Lattice="8.918975389648182 1.1408835758838178 -0.5656877887509413 2.238444411817599 6.836680385603065 -0.4801255619763354 0.8685119442985317 0.9598966240749746 6.4359508288849625" Properties=species:S:1:pos:R:3 unique_starting_index=30 config_type=initial n_minim_iter=5 stress="-3.682982148321512e-05 0.00043241710255265977 0.00022912694507658583 0.00043241710255265977 1.3173198880337975e-05 0.00040726104210835144 0.00022912694507658583 0.00040726104210835144 0.00022737544189007028" pbc="T T T"
Si       6.25310820       6.57670402       2.05936012
Si       5.77282354       2.36075657       3.33077736
Si       4.42132212       3.47365628       2.05962504
Si       7.60460963       5.46380431       3.33051244
Si       6.68707523       3.91348405       4.48994114
Si       5.33885651       5.02397653       0.90019634
Si       6.38487362       4.72602593      -0.92015932
Si       5.64105812       4.21143466       6.31029679
Si       2.60460234       3.83331307       3.14523901
Si       9.42132940       5.10414752       2.24489847
Si      10.72581509       6.56740965       1.39666852
Si       1.30011665       2.37005094       3.99346896
Si       3.54968232       1.98694431       3.62131574
Si       8.47624942       6.95051628       1.76882174
Si       6.86634037       6.60058664       0.01932816
Si       5.15959138       2.33687395       5.37080931
16
Lattice="8.918393041439673 1.1388448366187434 -0.5667985294615854 2.2367130592204494 6.83722641879856 -0.48032689553272173 0.8673767394139191 0.959867503688733 6.43498266262008" Properties=species:S:1:pos:R:3 unique_starting_index=30 config_type=initial n_minim_iter=6 stress="0.0002976038498408662 -0.0005591607036634404 -2.0430279320344583e-05 -0.0005591607036634404 -3.7270791019407704e-05 0.0001512703709995744 -2.0430279320344583e-05 0.0001512703709995744 2.160340540737956e-05" pbc="T T T"
Si       6.25112358       6.57596986       2.05851889
Si       5.77135926       2.35996890       3.32933834
Si       4.42024345       3.47339402       2.05860650
Si       7.60223939       5.46254474       3.32925074
Si       6.68512869       3.91247810       4.48845280
Si       5.33735415       5.02346066       0.89940443
Si       6.38355805       4.72508244      -0.92096092
Si       5.63892479       4.21085631       6.30881815
Si       2.60318916       3.83323636       3.14449640
Si       9.41929368       5.10270240       2.24336083
Si      10.72341394       6.56589980       1.39489787
Si       1.29906890       2.37003896       3.99295936
Si       3.54850471       1.98625975       3.62019654
Si       8.47397813       6.94967901       1.76766070
Si       6.86436476       6.59965072       0.01863574
Si       5.15811808       2.33628804       5.36922150
16
Lattice="8.915405281291672 1.1412546858427268 -0.5689744479176284 2.2375681744492173 6.839549810973447 -0.48129934356620124 0.8657043229397382 0.9598544775278111 6.433839906581197" Properties=species:S:1:pos:R:3 unique_starting_index=30 config_type=initial n_minim_iter=7 stress="-0.00024687751847323066 0.00011998190895168118 -0.00044165444319765835 0.00011998190895168118 0.00023848053817714627 1.005947476909728e-06 -0.00044165444319765835 1.005947476909728e-06 -0.00037381486928724606" pbc="T T T"
Si       6.25015621       6.57852907       2.05670439
Si       5.76852157       2.36212990       3.32686172
Si       4.41913973       3.47561885       2.05680860
Si       7.59953805       5.46504013       3.32675751
Si       6.68220514       3.91470738       4.48604823
Si       5.33647264       5.02595160       0.89751789
Si       6.38244538       4.72747055      -0.92302773
Si       5.63623240       4.21318843       6.30659385
Si       2.60241230       3.83461022       3.14298117
Si       9.41626548       5.10604875       2.24058495
Si      10.72032225       6.57005928       1.39134604
Si       1.29835553       2.37059969       3.99222007
Si       3.54662857       1.98702750       3.61831681
Si       8.47204921       6.95363147       1.76524931
Si       6.86319473       6.60244293       0.01695162
Si       5.15548305       2.33821604       5.36661449
16
Lattice="8.914094873714857 1.1421116728269303 -0.5644071680795061 2.237825232472342 6.838602749666186 -0.48045166167842446 0.8693011948503676 0.9597297070659041 6.438905373997367" Properties=species:S:1:pos:R:3 unique_starting_index=30 config_type=initial n_minim_iter=8 stress="-0.0008502856636496461 -0.00017289011271678272 0.000318297148198792 -0.00017289011271678272 0.00018857705410051036 -0.00013604003992063017 0.000318297148198792 -0.00013604003992063017 0.0004285767450423779" pbc="T T T"
Si       6.25191034       6.57724724       2.06261597
Si       5.76931096       2.36319689       3.33143057
Si       4.42031820       3.47660150       2.06025289
Si       7.60090310       5.46384263       3.33379365
Si       6.68372294       3.91457214       4.49333138
Si       5.33749836       5.02587199       0.90071516
Si       6.38166870       4.72650046      -0.92074451
Si       5.63955260       4.21394367       6.31479105
Si       2.60433600       3.83431271       3.14602964
Si       9.41688530       5.10613141       2.24801690
Si      10.71997989       6.56998239       1.39784082
Si       1.30124142       2.37046174       3.99620572
Si       3.54811048       1.98627627       3.62185272
Si       8.47311083       6.95416786       1.77219382
Si       6.86291384       6.60096213       0.02173305
Si       5.15830746       2.33948200       5.37231349
16
Lattice="8.92287125273468 1.1446903574042802 -0.5614561346876171 2.2422765734776573 6.835929151841751 -0.4790424052884192 0.872587628387453 0.9602751691915759 6.440395365704873" Properties=species:S:1:pos:R:3 unique_starting_index=30 config_type=initial n_minim_iter=9 stress="0.0006707469127087844 0.00022980249101424338 0.00022272028887184946 0.00022980249101424338 -0.0001522190145751787 -7.056022205218712e-05 0.00022272028887184946 -7.056022205218712e-05 -0.0003901128288339947" pbc="T T T"
Si       6.26170946       6.57525857       2.06679809
Si       5.77602600       2.36563610       3.33309873
Si       4.42665821       3.47790274       2.06186808
Si       7.61107725       5.46299194       3.33802875
Si       6.69187657       3.91473511       4.49721109
Si       5.34585888       5.02615957       0.90268573
Si       6.38925259       4.72544431      -0.91878872
Si       5.64848286       4.21545037       6.31868555
Si       2.60910030       3.83394058       3.14698812
Si       9.42863516       5.10695409       2.25290871
Si      10.73242284       6.57033839       1.40183261
Si       1.30531262       2.37055629       3.99806421
Si       3.55294771       1.98600256       3.62242969
Si       8.48478775       6.95489212       1.77746713
Si       6.87152605       6.59869474       0.02607723
Si       5.16620941       2.34219994       5.37381960
16
Lattice="8.921478421405935 1.144289805741982 -0.5607287594819215 2.2417202634192357 6.834807340601991 -0.47910768609836246 0.8731176624316301 0.95997282256917 6.442689551614088" Properties=species:S:1:pos:R:3 unique_starting_index=30 config_type=initial n_minim_iter=10 stress="-0.00013961037676731274 3.709998339818102e-05 0.0001558306463825037 3.709998339818102e-05 -1.1228135471352472e-05 -0.0002005219049324676 0.0001558306463825037 -0.0002005219049324676 -0.00017106568689245085" pbc="T T T"
Si       6.26144843       6.57311912       2.06876641
Si       5.77486792       2.36595085       3.33408670
Si       4.42604195       3.47793895       2.06274288
Si       7.61027440       5.46113102       3.34011022
Si       6.69020244       3.91279588       4.49965259
Si       5.34611391       5.02627409       0.90320051
Si       6.38824304       4.72410226      -0.91870605
Si       5.64807331       4.21496771       6.32155916
Si       2.60868315       3.83335897       3.14756495
Si       9.42763320       5.10571100       2.25528815
Si      10.73026664       6.56859638       1.40297242
Si       1.30604971       2.37047359       3.99988069
Si       3.55252849       1.98490961       3.62284878
Si       8.48378786       6.95416036       1.78000432
Si       6.87010295       6.59653978       0.02748996
Si       5.16621340       2.34253019       5.37536315
16
Lattice="8.92479240469258 1.1429847241065316 -0.5603892742888341 2.241661134874926 6.834249534519163 -0.4782213199487937 0.873460284612209 0.9606050273378143 6.4426286598539155" Properties=species:S:1:pos:R:3 unique_starting_index=30 config_type=initial n_minim_iter=11 stress="-4.534224619137497e-05 -4.8862500962839e-05 -2.935250579669533e-05 -4.8862500962839e-05 -4.9046856250530085e-05 -2.6242263339326054e-05 -2.935250579669533e-05 -2.6242263339326054e-05 -1.7508681067127986e-05" pbc="T T T"
Si       6.26447520       6.57187231       2.07056718
Si       5.77543862       2.36596697       3.33345089
Si       4.42679888       3.47834308       2.06273879
Si       7.61311495       5.45949621       3.34127927
Si       6.69129583       3.91145628       4.50065542
Si       5.34861799       5.02638300       0.90336264
Si       6.39034787       4.72183714      -0.91838562
Si       5.64956595       4.21600214       6.32240368
Si       2.60912989       3.83304349       3.14702638
Si       9.43078394       5.10479579       2.25699168
Si      10.73278696       6.56664851       1.40309527
Si       1.30712687       2.37119078       4.00092280
Si       3.55365897       1.98488604       3.62085931
Si       8.48625486       6.95295325       1.78315876
Si       6.87171239       6.59539203       0.02869842
Si       5.16820144       2.34244725       5.37531965
16
Lattice="8.93289489913136 1.143906037868828 -0.5573567075661015 2.244488023341723 6.831930905029952 -0.47895008421972796 0.8767594673817007 0.9588733020201063 6.442646337338452" Properties=species:S:1:pos:R:3 unique_starting_index=30 config_type=initial n_minim_iter=12 stress="0.00013454222995902594 -4.2841204697658406e-05 -0.0001968190475112346 -4.2841204697658406e-05 8.81787380910431e-05 0.0002783891620530509 -0.0001968190475112346 0.0002783891620530509 0.00038223372272718604" pbc="T T T"
Si       6.27649130       6.56888292       2.07348278
Si       5.77765109       2.36582733       3.33285677
Si       4.43072638       3.48056786       2.06107972
Si       7.62341601       5.45414238       3.34525982
Si       6.69716220       3.90738058       4.50232387
Si       5.35698019       5.02732967       0.90401567
Si       6.39818856       4.71894480      -0.91802096
Si       5.65595383       4.21576545       6.32436050
Si       2.61250002       3.83130013       3.14373570
Si       9.44164237       5.10341012       2.26260384
Si      10.74194151       6.56401564       1.40245464
Si       1.31220088       2.37069460       4.00388490
Si       3.55846053       1.98373109       3.61482932
Si       8.49568186       6.95097915       1.79151022
Si       6.87808805       6.59359928       0.03000936
Si       5.17605434       2.34111097       5.37633018
16
Lattice="8.936871521791709 1.1446198031054826 -0.5569884038172342 2.246139903074971 6.830525947592214 -0.4797871556453737 0.8776754292191029 0.9578603714047444 6.4435373312131885" Properties=species:S:1:pos:R:3 unique_starting_index=30 config_type=initial n_minim_iter=13 stress="0.00016854160319127029 -4.457425684735907e-05 -0.0003349048857977633 -4.457425684735907e-05 0.00016771968888091942 0.00041318739104195346 -0.0003349048857977633 0.00041318739104195346 0.0004365902590824471" pbc="T T T"
Si       6.28274855       6.56735572       2.07458220
Si       5.77793830       2.36565040       3.33217958
Si       4.43285449       3.48160151       2.05995443
Si       7.62783237       5.45140461       3.34680734
Si       6.69959412       3.90561438       4.50348362
Si       5.36109274       5.02739174       0.90327815
Si       6.40195448       4.71751671      -0.91807604
Si       5.65873238       4.21548941       6.32483781
Si       2.61315781       3.83053186       3.14223992
Si       9.44752904       5.10247426       2.26452185
Si      10.74614368       6.56251650       1.40077952
Si       1.31454317       2.37048962       4.00598225
Si       3.56036799       1.98285439       3.61175439
Si       8.50031887       6.95015174       1.79500738
Si       6.88134083       6.59267230       0.02938891
Si       5.17934603       2.34033383       5.37737286
16
Lattice="8.942145303166148 1.1466950943376277 -0.5547757487280276 2.2490666308405114 6.828252692316232 -0.4822966007744921 0.8806043161259329 0.9548197672259531 6.446795063210649" Properties=species:S:1:pos:R:3 unique_starting_index=30 config_type=initial n_minim_iter=14 stress="8.44341204993541e-05 2.6760376929424184e-05 -0.00011418639756457934 2.6760376929424184e-05 0.00013856537223686156 0.000134351624652632 -0.00011418639756457934 0.000134351624652632 0.00026749489367551105" pbc="T T T"
Si       6.29275259       6.56475264       2.07489780
Si       5.77906366       2.36501491       3.33482491
Si       4.43671844       3.48228224       2.06002297
Si       7.63509781       5.44748532       3.34969974
Si       6.70528964       3.90245073       4.50619602
Si       5.36652661       5.02731682       0.90352669
Si       6.40737123       4.71609067      -0.91764549
Si       5.66444502       4.21367689       6.32736821
Si       2.61562273       3.82817058       3.14138741
Si       9.45619352       5.10159697       2.26833531
Si      10.75228861       6.56073046       1.39942055
Si       1.31952764       2.36903709       4.01030216
Si       3.56334560       1.98087805       3.60930053
Si       8.50847065       6.94888950       1.80042219
Si       6.88619779       6.59176044       0.02908820
Si       5.18561847       2.33800711       5.38063452
16
Lattice="8.951554441937192 1.1496740507606005 -0.5515498633358725 2.2539340543416455 6.823748573466271 -0.4851300210846143 0.8848335102732745 0.9509392069235417 6.449447958067781" Properties=species:S:1:pos:R:3 unique_starting_index=30 config_type=initial n_minim_iter=15 stress="-9.17936742272115e-05 2.124878273548268e-05 0.00025144704056207303 2.124878273548268e-05 -2.365396961898358e-05 -0.00024499709792303334 0.00025144704056207303 -0.00024499709792303334 -0.00029962215714117094" pbc="T T T"
Si       6.30875912       6.55959758       2.07509283
Si       5.78156288       2.36476425       3.33767525
Si       4.44310034       3.48319207       2.06039583
Si       7.64722166       5.44116977       3.35237225
Si       6.71552046       3.89793687       4.50801242
Si       5.37480155       5.02642496       0.90475565
Si       6.41646405       4.71294756      -0.91545122
Si       5.67385796       4.21141427       6.32821930
Si       2.62062228       3.82568988       3.13869196
Si       9.46969973       5.09867195       2.27407611
Si      10.76292424       6.55685779       1.39644777
Si       1.32739776       2.36750404       4.01632030
Si       3.56760282       1.97701273       3.60434623
Si       8.52271918       6.94734910       1.80842185
Si       6.89492282       6.58954192       0.02770552
Si       5.19539919       2.33481992       5.38506255
16
Lattice="8.957409986053506 1.1544666580009695 -0.5490022646619903 2.258835809045349 6.823305640389103 -0.4876590193236517 0.8881580297475643 0.9480663404754907 6.449963577751071" Properties=species:S:1:pos:R:3 unique_starting_index=30 config_type=initial n_minim_iter=16 stress="-3.7003470065519784e-05 2.473364425437602e-05 0.0002631446083854572 2.473364425437602e-05 -5.055428416334384e-05 -0.000344266740563194 0.0002631446083854572 -0.000344266740563194 -0.000339250826062472" pbc="T T T"
Si       6.32022963       6.55915185       2.07366846
Si       5.78417420       2.36668679       3.33963383
Si       4.44840098       3.48530791       2.05994319
Si       7.65600284       5.44053073       3.35335911
Si       6.72401637       3.89727092       4.50802949
Si       5.38038746       5.02856772       0.90527280
Si       6.42315002       4.71368355      -0.91414711
Si       5.68125380       4.21215508       6.32744940
Si       2.62450189       3.82534487       3.13671374
Si       9.47990193       5.10049377       2.27658855
Si      10.77007945       6.55763542       1.39372683
Si       1.33432437       2.36820322       4.01957546
Si       3.56976092       1.97511410       3.60080375
Si       8.53464291       6.95072454       1.81249855
Si       6.90246757       6.59145618       0.02543393
Si       5.20193626       2.33438245       5.38786836
16
Lattice="8.963506357701231 1.158921127227106 -0.5454676229191255 2.2636313152357577 6.822956426826872 -0.48770206932349763 0.8918471314143709 0.9473490093844134 6.449548066343556" Properties=species:S:1:pos:R:3 unique_starting_index=30 config_type=initial n_minim_iter=17 stress="5.088021585449562e-06 1.772986218353152e-05 -0.00017243914773390796 1.772986218353152e-05 -5.3756439604398156e-05 0.0002151770906963177 -0.00017243914773390796 0.0002151770906963177 0.00013397382549333345" pbc="T T T"
Si       6.33266320       6.55915094       2.07325798
Si       5.78632161       2.37007563       3.34312040
Si       4.45403028       3.48693617       2.06098076
Si       7.66495453       5.44229039       3.35539761
Si       6.73474397       3.89748066       4.50925533
Si       5.38424083       5.03174590       0.90712304
Si       6.42972376       4.71348441      -0.91054292
Si       5.68926105       4.21574215       6.32692130
Si       2.62980723       3.82775458       3.13591871
Si       9.48917757       5.10147198       2.28045966
Si      10.77617827       6.55641106       1.39138532
Si       1.34280653       2.37281550       4.02499306
Si       3.57124684       1.97396258       3.59734271
Si       8.54773796       6.95526399       1.81903566
Si       6.91156398       6.59175803       0.02405096
Si       5.20742082       2.33746853       5.39232742
16
Lattice="8.968270341381206 1.1652968631324307 -0.5353331608677521 2.269476992621676 6.821315368458102 -0.48613581181638627 0.9006090268732972 0.9467073092661169 6.452976502940783" Properties=species:S:1:pos:R:3 unique_starting_index=30 config_type=initial n_minim_iter=18 stress="0.00034876417799947936 -0.00012859610914530513 -0.000311965512885399 -0.00012859610914530513 0.0006740124891727949 0.000103557288094655 -0.000311965512885399 0.000103557288094655 0.0008379465011358854" pbc="T T T"
Si       6.34927891       6.55814736       2.07881371
Si       5.78907745       2.37517218       3.35269382
Si       4.46181801       3.49031900       2.06155578
Si       7.67653835       5.44300054       3.36995175
Si       6.74751926       3.89395190       4.52015749
Si       5.39083710       5.03936764       0.91135004
Si       6.43581678       4.71099999      -0.90459882
Si       5.70253958       4.22231955       6.33610635
Si       2.63824420       3.83222450       3.13815545
Si       9.50011216       5.10109504       2.29335208
Si      10.78266419       6.55298051       1.39215509
Si       1.35569217       2.38033903       4.03935244
Si       3.57653986       1.97577651       3.59476114
Si       8.56181650       6.95754303       1.83674639
Si       6.92502339       6.59003230       0.02797846
Si       5.21333297       2.34328724       5.40352907
16
Lattice="8.977960636700066 1.1696620679998078 -0.5254302235118583 2.275747287036983 6.813703906265259 -0.4853128045708615 0.9096661170216382 0.9444800713976204 6.456340831844344" Properties=species:S:1:pos:R:3 unique_starting_index=30 config_type=initial n_minim_iter=19 stress="0.0002523999370590193 2.0313913431632416e-05 0.00013805747800705464 2.0313913431632416e-05 0.0001515084957011183 3.448500090508976e-05 0.00013805747800705464 3.448500090508976e-05 2.970723932829793e-06" pbc="T T T"
Si       6.36905101       6.55240841       2.08420117
Si       5.79432304       2.37543763       3.36139663
Si       4.47128488       3.48923231       2.06543292
Si       7.69208916       5.43861373       3.38016489
Si       6.76455667       3.88778343       4.53008550
Si       5.39881737       5.04006262       0.91551230
Si       6.44597594       4.70663689      -0.89830617
Si       5.71739810       4.22120916       6.34390397
Si       2.64707053       3.83215017       3.14025076
Si       9.51630351       5.09569588       2.30534705
Si      10.79480919       6.54469559       1.39255409
Si       1.36856485       2.38315046       4.05304371
Si       3.58528392       1.97503739       3.59383576
Si       8.57809012       6.95280866       1.85176204
Si       6.94015899       6.58241579       0.03314679
Si       5.22321505       2.34543025       5.41245102
16
Lattice="8.991033041532138 1.1845927755106505 -0.5128602468191863 2.290938373158775 6.803824027321744 -0.4871944366128166 0.9221554760311309 0.9389797317544641 6.453749477269093" Properties=species:S:1:pos:R:3 unique_starting_index=30 config_type=initial n_minim_iter=20 stress="-0.0015800628456850397 0.0005445946335575986 0.000540580879545561 0.0005445946335575986 -0.0016194937766711062 -0.000664510457566826 0.000540580879545561 -0.000664510457566826 -0.0019881320085359394" pbc="T T T"
Si       6.39580503       6.54725555       2.08528036
Si       5.80832186       2.38014098       3.36841443
Si       4.48762624       3.49294313       2.06968034
Si       7.71650065       5.43445341       3.38401445
Si       6.79270288       3.88222611       4.53429223
Si       5.41142401       5.04517042       0.91940256
Si       6.46284133       4.70607425      -0.89060929
Si       5.74128556       4.22132228       6.34430409
Si       2.65999333       3.83368144       3.13911609
Si       9.54413356       5.09371510       2.31457870
Si      10.81292477       6.53825392       1.37944767
Si       1.39120212       2.38914262       4.07424712
Si       3.59859309       1.97641929       3.59219992
Si       8.60553380       6.95097725       1.86149487
Si       6.97053955       6.58000857       0.03589344
Si       5.23358734       2.34738797       5.41780135
16
Lattice="9.011991185630077 1.192160426784546 -0.5036071882420153 2.3022772250253136 6.797116020607065 -0.4884705424829125 0.9321923560735004 0.9349827091063777 6.453640607913221" Properties=species:S:1:pos:R:3 unique_starting_index=30 config_type=initial n_minim_iter=21 stress="-0.0005154266882573432 0.0009340701985990972 0.0004999035581815548 0.0009340701985990972 -0.0006550414385604526 -0.0008119183643853163 0.0004999035581815548 -0.0008119183643853163 -0.0007256479639951326" pbc="T T T"
Si       6.42604989       6.54129656       2.09027354
Si       5.82041087       2.38296259       3.37128934
Si       4.50282230       3.49835985       2.07196129
Si       7.74363847       5.42589931       3.38960159
Si       6.81758061       3.87541105       4.53997770
Si       5.42888015       5.04884811       0.92158518
Si       6.48313549       4.70210768      -0.88559565
Si       5.76332528       4.22215148       6.34715852
Si       2.67086375       3.83334646       3.13546995
Si       9.57559702       5.09091270       2.32609293
Si      10.83590027       6.52948053       1.37045267
Si       1.41056050       2.39477863       4.09111021
Si       3.61133301       1.97579620       3.58583632
Si       8.63512776       6.94846295       1.87572656
Si       6.99640272       6.57604210       0.03925860
Si       5.25005805       2.34821706       5.42230428
