6
Lattice="3.7977299600950034 -1.3149221699485032e-61 -6.165187230216058e-46 -1.2580135024963391e-61 3.797729960095004 -1.5849177849378186e-15 1.933794774959255e-45 4.971310062136329e-15 11.91209622563331" Properties=species:S:1:pos:R:3 unique_starting_index=46 config_type=initial n_minim_iter=1 energy=-973.7407698087409 free_energy=-973.7407698087409 pbc="T T T"
Si       3.00427859       0.79345137       9.13752486
Si       0.79345137       3.00427859       9.13752486
Si       3.00427859       3.00427859       2.77457137
Si       0.79345137       0.79345137       2.77457137
Si       1.89886498       1.89886498      10.84504715
Si       1.89886498       1.89886498       1.06704907
6
Lattice="3.781337851335014 -1.2102194569405693e-61 -5.895922463877359e-46 -1.2443754332294307e-61 3.781337851335015 -1.5716329729425568e-15 2.0201068132332157e-45 5.017744532397417e-15 11.974929690074966" Properties=species:S:1:pos:R:3 unique_starting_index=46 config_type=initial n_minim_iter=2 stress="-0.0003913532399128038 -6.32194785426473e-17 1.842392942915491e-17 -6.32194785426473e-17 -0.00039135323991276234 -2.0667982784208494e-17 1.842392942915491e-17 -2.0667982784208494e-17 0.0037717238316202885" pbc="T T T"
Si       2.98938533       0.79195252       9.18488717
Si       0.79195252       2.98938533       9.18488717
Si       2.98938533       2.98938533       2.79004253
Si       0.79195252       0.79195252       2.79004253
Si       1.89066893       1.89066893      10.90412137
Si       1.89066893       1.89066893       1.07080832
6
Lattice="3.7400690348336276 -1.2087787163282066e-61 -5.787923230072771e-46 -1.2257003267939384e-61 3.7400690348336276 -1.5335426852165194e-15 2.0422175655783276e-45 5.105915879097155e-15 12.030002922004932" Properties=species:S:1:pos:R:3 unique_starting_index=46 config_type=initial n_minim_iter=3 stress="-0.0021692119888170303 -5.195601366241342e-17 -3.8241104766988475e-18 -5.195601366241342e-17 -0.002169211988816967 -1.0373313536842145e-16 -3.8241104766988475e-18 -1.0373313536842145e-16 -0.010193703785882993" pbc="T T T"
Si       2.94909944       0.79096959       9.22408296
Si       0.79096959       2.94909944       9.22408296
Si       2.94909944       2.94909944       2.80591996
Si       0.79096959       0.79096959       2.80591996
Si       1.87003452       1.87003452      10.96795451
Si       1.87003452       1.87003452       1.06204841
6
Lattice="3.5320685947936408 -3.417705580817911e-61 9.982987562209339e-45 -1.4527927477166353e-60 3.5320685947936408 -2.9318567486109237e-16 3.570436061962866e-44 9.648448972417991e-15 14.245320860045341" Properties=species:S:1:pos:R:3 unique_starting_index=46 config_type=initial n_minim_iter=4 stress="0.0449236467992068 5.4037573980664616e-17 -2.6202574308296884e-17 5.4037573980664616e-17 0.044923646799206705 2.7897073092728364e-17 -2.6202574308296884e-17 2.7897073092728364e-17 0.011389523530677348" pbc="T T T"
Si       2.67248817       0.85958043      10.86734122
Si       0.85958043       2.67248817      10.86734122
Si       2.67248817       2.67248817       3.37797964
Si       0.85958043       0.85958043       3.37797964
Si       1.76603430       1.76603430      13.18026480
Si       1.76603430       1.76603430       1.06505606
6
Lattice="3.5095682933884937 -6.979318582318003e-56 -1.5240948219400051e-40 -1.7931043414455367e-56 3.5095682933884946 -1.0522169305958648e-15 -4.781727478513418e-40 7.146956381965796e-15 14.440792990700453" Properties=species:S:1:pos:R:3 unique_starting_index=46 config_type=initial n_minim_iter=5 stress="0.04371998940999783 1.1157267412180101e-17 -1.8469297837825888e-18 1.1157267412180101e-17 0.04371998940999783 8.26463844206676e-18 -1.8469297837825888e-18 8.26463844206676e-18 0.010811605591987648" pbc="T T T"
Si       2.64595961       0.86360869      11.01184440
Si       0.86360869       2.64595961      11.01184440
Si       2.64595961       2.64595961       3.42894859
Si       0.86360869       0.86360869       3.42894859
Si       1.75478415       1.75478415      13.37724036
Si       1.75478415       1.75478415       1.06355263
6
Lattice="3.3678856425647696 5.229801285543936e-50 6.551232522698975e-35 3.199932327897298e-50 3.367885642564769 -9.318919713341664e-16 2.0551026639652076e-34 7.217322176729041e-15 14.379345917448159" Properties=species:S:1:pos:R:3 unique_starting_index=46 config_type=initial n_minim_iter=6 stress="-0.003110556994003524 1.6298535947491395e-16 2.8845418721558386e-17 1.6298535947491395e-16 -0.003110556994003524 1.6831382965186276e-17 2.8845418721558386e-17 1.6831382965186276e-17 0.027892241892117045" pbc="T T T"
Si       2.52518161       0.84270403      10.96693094
Si       0.84270403       2.52518161      10.96693094
Si       2.52518161       2.52518161       3.41241498
Si       0.84270403       0.84270403       3.41241498
Si       1.68394282       1.68394282      13.30291592
Si       1.68394282       1.68394282       1.07643000
6
Lattice="3.355794427370119 -1.8384657577212302e-48 -4.224319259025209e-33 -4.806554370064021e-49 3.3557944273701192 -9.768736337810917e-16 -1.3263943657091782e-32 6.8624782805435194e-15 13.815523699402261" Properties=species:S:1:pos:R:3 unique_starting_index=46 config_type=initial n_minim_iter=7 stress="-0.016229896541804224 1.5990117032992683e-16 1.9370086850308787e-17 1.5990117032992683e-16 -0.016229896541804085 -2.0378264876900425e-16 1.9370086850308787e-17 -2.0378264876900425e-16 0.01468323894105535" pbc="T T T"
Si       2.53220371       0.82359071      10.54934273
Si       0.82359071       2.53220371      10.54934273
Si       2.53220371       2.53220371       3.26618097
Si       0.82359071       0.82359071       3.26618097
Si       1.67789721       1.67789721      12.73827303
Si       1.67789721       1.67789721       1.07725067
6
Lattice="3.3851385283563022 4.150438977630642e-47 9.457049353853206e-32 1.0855238926168049e-47 3.385138528356304 -9.420494122627393e-16 2.969395495993942e-31 6.972191408949499e-15 13.653836652790597" Properties=species:S:1:pos:R:3 unique_starting_index=46 config_type=initial n_minim_iter=8 stress="0.0032502447803320366 2.15092066099833e-16 1.0555606866743947e-16 2.15092066099833e-16 0.003250244780332241 -1.7067163003481645e-16 1.0555606866743947e-16 -1.7067163003481645e-16 0.009547118757935267" pbc="T T T"
Si       2.55227623       0.83286229      10.42915486
Si       0.83286229       2.55227623      10.42915486
Si       2.55227623       2.55227623       3.22468180
Si       0.83286229       0.83286229       3.22468180
Si       1.69256926       1.69256926      12.57968068
Si       1.69256926       1.69256926       1.07415597
6
Lattice="3.3793788920691585 1.4637809039923874e-46 -1.2416657540628456e-30 3.4666547154343992e-46 3.3793788920691594 -4.467300087376983e-16 -3.8957512869797416e-30 8.492965618771308e-15 13.56333830528517" Properties=species:S:1:pos:R:3 unique_starting_index=46 config_type=initial n_minim_iter=9 stress="-0.0007733442512402916 2.1578761993746597e-16 1.9254292099937513e-16 2.1578761993746597e-16 -0.0007733442512401082 -2.0888916667632332e-16 1.9254292099937513e-16 -2.0888916667632332e-16 -0.0009964480426000943" pbc="T T T"
Si       2.53914321       0.84023568      10.36130057
Si       0.84023568       2.53914321      10.36130057
Si       2.53914321       2.53914321       3.20203774
Si       0.84023568       0.84023568       3.20203774
Si       1.68968945       1.68968945      12.49315744
Si       1.68968945       1.68968945       1.07018087
6
Lattice="3.3795277750148025 2.817757591513969e-45 1.6763107329487548e-29 1.4147145724091813e-46 3.3795277750148034 -1.3929397136758558e-16 5.256959066502385e-29 9.461325032828787e-15 13.600871104059662" Properties=species:S:1:pos:R:3 unique_starting_index=46 config_type=initial n_minim_iter=10 stress="-0.00028390793347133833 2.0592658033194426e-16 1.9556453610896238e-16 2.0592658033194426e-16 -0.00028390793347138403 -1.949256036492668e-16 1.9556453610896238e-16 -1.949256036492668e-16 -0.00040105815931645796" pbc="T T T"
Si       2.53688733       0.84264045      10.38905858
Si       0.84264045       2.53688733      10.38905858
Si       2.53688733       2.53688733       3.21181253
Si       0.84264045       0.84264045       3.21181253
Si       1.68976389       1.68976389      12.53079926
Si       1.68976389       1.68976389       1.07007185
6
Lattice="3.3797973007384585 4.412794734506968e-44 -2.4114229894763364e-28 7.789854946888708e-44 3.37979730073846 -5.056223378087004e-16 -7.563761908667915e-28 8.31338276325026e-15 13.604711696127088" Properties=species:S:1:pos:R:3 unique_starting_index=46 config_type=initial n_minim_iter=11 stress="-5.07100707566148e-05 1.2283162153379616e-16 1.2832869414434385e-16 1.2283162153379616e-16 -5.071007075652336e-05 -8.256840611953199e-17 1.2832869414434385e-16 -8.256840611953199e-17 0.00012090655741204981" pbc="T T T"
Si       2.53661584       0.84318146      10.39193838
Si       0.84318146       2.53661584      10.39193838
Si       2.53661584       2.53661584       3.21277331
Si       0.84318146       0.84318146       3.21277331
Si       1.68989865       1.68989865      12.53437200
Si       1.68989865       1.68989865       1.07033969
