2
Lattice="2.918279187973704 2.1218269032885855e-16 2.918279187973704 2.918279187973704 2.918279187973704 1.6451456358899667e-16 1.6268402066394864e-17 2.918279187973704 2.918279187973704" Properties=species:S:1:pos:R:3:forces:R:3 n_minim_iter=1 energy=-325.9823081118807 stress="0.0711951389856707 -1.1956852195637372e-16 -2.4179090402064564e-17 -1.1956852195637372e-16 0.07119513898567068 1.5695569375308896e-16 -2.4179090402064564e-17 1.5695569375308896e-16 0.07119513898567066" free_energy=-325.9823081118807 pbc="T T T"
Si       0.00000000      -0.00000000       0.00000000       0.00000000      -0.00000000      -0.00000000
Si       1.45913959       1.45913959       1.45913959      -0.00000000       0.00000000       0.00000000
