2
Lattice="4.888656870591273 -2.4151189610614294e-17 9.15753411446953e-17 -2.4151189610614264e-17 4.888656870591273 -2.662532953563395e-16 2.4443284352956365 2.4443284352956365 1.348241699164036" Properties=species:S:1:pos:R:3:forces:R:3 cutoff=-1.0 nneightol=1.2 n_minim_iter=1 energy=-325.6933350585759 stress="0.028160843339564767 1.748696535692627e-17 2.2659229650999e-18 1.748696535692627e-17 0.028160843339564215 -4.3646876283463445e-18 2.2659229650999e-18 -4.3646876283463445e-18 0.022158852649055535" free_energy=-325.6933350585759 pbc="T T T"
Si      -0.00000000      -1.22216422      -0.33706042      -0.00000000       0.00000000       0.00000000
Si      -0.00000000       1.22216422       0.33706042       0.00000000      -0.00000000      -0.00000000
