2
Lattice="4.927151816721813 -2.434136428796624e-17 9.229643651251656e-17 -2.4341364287966208e-17 4.927151816721813 -2.6834986431855867e-16 2.4635759083609066 2.4635759083609066 1.3588582126470103" Properties=species:S:1:pos:R:3:forces:R:3 cutoff=-1.0 nneightol=1.2 n_minim_iter=1 energy=-325.6933350585759 stress="0.028160843339564767 1.748696535692627e-17 2.2659229650999e-18 1.748696535692627e-17 0.028160843339564215 -4.3646876283463445e-18 2.2659229650999e-18 -4.3646876283463445e-18 0.022158852649055535" free_energy=-325.6933350585759 pbc="T T T"
Si      -0.00000000      -1.23178795      -0.33971455      -0.00000000       0.00000000       0.00000000
Si      -0.00000000       1.23178796       0.33971455       0.00000000      -0.00000000      -0.00000000
