2
Lattice="4.965054474038993 -2.4528612910204387e-17 9.300643700262902e-17 -2.4528612910204378e-17 4.965054474038993 -2.704141751672439e-16 2.4825272370194966 2.4825272370194966 1.369311378916782" Properties=species:S:1:pos:R:3:forces:R:3 cutoff=-1.0 nneightol=1.2 n_minim_iter=1 energy=-325.6691204236922 stress="0.03981167984897695 3.493267822938038e-17 7.211128366287191e-17 3.493267822938038e-17 0.0398116798489769 -1.607294820866479e-17 7.211128366287191e-17 -1.607294820866479e-17 0.030489740672936645" free_energy=-325.6691204236922 pbc="T T T"
Si      -0.00000000      -1.24126362      -0.34232784       0.00000000      -0.00000000      -0.00000000
Si      -0.00000000       1.24126362       0.34232784      -0.00000000       0.00000000       0.00000000
