4
Lattice="1.8389423684685364 -3.1851416143785523 4.499356524337426e-18 1.8389423684685364 3.1851416143785523 -4.499356524337378e-18 -7.894700672935334e-32 8.587431342077273e-18 6.079132600477132" Properties=species:S:1:pos:R:3:forces:R:3 cutoff=-1.0 nneightol=1.2 n_minim_iter=1 energy=-652.2122191283629 stress="-0.10155521687601392 -1.6348664105447627e-16 -4.857681908532233e-18 -1.6348664105447627e-16 -0.10155521687601408 -9.58479641143317e-17 -4.857681908532233e-18 -9.58479641143317e-17 -0.10484427922539419" free_energy=-652.2122191283629 pbc="T T T"
Si       1.83894237       1.06171387       0.38673916      -0.00000000       0.00000000       0.10903492
Si       1.83894237      -1.06171387       3.42630546       0.00000000       0.00000000       0.10903492
Si       1.83894237       1.06171387       2.65282714      -0.00000000      -0.00000000      -0.10903492
Si       1.83894237      -1.06171387      -0.38673916       0.00000000      -0.00000000      -0.10903492
4
Lattice="1.834916506595735 -3.1781686170706047 6.239684834937846e-18 1.834916506595735 3.1781686170706047 -6.239684834937771e-18 -1.4117334665002363e-31 5.272883411981559e-18 6.105837462673093" Properties=species:S:1:pos:R:3:forces:R:3 cutoff=-1.0 nneightol=1.2 n_minim_iter=2 energy=-652.2133998150584 stress="-0.1035627787910146 -2.2706477924232815e-16 -3.371277477583287e-17 -2.2706477924232815e-16 -0.1035627787910147 -1.901724386355889e-17 -3.371277477583287e-17 -1.901724386355889e-17 -0.098857702744367" free_energy=-652.2133998150584 pbc="T T T"
Si       1.83491651       1.05938954       0.39151215      -0.00000000       0.00000000       0.11939525
Si       1.83491651      -1.05938954       3.44443088       0.00000000       0.00000000       0.11939525
Si       1.83491651       1.05938954       2.66140658      -0.00000000      -0.00000000      -0.11939525
Si       1.83491651      -1.05938954      -0.39151215       0.00000000      -0.00000000      -0.11939525
4
Lattice="1.83462541520221 -3.1776644319873735 2.465030686565298e-17 1.83462541520221 3.1776644319873735 -2.46503068656529e-17 -1.3930806448693245e-31 -2.985577991127532e-17 6.107775185461995" Properties=species:S:1:pos:R:3:forces:R:3 cutoff=-1.0 nneightol=1.2 n_minim_iter=3 energy=-652.2142372833672 stress="-0.1008712579248794 -3.9055142029680443e-16 -1.0875286817976611e-16 -3.9055142029680443e-16 -0.10087125792488094 6.734386442625896e-20 -1.0875286817976611e-16 6.734386442625896e-20 -0.10135642170839902" free_energy=-652.2142372833672 pbc="T T T"
Si       1.83462542       1.05922148       0.39581800      -0.00000000       0.00000000      -0.01416380
Si       1.83462542      -1.05922148       3.44970559       0.00000000      -0.00000000      -0.01416380
Si       1.83462542       1.05922148       2.65806959      -0.00000000       0.00000000       0.01416380
Si       1.83462542      -1.05922148      -0.39581800       0.00000000      -0.00000000       0.01416380
4
Lattice="1.8346911994339115 -3.1777783736190175 5.9984881798907475e-18 1.8346911994339115 3.1777783736190175 -5.998488179890622e-18 -1.0118356160668904e-31 5.7369321353636076e-18 6.107337195575989" Properties=species:S:1:pos:R:3:forces:R:3 cutoff=-1.0 nneightol=1.2 n_minim_iter=4 energy=-652.214249253418 stress="-0.1011416582417333 -2.543125527514075e-16 5.910228941675681e-17 -2.543125527514075e-16 -0.10114165824173464 1.6845437726081678e-17 5.910228941675681e-17 1.6845437726081678e-17 -0.10113808755351375" free_energy=-652.214249253418 pbc="T T T"
Si       1.83469120       1.05925946       0.39531697      -0.00000000       0.00000000       0.00019364
Si       1.83469120      -1.05925946       3.44898556       0.00000000      -0.00000000       0.00019364
Si       1.83469120       1.05925946       2.65835163      -0.00000000       0.00000000      -0.00019364
Si       1.83469120      -1.05925946      -0.39531697       0.00000000      -0.00000000      -0.00019364
