4
Lattice="1.7735964274231397 -3.0719591244195246 3.187095715649234e-17 1.7735964274231397 3.0719591244195246 -3.187095715649234e-17 0.0 6.199117261369835e-17 5.975168784829656" Properties=species:S:1:pos:R:3:forces:R:3 cutoff=-1.0 nneightol=1.2 n_minim_iter=1 energy=-651.2767773006966 stress="-0.213956921376103 -2.543125527514075e-16 -2.1906779151031368e-16 -2.543125527514075e-16 -0.2139569213761032 -2.7129415706904303e-16 -2.1906779151031368e-16 -2.7129415706904303e-16 -0.21463493252483154" free_energy=-651.2767773006966 pbc="T T T"
Si       1.77359643       1.02398637       0.40012787      -0.00000000       0.00000000       0.15538130
Si       1.77359643      -1.02398637       3.38771226       0.00000000       0.00000000       0.15538130
Si       1.77359643       1.02398637       2.58745652      -0.00000000      -0.00000000      -0.15538130
Si       1.77359643      -1.02398637      -0.40012787       0.00000000      -0.00000000      -0.15538130
4
Lattice="1.77273140583529 -3.0704608630797257 3.150743511950278e-17 1.77273140583529 3.0704608630797257 -3.1507435119502775e-17 -4.872016844724087e-35 6.272788693208806e-17 5.981001491374488" Properties=species:S:1:pos:R:3:forces:R:3 cutoff=-1.0 nneightol=1.2 n_minim_iter=2 energy=-651.2783911826289 stress="-0.20971434424933355 3.2697328210895254e-16 -1.8938512869146556e-16 3.2697328210895254e-16 -0.20971434424933202 -2.491457017558841e-16 -1.8938512869146556e-16 -2.491457017558841e-16 -0.21825104517948488" free_energy=-651.2783911826289 pbc="T T T"
Si       1.77273141       1.02348695       0.40567471       0.00000000      -0.00000000      -0.02827345
Si       1.77273141      -1.02348695       3.39617546       0.00000000       0.00000000      -0.02827345
Si       1.77273141       1.02348695       2.58482603      -0.00000000      -0.00000000       0.02827345
Si       1.77273141      -1.02348695      -0.40567471      -0.00000000       0.00000000       0.02827345
4
Lattice="1.7691410350187877 -3.06424215840753 3.257931568474e-17 1.7691410350187877 3.06424215840753 -3.2579315684739996e-17 -5.7445349679638225e-34 6.076161433398227e-17 6.005302327684365" Properties=species:S:1:pos:R:3:forces:R:3 cutoff=-1.0 nneightol=1.2 n_minim_iter=3 energy=-651.2793624648929 stress="-0.21165062689599018 -3.814688291271113e-16 1.2524376586068763e-16 -3.814688291271113e-16 -0.21165062689599137 -5.796982362155029e-16 1.2524376586068763e-16 -5.796982362155029e-16 -0.21177908869696552" free_energy=-651.2793624648929 pbc="T T T"
Si       1.76914104       1.02141405       0.41012391      -0.00000000       0.00000000      -0.00281503
Si       1.76914104      -1.02141405       3.41277507       0.00000000      -0.00000000      -0.00281503
Si       1.76914104       1.02141405       2.59252726      -0.00000000       0.00000000       0.00281503
Si       1.76914104      -1.02141405      -0.41012391       0.00000000      -0.00000000       0.00281503
