4
Lattice="2.027887217995336 -3.5124036935874257 7.77256105834354e-34 2.027887217995336 3.5124036935874257 -7.772561058343523e-34 -2.8313071204250807e-48 1.4855243994688166e-33 6.7130529415493685" Properties=species:S:1:pos:R:3:forces:R:3 cutoff=-1.0 nneightol=1.2 n_minim_iter=1 energy=-652.1626080286005 stress="0.06060093586971364 -3.178906909392594e-17 5.254391990496314e-18 -3.178906909392594e-17 0.06060093586971347 2.7217254543050258e-18 5.254391990496314e-18 2.7217254543050258e-18 0.0601035810610172" free_energy=-652.1626080286005 pbc="T T T"
Si       2.02788722       1.17080123       0.42043534      -0.00000000      -0.00000000       0.01697226
Si       2.02788722      -1.17080123       3.77696181      -0.00000000       0.00000000       0.01697226
Si       2.02788722       1.17080123       2.93609113       0.00000000      -0.00000000      -0.01697226
Si       2.02788722      -1.17080123      -0.42043534      -0.00000000       0.00000000      -0.01697226
4
Lattice="2.0274279777556794 -3.511608266159461 8.085750739132285e-34 2.0274279777556794 3.511608266159461 -8.085750739132257e-34 -2.8814798904676435e-48 1.4260029209744961e-33 6.716094483084313" Properties=species:S:1:pos:R:3:forces:R:3 cutoff=-1.0 nneightol=1.2 n_minim_iter=2 energy=-652.1626356500988 stress="0.06043044285535723 9.082591169693126e-18 -1.8616105626437748e-17 9.082591169693126e-18 0.060430442855357085 2.6879201879259344e-17 -1.8616105626437748e-17 2.6879201879259344e-17 0.060386389822929286" free_energy=-652.1626356500988 pbc="T T T"
Si       2.02742798       1.17053609       0.42086840       0.00000000       0.00000000       0.01579537
Si       2.02742798      -1.17053609       3.77891565       0.00000000      -0.00000000       0.01579537
Si       2.02742798       1.17053609       2.93717884      -0.00000000       0.00000000      -0.01579537
Si       2.02742798      -1.17053609      -0.42086840      -0.00000000      -0.00000000      -0.01579537
4
Lattice="2.027085663755384 -3.5110153609188073 7.830937197984069e-34 2.027085663755384 3.5110153609188073 -7.83093719798404e-34 -2.887803691333762e-48 1.4749992067171699e-33 6.718362968651724" Properties=species:S:1:pos:R:3:forces:R:3 cutoff=-1.0 nneightol=1.2 n_minim_iter=3 energy=-652.1626600001581 stress="0.06033108975165397 -5.903684260300532e-17 8.307197117453357e-19 -5.903684260300532e-17 0.06033108975165404 1.0220492608485853e-17 8.307197117453357e-19 1.0220492608485853e-17 0.060515800081168254" free_energy=-652.1626600001581 pbc="T T T"
Si       2.02708566       1.17033845       0.42156553       0.00000000       0.00000000       0.00818819
Si       2.02708566      -1.17033845       3.78074702       0.00000000       0.00000000       0.00818819
Si       2.02708566       1.17033845       2.93761595      -0.00000000      -0.00000000      -0.00818819
Si       2.02708566      -1.17033845      -0.42156553      -0.00000000      -0.00000000      -0.00818819
