4
Lattice="1.89179702614324 -3.2766885668878007 -1.3855193957290403e-19 1.89179702614324 3.2766885668878007 1.385519395729356e-19 3.756556382113395e-32 2.6379056590613815e-19 6.236548867167049" Properties=species:S:1:pos:R:3:forces:R:3 cutoff=-1.0 nneightol=1.2 n_minim_iter=2 energy=-652.5929798088675 stress="-0.0288951683012238 -2.9064291743018003e-16 -1.2860521090885026e-16 -2.9064291743018003e-16 -0.02889516830122347 -2.402320537344326e-17 -1.2860521090885026e-16 -2.402320537344326e-17 -0.03028609704939866" free_energy=-652.5929798088675 pbc="T T T"
Si       1.89179703       1.09222952       0.39087936      -0.00000000       0.00000000       0.00378065
Si       1.89179703      -1.09222952       3.50915380       0.00000000       0.00000000       0.00378065
Si       1.89179703       1.09222952       2.72739507      -0.00000000      -0.00000000      -0.00378065
Si       1.89179703      -1.09222952      -0.39087936       0.00000000      -0.00000000      -0.00378065
