4
Lattice="1.8560552542346433 -3.214782001989573 4.308901188462007e-18 1.8560552542346431 3.214782001989573 -4.3089011884619684e-18 -5.292197102778634e-32 -8.720527999949979e-18 6.138051230179285" Properties=species:S:1:pos:R:3:forces:R:3 cutoff=-1.0 nneightol=1.2 n_minim_iter=3 energy=-652.5138690781661 stress="-0.04913146397871584 -4.541295584846563e-18 -1.607783440570825e-17 -4.541295584846563e-18 -0.049131463978715775 -8.448416109208989e-17 -1.607783440570825e-17 -8.448416109208989e-17 -0.049118894614575095" free_energy=-652.5138690781661 pbc="T T T"
Si       1.85605525       1.07159400       0.38827527       0.00000000       0.00000000      -0.00002494
Si       1.85605525      -1.07159400       3.45730089       0.00000000       0.00000000      -0.00002494
Si       1.85605525       1.07159400       2.68075034       0.00000000       0.00000000       0.00002494
Si       1.85605525      -1.07159400      -0.38827527      -0.00000000      -0.00000000       0.00002494
