4
Lattice="2.053644215666829 -3.557016122204885 -7.966457929905601e-19 2.05364421566683 3.557016122204885 7.9664579299056e-19 5.7025452931838316e-36 -1.5291829224601452e-18 6.824258626075017" Properties=species:S:1:pos:R:3:forces:R:3 cutoff=-1.0 nneightol=1.2 n_minim_iter=3 energy=-651.894395141135 stress="0.07115672335534556 9.990850286662439e-17 1.3538762278514598e-18 9.990850286662439e-17 0.07115672335534551 2.943491682663159e-17 1.3538762278514598e-18 2.943491682663159e-17 0.07144108501656499" free_energy=-651.894395141135 pbc="T T T"
Si       2.05364422       1.18567204       0.43049339       0.00000000      -0.00000000       0.00509499
Si       2.05364422      -1.18567204       3.84262270      -0.00000000       0.00000000       0.00509499
Si       2.05364422       1.18567204       2.98163593       0.00000000      -0.00000000      -0.00509499
Si       2.05364422      -1.18567204      -0.43049339      -0.00000000       0.00000000      -0.00509499
