4
Lattice="1.7505171147105425 -3.0319845821975355 3.223635004944043e-17 1.7505171147105425 3.0319845821975355 -3.2236350049440426e-17 -5.6840616878049295e-34 6.012197089077629e-17 5.9420839240840415" Properties=species:S:1:pos:R:3:forces:R:3 cutoff=-1.0 nneightol=1.2 n_minim_iter=3 energy=-651.2793624648929 stress="-0.21165062689599018 -3.814688291271113e-16 1.2524376586068763e-16 -3.814688291271113e-16 -0.21165062689599137 -5.796982362155029e-16 1.2524376586068763e-16 -5.796982362155029e-16 -0.21177908869696552" free_energy=-651.2793624648929 pbc="T T T"
Si       1.75051711       1.01066153       0.40580649      -0.00000000       0.00000000      -0.00281503
Si       1.75051711      -1.01066153       3.37684846       0.00000000      -0.00000000      -0.00281503
Si       1.75051711       1.01066153       2.56523547      -0.00000000       0.00000000       0.00281503
Si       1.75051711      -1.01066153      -0.40580649       0.00000000      -0.00000000       0.00281503
