12
Lattice="5.620223274122382 3.4370365890836694e-07 1.4066746079827496e-06 3.437036774144295e-07 5.6202094400173355 7.126418446340715e-08 1.772410016202395e-06 8.979290321265189e-08 6.786475735179857" Properties=species:S:1:pos:R:3:forces:R:3 cutoff=-1.0 nneightol=1.2 n_minim_iter=1 energy=-1955.999903586858 stress="-0.01530095551021091 3.4036058801184655e-08 2.9347086506431955e-08 3.4036058801184655e-08 -0.015303330897409682 -9.796988110743545e-10 2.9347086506431955e-08 -9.796988110743545e-10 -0.01435132715396502" free_energy=-1955.999903586858 pbc="T T T"
Si       0.45514993       0.45515809       0.00000334       0.00294816       0.00276809      -0.00008019
Si      -0.45514832      -0.45515797       3.39324118      -0.00295222      -0.00276376      -0.00008168
Si       2.35496373       3.26526303       5.08985398      -0.00294603       0.00276251       0.00007467
Si       3.26526166       2.35494675       1.69661628       0.00295002      -0.00276231       0.00008230
Si       0.70756562       3.74224384      -0.07704357      -0.01734221      -0.00406692       0.07821192
Si       0.93215042       2.10254095       1.61956635      -0.00425111       0.01729910       0.07849081
Si       1.87796319       4.91264580       3.47029122       0.00425012       0.01729974      -0.07848863
Si       2.10254745       0.93213909       5.16690138       0.01731273      -0.00406659      -0.07821921
Si       3.51767777       4.68807064       1.77366382      -0.01732391       0.00406690      -0.07821329
Si       3.74226086       0.70756400       0.07705379      -0.00422783      -0.01730320      -0.07848542
Si       4.68807495       3.51766893       5.01280517       0.00425566      -0.01729975       0.07849619
Si       4.91265881       1.87796618       3.31619526       0.01732662       0.00406619       0.07821253
12
Lattice="5.625660290026859 -2.4232449725221176e-07 8.991000281117791e-07 -2.4232554862834585e-07 5.625687364906672 8.79793827800726e-08 1.1645172408192677e-06 1.1023097188318986e-07 6.773314991534701" Properties=species:S:1:pos:R:3:forces:R:3 cutoff=-1.0 nneightol=1.2 n_minim_iter=2 energy=-1956.000578942116 stress="-0.014370103448571906 9.194542811131254e-09 2.069717335635581e-08 9.194542811131254e-09 -0.014361709321787505 2.7763020221340738e-09 2.069717335635581e-08 2.7763020221340738e-09 -0.015579367711101744" free_energy=-1956.000578942116 pbc="T T T"
Si       0.45563235       0.45564127       0.00000215      -0.00691740      -0.00712077      -0.00002654
Si      -0.45563110      -0.45564107       3.38665968       0.00691227       0.00712338      -0.00002877
Si       2.35719900       3.26848490       5.07998429       0.00691337      -0.00712448       0.00002664
Si       3.26846227       2.35720224       1.69332699      -0.00691228       0.00712448       0.00002945
Si       0.70800175       3.74583311      -0.07577907      -0.01656108       0.01302885       0.07824787
Si       0.93299103       2.10483754       1.61754463       0.01284640       0.01653490       0.07833523
Si       1.87983989       4.91768127       3.46244217      -0.01284658       0.01653458      -0.07833483
Si       2.10482846       0.93298928       5.15576598       0.01654940       0.01303185      -0.07825222
Si       3.52083241       4.69269782       1.76910876      -0.01655273      -0.01303108      -0.07824861
Si       3.74582060       0.70800583       0.07578499       0.01285901      -0.01653572      -0.07833412
Si       4.69267024       3.52084968       5.00420282      -0.01284490      -0.01653484       0.07833745
Si       4.91765859       1.87985425       3.31087901       0.01655453      -0.01303115       0.07824843
12
Lattice="5.6300305154288885 -4.103370592271414e-06 -3.248038225110817e-06 -4.103342866672424e-06 5.629741929248451 2.2982592284566704e-09 -3.839279532637002e-06 6.962252060092055e-09 6.763182925011793" Properties=species:S:1:pos:R:3:forces:R:3 cutoff=-1.0 nneightol=1.2 n_minim_iter=3 energy=-1956.003802496867 stress="-0.01298975932803148 -6.919406284391227e-08 -2.020848486651189e-07 -6.919406284391227e-08 -0.013068318937594478 2.7285751144562647e-08 -2.020848486651189e-07 2.7285751144562647e-08 -0.014160700807995155" free_energy=-1956.003802496867 pbc="T T T"
Si       0.45584859       0.45580666      -0.00000596       0.03678343       0.03777180      -0.00006558
Si      -0.45585044      -0.45580603       3.38158598      -0.03669911      -0.03778564      -0.00005394
Si       2.35916152       3.27067555       5.07239079      -0.03673368       0.03778643       0.00008819
Si       3.27086149       2.35906220       1.69079962       0.03671257      -0.03778680       0.00005425
Si       0.70627711       3.74890945      -0.06529388       0.02884772       0.01779926       0.01066516
Si       0.93406581       2.10862105       1.62552343       0.01873710      -0.02859082       0.01069039
Si       1.88094156       4.92349142       3.44686234      -0.01873796      -0.02859177      -0.01070767
Si       2.10872827       0.93403748       5.13767878      -0.02875368       0.01780115      -0.01062301
Si       3.52129279       4.69570028       1.75608716       0.02878147      -0.01780280      -0.01066278
Si       3.74908514       0.70624600       0.06527017       0.01861556       0.02860900      -0.01072193
Si       4.69595736       3.52111673       5.00711334      -0.01876426       0.02858813       0.01067064
Si       4.92374559       1.88082838       3.31629517      -0.02878915      -0.01779796       0.01066629
12
Lattice="5.622238998288475 -1.8380885001446203e-06 5.002175015902571e-06 -1.8382828803993375e-06 5.625497494480881 -1.1456577586732976e-06 6.116853506702111e-06 -1.379460861977617e-06 6.777665496037083" Properties=species:S:1:pos:R:3:forces:R:3 cutoff=-1.0 nneightol=1.2 n_minim_iter=4 energy=-1956.004467925329 stress="-0.014187058429965236 -8.581570777903627e-08 3.511872656985541e-07 -8.581570777903627e-08 -0.013303594598356859 -5.039777088515632e-08 3.511872656985541e-07 -5.039777088515632e-08 -0.012429194350671713" free_energy=-1956.004467925329 pbc="T T T"
Si       0.45665226       0.45693176      -0.00000922       0.04375380       0.03638212       0.00224171
Si      -0.45664613      -0.45693226       3.38882326      -0.04392556      -0.03637388       0.00220967
Si       2.35447292       3.26967860       5.08326005      -0.04391433       0.03637917      -0.00223975
Si       3.26777010       2.35581558       1.69442803       0.04393110      -0.03637547      -0.00220028
Si       0.70609436       3.74657366      -0.06392349       0.02547542       0.00623759       0.00438214
Si       0.93329784       2.10624627       1.63052119       0.00060396      -0.02627656      -0.00301487
Si       1.87782402       4.91899441       3.45272862      -0.00058362      -0.02627431       0.00304238
Si       2.10502751       0.93382346       5.14717489      -0.02553242       0.00623576      -0.00445133
Si       3.51721525       4.69167066       1.75834195       0.02553686      -0.00622206      -0.00439220
Si       3.74441452       0.70650067       0.06389830       0.00076201       0.02624202       0.00304914
Si       4.68894494       3.51924786       5.01935699      -0.00057605       0.02627661      -0.00300842
Si       4.91614574       1.87892138       3.32491346      -0.02553115      -0.00623099       0.00438181
12
Lattice="5.628341632194885 9.082873513269106e-07 3.611588882920902e-06 9.08888662960732e-07 5.618477473863794 -9.712745649591235e-07 4.4393535236134495e-06 -1.1690161643996343e-06 6.778775875369041" Properties=species:S:1:pos:R:3:forces:R:3 cutoff=-1.0 nneightol=1.2 n_minim_iter=5 energy=-1956.004705488319 stress="-0.01228366084178223 7.569853341660268e-08 9.696499555566982e-08 7.569853341660268e-08 -0.014960935952020372 -7.260237432963555e-08 9.696499555566982e-08 -7.260237432963555e-08 -0.012200414643858078" free_energy=-1956.004705488319 pbc="T T T"
Si       0.45853046       0.45765549       0.00002007       0.01768175       0.04078427      -0.00662611
Si      -0.45852590      -0.45765599       3.38940770      -0.01769823      -0.04080226      -0.00662303
Si       2.35564537       3.26689359       5.08406340      -0.01767485       0.04080578       0.00659495
Si       3.27270119       2.35158357       1.69467588       0.01768906      -0.04080258       0.00662434
Si       0.70758099       3.74237617      -0.06254540       0.02044569      -0.00365037      -0.01217731
Si       0.93472686       2.10289458       1.63207597       0.01365361      -0.01814658       0.00984436
Si       1.87944875       4.91213325       3.45200620      -0.01364989      -0.01814424      -0.00982233
Si       2.10659403       0.93313687       5.14662884      -0.02053490      -0.00368591       0.01215059
Si       3.52175292       4.68534036       1.75724057       0.02050224       0.00368833       0.01217061
Si       3.74889455       0.70634453       0.06261994       0.01371700       0.01812532      -0.00980960
Si       4.69361954       3.51558242       5.02146582      -0.01363502       0.01814766       0.00985135
Si       4.92076393       1.87610180       3.32684566      -0.02049646       0.00368058      -0.01217783
12
Lattice="5.626544531584388 4.6177720886720245e-06 -1.586997842026151e-06 4.6178392957755035e-06 5.625257975492461 4.114033942391305e-07 -1.8370548172653026e-06 5.007714618817526e-07 6.772767470975629" Properties=species:S:1:pos:R:3:forces:R:3 cutoff=-1.0 nneightol=1.2 n_minim_iter=6 energy=-1956.005598757425 stress="-0.012693341794942418 6.484303559396016e-08 -1.8379378547149575e-08 6.484303559396016e-08 -0.013041251689660487 3.140667373736072e-08 -1.8379378547149575e-08 3.140667373736072e-08 -0.012646702620187498" free_energy=-1956.005598757425 pbc="T T T"
Si       0.46081385       0.46071045       0.00000603      -0.00022443       0.00246790      -0.00095370
Si      -0.46081448      -0.46071044       3.38638961       0.00021391      -0.00245346      -0.00095559
Si       2.35245865       3.27334180       5.07956984       0.00024383       0.00244879       0.00095300
Si       3.27408821       2.35192137       1.69318582      -0.00024505      -0.00245156       0.00093954
Si       0.70867628       3.74773552      -0.05995887       0.00489802       0.01619093      -0.00222443
Si       0.93532836       2.10412526       1.63320080       0.01805679      -0.00475176       0.00119467
Si       1.87794914       4.91675530       3.44637462      -0.01807198      -0.00475346      -0.00120136
Si       2.10459863       0.93510786       5.13953368      -0.00488253       0.01620864       0.00223820
Si       3.52194901       4.69015562       1.75314982       0.00489363      -0.01621572       0.00223806
Si       3.74859939       0.70850701       0.05998970       0.01805827       0.00476816      -0.00120146
Si       4.69121861       3.52113751       5.01958304      -0.01805981       0.00476079       0.00120243
Si       4.91787183       1.87752795       3.32642368      -0.00488065      -0.01621926      -0.00222937
12
Lattice="5.626482459809515 4.667624907181517e-06 -2.067556574355848e-06 4.6676048340732365e-06 5.626623202433262 -1.271875684823821e-07 -2.416961212719063e-06 -1.4954235038829303e-07 6.771198846582613" Properties=species:S:1:pos:R:3:forces:R:3 cutoff=-1.0 nneightol=1.2 n_minim_iter=7 energy=-1956.005677836744 stress="-0.012705813918583102 5.1005392385558934e-08 -2.7971700683984764e-08 5.1005392385558934e-08 -0.012668180994938797 -6.696810685533922e-09 -2.7971700683984764e-08 -6.696810685533922e-09 -0.012688441555210888" free_energy=-1956.005677836744 pbc="T T T"
Si       0.46153130       0.46155358       0.00000269      -0.00430572      -0.00487203       0.00002599
Si      -0.46153284      -0.46155371       3.38560196       0.00430214       0.00486878       0.00002940
Si       2.35170942       3.27486684       5.07839632       0.00432796      -0.00487263      -0.00003081
Si       3.27477475       2.35176094       1.69279638      -0.00432822       0.00487243      -0.00003943
Si       0.70912124       3.74920433      -0.05915461      -0.00019248       0.01633653      -0.00071768
Si       0.93588197       2.10418274       1.63362659       0.01578069       0.00001158      -0.00054468
Si       1.87736400       4.91749522       3.44477137      -0.01579636       0.00001129       0.00054486
Si       2.10412289       0.93589389       5.13755238       0.00020847       0.01633549       0.00072792
Si       3.52236260       4.69073418       1.75195241      -0.00019883      -0.01633975       0.00072366
Si       3.74912216       0.70913222       0.05917092       0.01577726      -0.00000393       0.00054520
Si       4.69060230       3.52244479       5.01922407      -0.01578244      -0.00000473      -0.00054360
Si       4.91736497       1.87742366       3.32644337       0.00020754      -0.01634303      -0.00072082
12
Lattice="5.627028705619502 2.4871629774295126e-06 -1.3285942461169149e-06 2.4870938783463762e-06 5.628058659409645 -3.547099396220618e-08 -1.5238878682090593e-06 -3.874098602454861e-08 6.768814678628598" Properties=species:S:1:pos:R:3:forces:R:3 cutoff=-1.0 nneightol=1.2 n_minim_iter=8 energy=-1956.005737653167 stress="-0.012674425278163749 6.627168526577747e-08 -8.485987878408198e-08 6.627168526577747e-08 -0.01239650153007466 -2.6381647788906244e-09 -8.485987878408198e-08 -2.6381647788906244e-09 -0.012689866390773118" free_energy=-1956.005737653167 pbc="T T T"
Si       0.46213273       0.46222458      -0.00000165      -0.00338666      -0.00577712       0.00069019
Si      -0.46213451      -0.46222469       3.38440539       0.00343387       0.00577826       0.00070437
Si       2.35138085       3.27625478       5.07661295       0.00344110      -0.00577805      -0.00070676
Si       3.27564819       2.35180636       1.69220470      -0.00343530       0.00577842      -0.00070393
Si       0.70962768       3.75129179      -0.05840930      -0.00556948       0.00761483       0.00036702
Si       0.93709434       2.10427415       1.63380256       0.00586282       0.00531408      -0.00193298
Si       1.87642201       4.91830399       3.44280775      -0.00587301       0.00531627       0.00193152
Si       2.10388956       0.93726331       5.13501982       0.00554969       0.00760401      -0.00035888
Si       3.52314165       4.69079798       1.75061208      -0.00557164      -0.00761064      -0.00037115
Si       3.75060797       0.70975715       0.05839950       0.00584618      -0.00531493       0.00193894
Si       4.68993473       3.52378713       5.01820848      -0.00586027      -0.00531742      -0.00192633
Si       4.91740391       1.87676902       3.32599695       0.00556269      -0.00760770       0.00036799
