12
Lattice="5.834705310913979 3.9048402069558314e-05 -1.931061314046413e-05 3.90520103814619e-05 5.83597173413754 1.756154957639687e-05 -2.343955416037175e-05 2.1363330047626008e-05 7.102419714349715" Properties=species:S:1:pos:R:3:forces:R:3 cutoff=-1.0 nneightol=1.2 n_minim_iter=1 energy=-1955.519112004594 stress="0.046694439350886276 6.961645316016614e-07 -5.137484526865662e-07 6.961645316016614e-07 0.04693554359997111 7.671280293753367e-07 -5.137484526865662e-07 7.671280293753367e-07 0.04599336759663685" free_energy=-1955.519112004594 pbc="T T T"
Si       0.45650021       0.45661105       0.00000849       0.01308802       0.01167975       0.00054706
Si      -0.45653335      -0.45661684       3.55121307      -0.01297296      -0.01117809       0.00055803
Si       2.46084187       3.37464215       5.32682123      -0.01281472       0.01119952      -0.00062132
Si       3.37387301       2.46139471       1.77559915       0.01289425      -0.01126807      -0.00067060
Si       0.74134832       3.87652352      -0.12398905       0.03465342      -0.00369931      -0.05688303
Si       0.95832756       2.17652392       1.65162246      -0.00466624      -0.03481037      -0.05889334
Si       1.95904734       5.09452480       3.67520676       0.00461077      -0.03483784       0.05872474
Si       2.17606377       0.95856064       5.45080753      -0.03480728      -0.00337686       0.05700190
Si       3.65868217       4.87747832       1.89960248       0.03459935       0.00321222       0.05698633
Si       3.87567270       0.74149707       0.12397161      -0.00461082       0.03501844       0.05881975
Si       4.87638545       3.65950895       5.20281510       0.00471102       0.03480940      -0.05866786
Si       5.09340731       1.95950175       3.42720113      -0.03468480       0.00325119      -0.05690164
12
Lattice="5.8316153697168085 2.4974867317205938e-05 -8.983790738861798e-06 2.5007907161532114e-05 5.8280243524875415 2.12322152613599e-06 -1.0811994836325127e-05 2.5051683546435358e-06 7.115873345817659" Properties=species:S:1:pos:R:3:forces:R:3 cutoff=-1.0 nneightol=1.2 n_minim_iter=2 energy=-1955.519593379996 stress="0.04640215316653194 4.725996931678895e-07 -2.3657228690955567e-07 4.725996931678895e-07 0.04571271379653112 3.266298670961721e-08 -2.3657228690955567e-07 3.266298670961721e-08 0.047033639187610755" free_energy=-1955.519593379996 pbc="T T T"
Si       0.45644423       0.45615477       0.00001594       0.01300326       0.01761360      -0.00197870
Si      -0.45646941      -0.45616281       3.55794828      -0.01283848      -0.01746970      -0.00190526
Si       2.45935704       3.37018633       5.33689800      -0.01273505       0.01749212       0.00181518
Si       3.37226762       2.45786924       1.77895241       0.01281702      -0.01752079       0.00187989
Si       0.74144097       3.87119027      -0.12504703       0.03323560      -0.01432668      -0.06019601
Si       0.95775113       2.17305665       1.65390402      -0.01019076      -0.03265863      -0.05522668
Si       1.95806999       5.08707565       3.68299895       0.01019686      -0.03266406       0.05520370
Si       2.17442176       0.95718743       5.46194980      -0.03354384      -0.01432502       0.06023616
Si       3.65723028       4.87086820       1.90400997       0.03330927       0.01426198       0.06021784
Si       3.87355282       0.74097724       0.12505323      -0.01013702       0.03267007       0.05528201
Si       4.87387072       3.65499655       5.21182970       0.01027738       0.03263702      -0.05512143
Si       5.09021609       1.95685838       3.43288248      -0.03339425       0.01429009      -0.06020670
12
Lattice="5.820844762177827 -4.164525684146043e-05 3.508437355620561e-05 -4.1735627053846706e-05 5.833526899056879 -4.895842468086792e-05 4.289568183853031e-05 -5.9660898375085296e-05 7.122315656563228" Properties=species:S:1:pos:R:3:forces:R:3 cutoff=-1.0 nneightol=1.2 n_minim_iter=3 energy=-1955.521076675666 stress="0.044264887208841495 -1.7529507280471566e-07 1.6424804552046998e-06 -1.7529507280471566e-07 0.04669228069047459 -1.148293218634637e-06 1.6424804552046998e-06 -1.148293218634637e-06 0.04648475728733569" free_energy=-1955.521076675666 pbc="T T T"
Si       0.45661754       0.45768974      -0.00002460      -0.00926462      -0.02499988       0.00688800
Si      -0.45660520      -0.45770123       3.56113292       0.00879149       0.02504945       0.00679595
Si       2.45381610       3.37437718       5.34174997       0.00861456      -0.02504463      -0.00693569
Si       3.36703123       2.45904808       1.78059803      -0.00852951       0.02514225      -0.00648070
Si       0.74269217       3.87420060      -0.12977711       0.00407778       0.00244069      -0.01867047
Si       0.95542428       2.17242450       1.65087228      -0.01238792      -0.00745873      -0.03614053
Si       1.95496643       5.08916405       3.69081240       0.01265809      -0.00711540       0.03639494
Si       2.16775310       0.95739606       5.47149812      -0.00468925       0.00200166       0.01826288
Si       3.65310010       4.87602145       1.91031275       0.00454426      -0.00175642       0.01837380
Si       3.86584983       0.74429984       0.12970495      -0.01181527       0.00643543       0.03637868
Si       4.86541684       3.66100401       5.21204946       0.01261857       0.00706926      -0.03625311
Si       5.07814575       1.95923352       3.43142191      -0.00461819      -0.00176368      -0.01861377
12
Lattice="5.828968423754607 -6.771832487826179e-05 3.9929218235648984e-05 -6.772683612281623e-05 5.828570545511142 -6.064070725259542e-05 4.874770235346448e-05 -7.388472875274513e-05 7.118437551274222" Properties=species:S:1:pos:R:3:forces:R:3 cutoff=-1.0 nneightol=1.2 n_minim_iter=4 energy=-1955.521705159593 stress="0.045606819683966945 -9.900940964620571e-07 9.553332359559188e-07 -9.900940964620571e-07 0.04553467547813204 -3.0287307945748237e-06 9.553332359559188e-07 -3.0287307945748237e-06 0.04563079668278244" free_energy=-1955.521705159593 pbc="T T T"
Si       0.45762031       0.45761068      -0.00000155      -0.03462086      -0.03559768      -0.00042148
Si      -0.45760340      -0.45761764       3.55921864       0.03495826       0.03415959      -0.00009621
Si       2.45686749       3.37178943       5.33880921       0.03467808      -0.03415227      -0.00003564
Si       3.37208644       2.45663807       1.77960150      -0.03463460       0.03428735       0.00046402
Si       0.74483266       3.87065868      -0.13170737      -0.00812313       0.00335913      -0.01168596
Si       0.95645396       2.16943583       1.64790384       0.00239492       0.00762238      -0.01044208
Si       1.95797124       5.08368997       3.69085816      -0.00207812       0.00766143       0.01104038
Si       2.16964682       0.95631830       5.47051298       0.00732012       0.00206612       0.01139118
Si       3.65930227       4.87209945       1.91126018      -0.00755729      -0.00168798       0.01138185
Si       3.87095151       0.74478338       0.13170276       0.00232384      -0.00835232       0.01098728
Si       4.87249374       3.65899406       5.20714724      -0.00216843      -0.00768153      -0.01091714
Si       5.08409981       1.95778145       3.42755985       0.00750722      -0.00168421      -0.01166620
12
Lattice="5.830807143997774 2.1389807335445466e-05 -5.464113474164977e-05 2.1402644687324557e-05 5.830215475857929 0.00023977142263178098 -6.639366200679063e-05 0.00029173823177176903 7.114185038392349" Properties=species:S:1:pos:R:3:forces:R:3 cutoff=-1.0 nneightol=1.2 n_minim_iter=5 energy=-1955.522271292383 stress="0.04566294731899484 -2.682829067019674e-06 -3.5938655933710348e-06 -2.682829067019674e-06 0.04555355430089785 4.444115014936263e-06 -3.5938655933710348e-06 4.444115014936263e-06 0.0452886204192176" free_energy=-1955.522271292383 pbc="T T T"
Si       0.45544400       0.45531837      -0.00000194      -0.01591588      -0.01653728      -0.00087708
Si      -0.45546003      -0.45524008       3.55708336       0.01629608       0.01595177      -0.00068978
Si       2.45994146       3.37072264       5.33573589       0.01637809      -0.01608482       0.00116107
Si       3.37082955       2.45981369       1.77862940      -0.01657595       0.01548340      -0.00045208
Si       0.74500132       3.87190932      -0.13308034      -0.00392343      -0.01237023      -0.00746114
Si       0.95681886       2.17023165       1.64542533      -0.00901803       0.00772436      -0.00795401
Si       1.95857308       5.08543198       3.69051588       0.00869323       0.00577199       0.00718748
Si       2.17032343       0.95696548       5.46887708       0.00548646      -0.01019366       0.00846405
Si       3.66041400       4.87359146       1.91192757      -0.00500180       0.00920828       0.00879334
Si       3.87223559       0.74492242       0.13322939      -0.01037187      -0.00281479       0.00719509
Si       4.87396332       3.66027899       5.20252372       0.00863925      -0.00568019      -0.00760842
Si       5.08575939       1.95855124       3.42389300       0.00531383       0.00954116      -0.00775851
12
Lattice="5.830129476437999 0.00018456145089965523 -5.718664619913746e-06 0.00018460690650421097 5.830026025287972 0.0003371747486102078 -6.835711317473231e-06 0.0004102738506769954 7.1152431838830275" Properties=species:S:1:pos:R:3:forces:R:3 cutoff=-1.0 nneightol=1.2 n_minim_iter=6 energy=-1955.522552754965 stress="0.04534665833384565 -1.6207987772464816e-06 -1.3076907183648791e-06 -1.6207987772464816e-06 0.04532866007735112 6.067011029070788e-06 -1.3076907183648791e-06 6.067011029070788e-06 0.045213234813523656" free_energy=-1955.522552754965 pbc="T T T"
Si       0.45313463       0.45293062      -0.00002186      -0.00072622      -0.00060265      -0.00035793
Si      -0.45308899      -0.45288828       3.55759557      -0.00025967       0.00067731      -0.00068342
Si       2.46208289       3.36847804       5.33661323       0.00054217      -0.00089427       0.00100111
Si       3.36823327       2.46214278       1.77896227      -0.00061916       0.00029924      -0.00065453
Si       0.74528853       3.87149898      -0.13550013      -0.00409077      -0.02397275      -0.00047194
Si       0.95646854       2.17000316       1.64325460      -0.01996550       0.00774581      -0.00214146
Si       1.95884420       5.08512500       3.69364214       0.01936838       0.00555075       0.00106239
Si       2.16985887       0.95676110       5.47220308       0.00539286      -0.02081245       0.00130335
Si       3.66041738       4.87388928       1.91481041      -0.00477889       0.01967666       0.00203279
Si       3.87145901       0.74529902       0.13576916      -0.01988199      -0.00212222       0.00105737
Si       4.87386351       3.66064136       5.20092285       0.01969307      -0.00543005      -0.00133317
Si       5.08497781       1.95901811       3.42200030       0.00532572       0.01988462      -0.00081456
12
Lattice="5.828575695162405 0.0003967681147113159 7.701272353192657e-05 0.0003968562615752635 5.828865497927153 3.972810610689779e-05 9.389124777557572e-05 4.826339366292098e-05 7.118556991423097" Properties=species:S:1:pos:R:3:forces:R:3 cutoff=-1.0 nneightol=1.2 n_minim_iter=7 energy=-1955.522696211942 stress="0.04502737138448181 6.418493603980715e-06 4.798410055891355e-06 6.418493603980715e-06 0.04508176357087329 1.8044716444833444e-06 4.798410055891355e-06 1.8044716444833444e-06 0.04524988585112983" free_energy=-1955.522696211942 pbc="T T T"
Si       0.45130274       0.45104729      -0.00007447       0.00644814       0.00934184       0.00160805
Si      -0.45123527      -0.45125426       3.55923569      -0.00796021      -0.00672424       0.00027627
Si       2.46335415       3.36587278       5.33900768      -0.00688211       0.00662947      -0.00045992
Si       3.36571951       2.46340680       1.77968327       0.00698610      -0.00587427       0.00050457
Si       0.74533670       3.86938317      -0.13784658      -0.00396414      -0.01910942       0.00323485
Si       0.95510101       2.16960843       1.64175548      -0.01960571       0.00041401       0.00299007
Si       1.95975690       5.08395128       3.69726326       0.01874869       0.00227429      -0.00346421
Si       2.16932003       0.95511433       5.47686867       0.00328554      -0.01874742      -0.00415257
Si       3.65973853       4.87416054       1.91768157      -0.00324951       0.01939162      -0.00437803
Si       3.86923146       0.74550217       0.13798084      -0.01660637      -0.00391846      -0.00358855
Si       4.87398220       3.65987604       5.20108476       0.01947402      -0.00238556       0.00373266
Si       5.08367729       1.95985995       3.42145000       0.00332556       0.01870815       0.00369682
12
Lattice="5.82851698553447 6.645774644586752e-05 -0.00014654361129710984 6.647382198852808e-05 5.828445196000985 -0.0006021775282789697 -0.00017823128666825572 -0.0007329405468778467 7.119142081843514" Properties=species:S:1:pos:R:3:forces:R:3 cutoff=-1.0 nneightol=1.2 n_minim_iter=8 energy=-1955.522812576873 stress="0.045223512804364784 9.011427159926685e-06 -2.189012489257127e-05 9.011427159926685e-06 0.04521433355665144 -9.440031722768483e-05 -2.189012489257127e-05 -9.440031722768483e-05 0.045197197995373174" free_energy=-1955.522812576873 pbc="T T T"
Si       0.45159835       0.45148170      -0.00008277      -0.00470154      -0.00592318      -0.00038219
Si      -0.45179886      -0.45193767       3.55956608       0.00679018       0.00472400       0.00206107
Si       2.46257709       3.36523811       5.33902154       0.00538920      -0.00472279      -0.00149841
Si       3.36583493       2.46251345       1.77941960      -0.00580472       0.00688548       0.00146296
Si       0.74449046       3.86678285      -0.13774249       0.00286601       0.00773320       0.00043085
Si       0.95282824       2.16987738       1.64208449       0.00461045      -0.00508316       0.00241481
Si       1.96130550       5.08369648       3.69637317      -0.00413489      -0.00519522      -0.00081220
Si       2.16970720       0.95223204       5.47656387      -0.00348040       0.00515925       0.00055497
Si       3.65871947       4.87544713       1.91662466       0.00224446      -0.00351761      -0.00314900
Si       3.86722070       0.74470220       0.13719592       0.00410011      -0.00014424      -0.00082537
Si       4.87557939       3.65813835       5.20147747      -0.00450593       0.00464101       0.00058579
Si       5.08405279       1.96108801       3.42189423      -0.00337293      -0.00455674      -0.00084328
