12
Lattice="5.427064042911711 -0.0006443475786347298 0.0003989609400530517 -0.0006443725976403517 5.426866070612038 -5.310384804814146e-05 0.00046163948030888665 -6.751624625172016e-05 6.345277762611987" Properties=species:S:1:pos:R:3:forces:R:3 cutoff=-1.0 nneightol=1.2 n_minim_iter=1 energy=-1954.538598935433 stress="-0.11219071473974201 -9.337242776158878e-05 0.00012789315467404515 -9.337242776158878e-05 -0.11228974553375978 -1.906098876462142e-05 0.00012789315467404515 -1.906098876462142e-05 -0.10658776545758869" free_energy=-1954.538598935433 pbc="T T T"
Si       0.47280630       0.47275212       0.00002772      -0.00501036      -0.00265802       0.00115127
Si      -0.47249463      -0.47273898       3.17259968       0.00100152       0.00059050      -0.00118257
Si       2.24068603       3.18588788       4.75912149      -0.00013112       0.00204543      -0.00232606
Si       3.18618025       2.24026160       1.58652660       0.00191117      -0.00142026       0.00209651
Si       0.70053170       3.63974884       0.03846947      -0.01257462       0.01459474       0.13573708
Si       0.92641778       2.01246262       1.62474785       0.01247464       0.01004905       0.13689529
Si       1.78670825       4.72578016       3.13428926      -0.01364105       0.00894580      -0.13475489
Si       2.01286542       0.92620351       4.72070145       0.01190611       0.01191745      -0.13759409
Si       3.41400959       4.49995541       1.54810587      -0.00858937      -0.01171368      -0.13594600
Si       3.63983863       0.70044490      -0.03816706       0.01527243      -0.01029198      -0.13803364
Si       4.50043946       3.41369158       4.79765636      -0.01059327      -0.00974829       0.13899914
Si       4.72618695       1.78635515       3.21140052       0.00797392      -0.01231074       0.13495795
12
Lattice="5.44088253558456 5.81455385866317e-05 -0.000563906933582741 5.818231409314956e-05 5.441430918433153 9.042259362008375e-05 -0.0006605209218363294 9.972163544187986e-05 6.312221276808379" Properties=species:S:1:pos:R:3:forces:R:3 cutoff=-1.0 nneightol=1.2 n_minim_iter=2 energy=-1954.541904145867 stress="-0.10864320330649302 1.1370990037666636e-05 -0.0001788347185238962 1.1370990037666636e-05 -0.10839772324296314 2.6786922827751194e-05 -0.0001788347185238962 2.6786922827751194e-05 -0.10986869307483149" free_energy=-1954.541904145867 pbc="T T T"
Si       0.47403426       0.47406250      -0.00003516      -0.05489506      -0.05710800      -0.00122387
Si      -0.47431327      -0.47398099       3.15613414       0.05556969       0.05605649       0.00259523
Si       2.24596127       3.19486984       4.73399853       0.05367874      -0.05677147       0.00125338
Si       3.19431708       2.24671886       1.57777191      -0.05603295       0.05661020      -0.00287550
Si       0.70268724       3.64971788       0.03924258      -0.02300459       0.08357772       0.15186677
Si       0.92884276       2.01810162       1.61718268       0.07887712       0.02311644       0.15536607
Si       1.79121474       4.73884448       3.11677494      -0.07948382       0.02458374      -0.15388933
Si       2.01736386       0.92916362       4.69476130       0.02132226       0.08146139      -0.15451717
Si       3.42294865       4.51242933       1.53855210      -0.02685684      -0.08193459      -0.15431850
Si       3.64931794       0.70271953      -0.03961261       0.08352146      -0.02414050      -0.14883106
Si       4.51141334       3.42349148       4.77298137      -0.08023466      -0.02381189       0.15008471
Si       4.73794337       1.79175592       3.19487656       0.02753866      -0.08163953       0.15448926
12
Lattice="5.459149518826945 0.001292250586561717 0.007135871354590672 0.001290803743069123 5.4475020515263175 -0.0010634113062983224 0.008345440967680124 -0.0012485570066455844 6.284099939965532" Properties=species:S:1:pos:R:3:forces:R:3 cutoff=-1.0 nneightol=1.2 n_minim_iter=3 energy=-1954.550840639596 stress="-0.10259852568258288 0.00019636303333996985 0.0021807195842397788 0.00019636303333996985 -0.1078899183110705 -0.00033605969670779995 0.0021807195842397788 -0.00033605969670779995 -0.10567046631861819" free_energy=-1954.550840639596 pbc="T T T"
Si       0.47248930       0.47138209       0.00048643       0.03928680       0.09432755       0.00959768
Si      -0.46830668      -0.47207601       3.14162802      -0.06805497      -0.09624003      -0.03343681
Si       2.26404972       3.19473191       4.71543716      -0.02967247       0.09002741      -0.01700700
Si       3.20463497       2.25281697       1.57466246       0.06138461      -0.08590360       0.04076125
Si       0.70437579       3.65900389       0.05044965      -0.00118268      -0.00808313       0.04485783
Si       0.93950378       2.02173990       1.62225183       0.04082642      -0.02340959       0.04282569
Si       1.79791591       4.74545465       3.09315628      -0.03878725      -0.03173172      -0.04350109
Si       2.03249563       0.93454887       4.66515561      -0.00002463      -0.00051069      -0.03238971
Si       3.43593486       4.51299850       1.52427762       0.06352636       0.00612560      -0.02830600
Si       3.66674593       0.70275955      -0.04545615       0.01326007       0.02026650      -0.10531519
Si       4.52935477       3.42575588       4.76849848      -0.01850567       0.03127691       0.10128792
Si       4.76056211       1.78923680       3.19826463      -0.06205659       0.00385479       0.02062542
12
Lattice="5.453044914775945 0.0008559135726565153 0.0013632021981971555 0.000856287568678179 5.456676832475105 -0.00016981908219279744 0.001595955945052644 -0.00020472565829993735 6.280546131673746" Properties=species:S:1:pos:R:3:forces:R:3 cutoff=-1.0 nneightol=1.2 n_minim_iter=4 energy=-1954.552357492949 stress="-0.1055612044549269 0.00012898670000912536 0.00042063877233140665 0.00012898670000912536 -0.10390315281026435 -5.19627240034658e-05 0.00042063877233140665 -5.19627240034658e-05 -0.10477536647048179" free_energy=-1954.552357492949 pbc="T T T"
Si       0.47148429       0.47186334       0.00008665       0.10056637       0.08918347       0.00773383
Si      -0.47077754      -0.47205939       3.14018855      -0.10310960      -0.08693120      -0.00086368
Si       2.25664946       3.20044683       4.71085961      -0.09257646       0.08303172      -0.00825403
Si       3.19883298       2.25689834       1.57086596       0.09829574      -0.08263334       0.00147584
Si       0.70296633       3.66598050       0.05236702       0.03109744      -0.00028007       0.04487794
Si       0.93752053       2.02553010       1.62279729      -0.00285025      -0.03743539       0.01945972
Si       1.79124153       4.75399119       3.08818883       0.00482568      -0.03830898      -0.02299065
Si       2.02540209       0.93759288       4.65844747      -0.03068721       0.00470623      -0.03907752
Si       3.43001103       4.51973444       1.51846638       0.04342129      -0.00359587      -0.03965513
Si       3.66357596       0.70342923      -0.05144873      -0.01307210       0.03696262      -0.03486050
Si       4.51800803       3.43178426       4.76384633       0.00680223       0.03848190       0.03227338
Si       4.75177310       1.79155075       3.19375914      -0.04271314      -0.00318108       0.03988080
12
Lattice="5.456762368824426 -0.00037414096736398315 -0.004372854610791553 -0.0003745433400016857 5.453490428492693 0.0006145901393002457 -0.005110108572866541 0.0007115652127835177 6.27993825641816" Properties=species:S:1:pos:R:3:forces:R:3 cutoff=-1.0 nneightol=1.2 n_minim_iter=5 energy=-1954.552953307209 stress="-0.1037452783290512 -5.172857133260469e-05 -0.0013331143061203563 -5.172857133260469e-05 -0.10520901606538677 0.00018692943105632636 -0.0013331143061203563 0.00018692943105632636 -0.10452363270943382" free_energy=-1954.552953307209 pbc="T T T"
Si       0.47230044       0.47206147      -0.00027299       0.09478314       0.09759666      -0.01694222
Si      -0.47500926      -0.47179158       3.14027132      -0.07283572      -0.09284295       0.00962512
Si       2.25189892       3.19928924       4.70840798      -0.09301824       0.09388346       0.02183584
Si       3.19944534       2.25456477       1.56773025       0.07365075      -0.09734188      -0.01455133
Si       0.70268669       3.66407012       0.05340354       0.05762894      -0.00941386       0.01777579
Si       0.93637291       2.02416035       1.62301728      -0.00420083      -0.03624157       0.04992114
Si       1.78770308       4.75103580       3.08560065       0.00481409      -0.03257298      -0.05451125
Si       2.02146594       0.93768607       4.65479628      -0.05474646      -0.00843762      -0.01899349
Si       3.43001057       4.51614028       1.51416011       0.01632906       0.00555048      -0.02451320
Si       3.66628138       0.70238432      -0.05644358       0.00548040       0.04005874      -0.01697619
Si       4.51488101       3.42968592       4.76035676      -0.01013889       0.03222696       0.01614002
Si       4.75090664       1.78949672       3.18990322      -0.01774623       0.00753456       0.03118978
12
Lattice="5.456569404352015 -0.008462371264167122 0.000768940612981694 -0.008462148021187894 5.455960246236132 -0.0002659408300747486 0.0009017891022054524 -0.00031801217224041605 6.277328458303446" Properties=species:S:1:pos:R:3:forces:R:3 cutoff=-1.0 nneightol=1.2 n_minim_iter=6 energy=-1954.557744172476 stress="-0.10167701988026574 -0.0012775434511877386 0.00024818718868345306 -0.0012775434511877386 -0.10193597260043782 -8.673479020158506e-05 0.00024818718868345306 -8.673479020158506e-05 -0.10333714206103814" free_energy=-1954.557744172476 pbc="T T T"
Si       0.48017030       0.48010949       0.00001268      -0.01312426      -0.00961503       0.00153180
Si      -0.47952841      -0.48010645       3.13861701       0.00439510       0.00378650      -0.00235122
Si       2.24357405       3.20464590       4.70820131      -0.03216595       0.03558513      -0.00397832
Si       3.20541022       2.24249892       1.56964347       0.03580708      -0.03328607       0.00556710
Si       0.70054029       3.66753186       0.06460876       0.00399092       0.02302260      -0.00962671
Si       0.93815425       2.02027141       1.63379833       0.01279247       0.00713513      -0.00584557
Si       1.78043484       4.74692084       3.07401252      -0.02053400      -0.00933931       0.01202924
Si       2.02124795       0.93754744       4.64380229       0.00959433       0.01182976       0.00544268
Si       3.42773845       4.50965758       1.50504313      -0.00292684      -0.01161750       0.00933746
Si       3.66791639       0.70045998      -0.06416774       0.02408036       0.00602925       0.00509696
Si       4.51085506       3.42688713       4.77298576      -0.01027452      -0.00494931      -0.00364482
Si       4.74808095       1.77963423       3.20393554      -0.01163469      -0.01858115      -0.01355859
12
Lattice="5.453815490354224 0.0014539322199755417 0.00024082759367023658 0.0014537889802517668 5.453415536775743 0.00020700237437744877 0.00028358455351746865 0.00023583053761522873 6.283414066476555" Properties=species:S:1:pos:R:3:forces:R:3 cutoff=-1.0 nneightol=1.2 n_minim_iter=7 energy=-1954.558397972599 stress="-0.10212470900679696 0.0002072127448931145 7.971901979384571e-05 0.0002072127448931145 -0.10228893914471357 6.480058577303072e-05 7.971901979384571e-05 6.480058577303072e-05 -0.10293081852734472" free_energy=-1954.558397972599 pbc="T T T"
Si       0.48186972       0.48182354       0.00000647       0.00100920       0.00380038       0.00155428
Si      -0.48154929      -0.48155668       3.14166076      -0.00730104      -0.00744583      -0.00187919
Si       2.24643227       3.20902726       4.71282035      -0.00269869       0.00334786      -0.00059070
Si       3.20910074       2.24605230       1.57106653       0.00405207      -0.00317525       0.00156650
Si       0.70735188       3.66724547       0.06534829      -0.00865624       0.01815581      -0.01264391
Si       0.94127700       2.02080120       1.63588721       0.01042892       0.00054014      -0.00217969
Si       1.78773137       4.74771150       3.07681669      -0.01394499       0.00773357       0.01055301
Si       2.02110011       0.94127813       4.64777030       0.00280428       0.01002358       0.00123594
Si       3.43445854       4.51384121       1.50614809      -0.00072653      -0.01134766       0.00720908
Si       3.66748776       0.70729443      -0.06495304       0.01885391      -0.00669126       0.00913767
Si       4.51426326       3.43430678       4.77789027      -0.00961404      -0.00242194      -0.00270774
Si       4.74809916       1.78758342       3.20714054       0.00579313      -0.01251942      -0.01125524
12
Lattice="5.451130311703102 -6.519406363597374e-05 -0.00012913637196396187 -6.515020225988553e-05 5.451185275358714 -0.000800179483180084 -0.00014974013962098165 -0.000941898463800883 6.289080915279285" Properties=species:S:1:pos:R:3:forces:R:3 cutoff=-1.0 nneightol=1.2 n_minim_iter=8 energy=-1954.558474317199 stress="-0.10284231250332937 -1.4722780749739839e-05 -3.8669278930591486e-05 -1.4722780749739839e-05 -0.10280393691806178 -0.00025711270754854074 -3.8669278930591486e-05 -0.00025711270754854074 -0.10264122907567896" free_energy=-1954.558474317199 pbc="T T T"
Si       0.48175926       0.48176974      -0.00009729       0.00098931      -0.00090873      -0.00314268
Si      -0.48173218      -0.48214248       3.14460056      -0.00341225      -0.00509679       0.00363442
Si       2.24377764       3.20652252       4.71632503      -0.00535411       0.00611600      -0.00312959
Si       3.20712499       2.24363165       1.57185997       0.00505454      -0.00221410       0.00292969
Si       0.70598389       3.66547189       0.06383174      -0.00603870       0.00891740      -0.00043569
Si       0.93994137       2.01931716       1.63621868       0.00542194       0.00857924       0.00212564
Si       1.78545760       4.74469366       3.07941583      -0.00677065       0.00223583       0.00391676
Si       2.01945591       0.93927119       4.65234110       0.00445259       0.00772378       0.00256817
Si       3.43148218       4.51092390       1.50721181      -0.00595377      -0.00543797      -0.00233363
Si       3.66542512       0.70601794      -0.06456694       0.01069932      -0.00983017       0.00278223
Si       4.51095401       3.43081132       4.78052290      -0.00540097      -0.00132486      -0.00264467
Si       4.74502219       1.78507338       3.20855416       0.00631275      -0.00875963      -0.00627067
12
Lattice="5.451071784949079 -0.00023368703952720302 -5.985981467779833e-06 -0.0002337105168545471 5.451132959827732 0.00019308138452440516 -5.6281236107420045e-06 0.00021946085089269633 6.289208674270151" Properties=species:S:1:pos:R:3:forces:R:3 cutoff=-1.0 nneightol=1.2 n_minim_iter=9 energy=-1954.558489843491 stress="-0.10286195080757392 -1.132896141352297e-05 3.0892795680001963e-06 -1.132896141352297e-05 -0.10279989662607936 -1.2778454695146213e-05 3.0892795680001963e-06 -1.2778454695146213e-05 -0.10263677807160757" free_energy=-1954.558489843491 pbc="T T T"
Si       0.48177466       0.48178057      -0.00001007       0.00015324      -0.00475714      -0.00065906
Si      -0.48169416      -0.48160363       3.14457902      -0.00271505      -0.00275879      -0.00009288
Si       2.24370327       3.20735551       4.71704302      -0.00445176       0.00343064      -0.00058470
Si       3.20711596       2.24375601       1.57238663       0.00461783      -0.00243259       0.00159651
Si       0.70583808       3.66549489       0.06451286      -0.00681444       0.01433304      -0.00296508
Si       0.93994648       2.01959804       1.63666393       0.00566007       0.00618924       0.00175246
Si       1.78531056       4.74517188       3.08039795      -0.00591149       0.00670063       0.00307234
Si       2.01952373       0.94010905       4.65264837       0.00505883       0.00468505      -0.00151948
Si       3.43132294       4.51101037       1.50812608      -0.00484049      -0.00399274      -0.00049281
Si       3.66543907       0.70584539      -0.06434683       0.00885760      -0.00910799       0.00325966
Si       4.51086927       3.43152266       4.78134727      -0.00510361      -0.00638315      -0.00128864
Si       4.74501519       1.78544320       3.20902627       0.00548925      -0.00590619      -0.00207831
12
Lattice="5.451863944833094 -0.0002659137942644 -3.2803468355429417e-06 -0.00026598584431667365 5.4518078110758355 0.0006799367144022047 -2.2049577337716995e-06 0.0007886814917476404 6.2875165458905595" Properties=species:S:1:pos:R:3:forces:R:3 cutoff=-1.0 nneightol=1.2 n_minim_iter=10 energy=-1954.558504290167 stress="-0.1026721698110068 -3.820352693491017e-05 9.030915754861412e-07 -3.820352693491017e-05 -0.10269752617063974 0.0002189089632739143 9.030915754861412e-07 0.0002189089632739143 -0.10262087267787497" free_energy=-1954.558504290167 pbc="T T T"
Si       0.48179910       0.48171175       0.00001618       0.00409174       0.00832436       0.00314689
Si      -0.48178201      -0.48140963       3.14369007      -0.00453459      -0.00292689      -0.00239032
Si       2.24395792       3.20820986       4.71604782      -0.00547170       0.00371266       0.00242760
Si       3.20762797       2.24413859       1.57220199       0.00534372      -0.00663606      -0.00305184
Si       0.70574264       3.66639590       0.06501882      -0.00424629       0.00363791      -0.00559522
Si       0.94033346       2.02014471       1.63672241       0.00506794       0.00231157      -0.00569625
Si       1.78526655       4.74619529       3.07979180      -0.00505724       0.00720742       0.00191264
Si       2.01994304       0.94087713       4.65118173       0.00566150       0.00510258       0.00139040
Si       3.43166769       4.51145576       1.50784900      -0.00556638      -0.00748430       0.00710967
Si       3.66632108       0.70568276      -0.06446338       0.00524709      -0.00076243       0.00374779
Si       4.51125669       3.43220278       4.78061854      -0.00532698      -0.00806917      -0.00247990
Si       4.74584574       1.78565366       3.20853276       0.00479118      -0.00441766      -0.00052145
12
Lattice="5.4525998627383565 0.00014477145682708208 -1.3647385749793627e-05 0.00014472019923212354 5.452530109849472 0.00017264483701327679 -1.421533221041172e-05 0.0001955465167665447 6.285835042292449" Properties=species:S:1:pos:R:3:forces:R:3 cutoff=-1.0 nneightol=1.2 n_minim_iter=11 energy=-1954.558528250849 stress="-0.10251157666448896 9.827075612997776e-06 8.652126917361404e-07 9.827075612997776e-06 -0.10250795947513221 -7.5362651300848105e-06 8.652126917361404e-07 -7.5362651300848105e-06 -0.10269707544654612" free_energy=-1954.558528250849 pbc="T T T"
Si       0.48207721       0.48199966      -0.00001659       0.00593760       0.00293572      -0.00052048
Si      -0.48214854      -0.48206037       3.14289142      -0.00389136      -0.00312478      -0.00035777
Si       2.24419343       3.20863459       4.71447645      -0.00134556       0.00139752       0.00025207
Si       3.20852981       2.24426353       1.57157471       0.00124961      -0.00140128       0.00008471
Si       0.70590175       3.66741744       0.06481409      -0.00540274       0.00445248      -0.00199744
Si       0.94097698       2.02050966       1.63634723       0.00610863       0.00679322      -0.00551116
Si       1.78546333       4.74687498       3.07834860      -0.00432208       0.00542760       0.00200931
Si       2.02046190       0.94109922       4.64957842       0.00618510       0.00553532       0.00614255
Si       3.43228121       4.51177779       1.50681138      -0.00611429      -0.00472755       0.00431329
Si       3.66735633       0.70584383      -0.06468548       0.00228579      -0.00635510       0.00212572
Si       4.51175349       3.43235251       4.77923582      -0.00597077      -0.00671154      -0.00444162
Si       4.74681205       1.78554153       3.20767663       0.00528007      -0.00422160      -0.00209919
12
Lattice="5.452990851581627 0.0003890021283594076 -2.1475552035522106e-05 0.0003889442514075267 5.452864711853822 5.144490330605833e-05 -2.3293078459987024e-05 5.384275150297429e-05 6.284998671429413" Properties=species:S:1:pos:R:3:forces:R:3 cutoff=-1.0 nneightol=1.2 n_minim_iter=12 energy=-1954.558559742742 stress="-0.10249507051088887 2.4125684281516063e-05 -2.073881277485334e-06 2.4125684281516063e-05 -0.1025503166362899 5.4349064002084e-06 -2.073881277485334e-06 5.4349064002084e-06 -0.10266608807219456" free_energy=-1954.558559742742 pbc="T T T"
Si       0.48241871       0.48222146      -0.00003517       0.00946042       0.01256981       0.00053810
Si      -0.48261431      -0.48257367       3.14247258      -0.00349910      -0.00273750      -0.00004674
Si       2.24405772       3.20921844       4.71375953       0.00110963      -0.00001066       0.00083928
Si       3.20929550       2.24415042       1.57135316      -0.00140048      -0.00118142      -0.00221450
Si       0.70558166       3.66851835       0.06442873      -0.00347358      -0.01028914       0.00267010
Si       0.94170112       2.02114252       1.63595265       0.00308651       0.00637105      -0.00862254
Si       1.78521469       4.74770054       3.07809231      -0.00075500       0.00374354      -0.00208857
Si       2.02111676       0.94170636       4.64907461       0.00676028       0.00373730       0.00827947
Si       3.43225062       4.51162685       1.50670830      -0.00705610      -0.00361013       0.00455383
Si       3.66837688       0.70545658      -0.06442023      -0.00559391      -0.00196924      -0.00224197
Si       4.51167376       3.43214128       4.77831228      -0.00364683      -0.00585777      -0.00292333
Si       4.74772104       1.78520173       3.20694513       0.00500817      -0.00076583       0.00125688
12
Lattice="5.45286109057034 0.00036559525850894285 -3.3297228886034505e-05 0.0003655596881153677 5.452821350471629 -9.925355344294907e-05 -3.716121974379595e-05 -0.00012236019169233774 6.2851982129609505" Properties=species:S:1:pos:R:3:forces:R:3 cutoff=-1.0 nneightol=1.2 n_minim_iter=13 energy=-1954.558580456671 stress="-0.10259253069358244 2.1127969125788147e-05 -4.288242013061659e-06 2.1127969125788147e-05 -0.10265289027831258 1.7373647947080052e-05 -4.288242013061659e-06 1.7373647947080052e-05 -0.10262443183840907" free_energy=-1954.558580456671 pbc="T T T"
Si       0.48283392       0.48260388      -0.00004343       0.00696990       0.01508664       0.00153186
Si      -0.48302209      -0.48304261       3.14257920      -0.00109487      -0.00107437       0.00064285
Si       2.24361270       3.20939997       4.71381563       0.00181571      -0.00030254       0.00061494
Si       3.20957195       2.24373174       1.57132748      -0.00198462      -0.00139652      -0.00343594
Si       0.70508382       3.66889255       0.06401425      -0.00249182      -0.01718902       0.00474547
Si       0.94208919       2.02157283       1.63555804      -0.00116007       0.00440033      -0.00617695
Si       1.78474850       4.74803108       3.07836391       0.00153508       0.00265013      -0.00362516
Si       2.02153362       0.94199287       4.64957137       0.00571576       0.00059555       0.00469053
Si       3.43166130       4.51111599       1.50698810      -0.00638523      -0.00161737       0.00190131
Si       3.66867787       0.70494852      -0.06413237      -0.00780048       0.00114701      -0.00411910
Si       4.51112267       3.43146477       4.77801149       0.00018942      -0.00372674       0.00032806
Si       4.74805258       1.78467253       3.20667554       0.00469122       0.00142689       0.00290212
12
Lattice="5.452662062197669 0.00017665040646289777 -4.041018227216862e-05 0.00017664577936353664 5.452747153900346 -0.0002238462517928078 -4.553265373246448e-05 -0.0002680513030729239 6.285513144096051" Properties=species:S:1:pos:R:3:forces:R:3 cutoff=-1.0 nneightol=1.2 n_minim_iter=14 energy=-1954.558591719222 stress="-0.10266357057282172 7.394296473349909e-06 -5.030540992554758e-06 7.394296473349909e-06 -0.10269744222286956 2.2900243372067597e-05 -5.030540992554758e-06 2.2900243372067597e-05 -0.1026057596368095" free_energy=-1954.558591719222 pbc="T T T"
Si       0.48315132       0.48301988      -0.00003076       0.00162654       0.01074321       0.00174444
Si      -0.48323266      -0.48331555       3.14275794       0.00112331       0.00032876       0.00111080
Si       2.24323903       3.20935639       4.71398078       0.00095105       0.00041422       0.00000364
Si       3.20954722       2.24334448       1.57129595      -0.00085875      -0.00196405      -0.00305781
Si       0.70465601       3.66873737       0.06384584      -0.00212705      -0.01427131       0.00314101
Si       0.94216051       2.02180231       1.63528436      -0.00371284       0.00173601      -0.00122752
Si       1.78435770       4.74810656       3.07852303       0.00189131       0.00193052      -0.00217775
Si       2.02175630       0.94201157       4.65005829       0.00354483      -0.00172962      -0.00040707
Si       3.43103080       4.51068663       1.50717199      -0.00429685      -0.00010281      -0.00060489
Si       3.66856309       0.70457940      -0.06404823      -0.00483053       0.00236053      -0.00287604
Si       4.51064254       3.43083951       4.77797898       0.00286737      -0.00129736       0.00240175
Si       4.74811681       1.78424423       3.20666971       0.00382160       0.00185189       0.00194944
12
Lattice="5.452554962810286 -2.866443890770554e-05 -3.748467666764443e-05 -2.864454197126597e-05 5.4527261650217955 -0.0003168740004197458 -4.214250402428423e-05 -0.00037683788895646046 6.285660803873007" Properties=species:S:1:pos:R:3:forces:R:3 cutoff=-1.0 nneightol=1.2 n_minim_iter=15 energy=-1954.558596186926 stress="-0.10269151854114886 -2.9523774764396758e-05 -2.1267894675361915e-06 -2.9523774764396758e-05 -0.10263127860773831 1.216719139181042e-06 -2.1267894675361915e-06 1.216719139181042e-06 -0.10264413715788875" free_energy=-1954.558596186926 pbc="T T T"
Si       0.48330355       0.48336987      -0.00000239      -0.00526060      -0.00849289      -0.00077292
Si      -0.48325833      -0.48341056       3.14286798       0.00216428       0.00108149       0.00119729
Si       2.24305881       3.20923294       4.71403724      -0.00038506       0.00133552      -0.00060679
Si       3.20942026       2.24309438       1.57121781       0.00064942      -0.00259016      -0.00153281
Si       0.70438904       3.66833131       0.06388405      -0.00235105       0.00121753      -0.00019246
Si       0.94203933       2.02187366       1.63517688      -0.00279289       0.00220419       0.00630307
Si       1.78415802       4.74807412       3.07846189       0.00102992       0.00155102       0.00039849
Si       2.02185985       0.94187067       4.65022647       0.00225359      -0.00173040      -0.00478586
Si       3.43060221       4.51046419       1.50715116      -0.00138625       0.00039570      -0.00170528
Si       3.66831861       0.70442436      -0.06413606       0.00004180       0.00254318      -0.00040769
Si       4.51043395       3.43045569       4.77804781       0.00359219       0.00111400       0.00248943
Si       4.74811664       1.78401108       3.20676898       0.00244467       0.00137082      -0.00038448
12
Lattice="5.4526545241762125 0.00011029742658744322 -2.9916472402414173e-05 0.00011029814162588556 5.452719485262818 -0.00029749820250294317 -3.3276520534815356e-05 -0.00035417113478324925 6.285553732153998" Properties=species:S:1:pos:R:3:forces:R:3 cutoff=-1.0 nneightol=1.2 n_minim_iter=16 energy=-1954.558600340397 stress="-0.10264926407176578 -1.9547455686702887e-05 -1.2102454945892528e-06 -1.9547455686702887e-05 -0.10262072018083822 1.0338881258380453e-06 -1.2102454945892528e-06 1.0338881258380453e-06 -0.10263630963020146" free_energy=-1954.558600340397 pbc="T T T"
Si       0.48317904       0.48321690      -0.00000969      -0.00255905      -0.00553641      -0.00068300
Si      -0.48315727      -0.48331156       3.14282467       0.00036234      -0.00007462       0.00064888
Si       2.24328402       3.20922706       4.71396722      -0.00061290       0.00181727      -0.00025224
Si       3.20944526       2.24323826       1.57118602       0.00087313      -0.00262015      -0.00083329
Si       0.70454955       3.66826910       0.06398467      -0.00176850       0.00095532      -0.00084956
Si       0.94201583       2.02184316       1.63531225      -0.00155407       0.00158776       0.00391464
Si       1.78439210       4.74806228       3.07834112       0.00044549       0.00117699       0.00063321
Si       2.02187405       0.94185227       4.65002039       0.00178553      -0.00081891      -0.00249761
Si       3.43084631       4.51062023       1.50704274      -0.00110433      -0.00001067      -0.00039804
Si       3.66832938       0.70463232      -0.06422599       0.00031123       0.00180784       0.00007004
Si       4.51071256       3.43067979       4.77810158       0.00207553       0.00070564       0.00112764
Si       4.74820354       1.78422534       3.20680972       0.00174559       0.00100994      -0.00088067
