12
Lattice="5.4622869024803755 4.320198810456435e-05 -0.0004608134321213205 4.3207178838435395e-05 5.462345157459885 -0.0002791670205141478 -0.0005481695432245841 -0.00033133830369783113 6.447630854864278" Properties=species:S:1:pos:R:3:forces:R:3 cutoff=-1.0 nneightol=1.2 n_minim_iter=1 energy=-1955.037805110904 stress="-0.08658733853557835 1.4097041532971106e-05 -0.00012114878154507822 1.4097041532971106e-05 -0.08657019135775441 -7.408805862256646e-05 -0.00012114878154507822 -7.408805862256646e-05 -0.08258931069456678" free_energy=-1955.037805110904 pbc="T T T"
Si       0.46822060       0.46812528      -0.00007917       0.00952861       0.01058685      -0.00150757
Si      -0.46846876      -0.46839434       3.22388133      -0.00889102      -0.00932029       0.00197631
Si       2.26250754       3.19923117       4.83535818      -0.00937991       0.00847475       0.00061294
Si       3.19929927       2.26281865       1.61152946       0.00724754      -0.00695919      -0.00036118
Si       0.70004205       3.65661068       0.01106923       0.00681325       0.00053375       0.12983626
Si       0.92532533       2.03108863       1.62309164       0.00137701      -0.00435247       0.12929258
Si       1.80550139       4.76219429       3.21210048      -0.00122011      -0.00598795      -0.13046952
Si       2.03073540       0.92521562       4.82414641      -0.00728720       0.00306034      -0.12707223
Si       3.43104903       4.53683488       1.60003681       0.00328540      -0.00199944      -0.12973323
Si       3.65649202       0.70010093      -0.01166690       0.00424747       0.00297232      -0.12709665
Si       4.53647532       3.43097853       4.84651586      -0.00295692       0.00631519       0.12638554
Si       4.76200459       1.80564647       3.23465562      -0.00276412      -0.00332384       0.12813674
12
Lattice="5.473091006380462 -7.061925423773237e-05 0.0005170414128086511 -7.06137003657818e-05 5.473010817476742 0.0003188231651823086 0.0006028663053502669 0.0003725799908514502 6.422362815893868" Properties=species:S:1:pos:R:3:forces:R:3 cutoff=-1.0 nneightol=1.2 n_minim_iter=2 energy=-1955.039821680874 stress="-0.08384739346204081 -2.5229393523009517e-06 0.00014173311176574405 -2.5229393523009517e-06 -0.08388750662027379 8.662173736111707e-05 0.00014173311176574405 8.662173736111707e-05 -0.08529744858932733" free_energy=-1955.039821680874 pbc="T T T"
Si       0.46921021       0.46911097       0.00004446      -0.03207198      -0.02788774       0.00319877
Si      -0.46887791      -0.46901854       3.21112732       0.02896396       0.03111652      -0.00308724
Si       2.26770790       3.20602432       4.81716723       0.03190124      -0.03145367      -0.00049549
Si       3.20592388       2.26729289       1.60603015      -0.02995175       0.03044270       0.00093404
Si       0.70140503       3.66374135       0.01254303      -0.00702817       0.05105557       0.13990056
Si       0.92741404       2.03517922       1.61810648       0.05204550       0.00283163       0.13753698
Si       1.80953774       4.77176008       3.19935807      -0.05230230       0.00612493      -0.13925865
Si       2.03553864       0.92753043       4.80473342       0.00698461       0.05124404      -0.14190702
Si       3.43805194       4.54578127       1.59388347      -0.00224834      -0.05160406      -0.13851766
Si       3.66374023       0.70141320      -0.01186287       0.05187088      -0.00425569      -0.14278861
Si       4.54622022       3.43816151       4.82967431      -0.05095665      -0.00639701       0.14294600
Si       4.77194293       1.80940090       3.22400692       0.00279302      -0.05121722       0.14153832
12
Lattice="5.4812561214466555 -0.000358845583534548 -0.005995957047693851 -0.00035886521863871384 5.483611469448819 -0.0036607385043959995 -0.0070876311613006435 -0.004326481424351307 6.40040947173913" Properties=species:S:1:pos:R:3:forces:R:3 cutoff=-1.0 nneightol=1.2 n_minim_iter=3 energy=-1955.048831719515 stress="-0.0812767256263692 -5.4466313653386036e-05 -0.0015984012764621012 -5.4466313653386036e-05 -0.08028658079614974 -0.0009714801949615126 -0.0015984012764621012 -0.0009714801949615126 -0.0813550808172404" free_energy=-1955.048831719515 pbc="T T T"
Si       0.46789112       0.46833471      -0.00067492       0.09551663       0.06258309      -0.02917512
Si      -0.47160659      -0.47031895       3.20089302      -0.06806021      -0.08201015       0.03285551
Si       2.26714090       3.20660471       4.79565719      -0.09551744       0.08319712       0.00480152
Si       3.20674812       2.27230235       1.59513329       0.07123919      -0.06882261      -0.00980414
Si       0.70194703       3.67446942       0.02304357       0.06576992      -0.00277237       0.04871281
Si       0.93052277       2.03794278       1.62384815      -0.01371891      -0.02429954       0.05903145
Si       1.80437197       4.77882025       3.16878596       0.01399680      -0.05625338      -0.05137430
Si       2.03305039       0.92949241       4.77111631      -0.06710503       0.00338534      -0.02050464
Si       3.44099143       4.54947445       1.56710072       0.01479891       0.00433328      -0.05776194
Si       3.67305920       0.70238585      -0.03085308       0.00228237       0.02861829      -0.00963723
Si       4.54327044       3.44078558       4.81940858      -0.00214782       0.05845459       0.00473617
Si       4.77520514       1.80650039       3.22010036      -0.01705440      -0.00641364       0.02811992
12
Lattice="5.484202078816159 -0.00010374471610096278 0.0018295544932293948 -0.00010372024155973371 5.481462042139547 0.0010929366195973815 0.0021490925525126533 0.0012846347731828615 6.399470084184901" Properties=species:S:1:pos:R:3:forces:R:3 cutoff=-1.0 nneightol=1.2 n_minim_iter=4 energy=-1955.049870939694 stress="-0.07989158313999542 -2.002159103519641e-05 0.00047724042192237267 -2.002159103519641e-05 -0.08102025656130182 0.0002873358771527168 0.00047724042192237267 0.0002873358771527168 -0.08062603630113983" free_energy=-1955.049870939694 pbc="T T T"
Si       0.46838587       0.46826877       0.00027360       0.08253098       0.09301169       0.00495790
Si      -0.46736745      -0.46751093       3.19949681      -0.08760261      -0.09259888      -0.01087750
Si       2.27521699       3.20981858       4.80100275      -0.08179334       0.09322118       0.00007896
Si       3.21099237       2.27287759       1.60140752       0.08945276      -0.09815437       0.00442058
Si       0.70283996       3.67358936       0.02946568       0.03822794      -0.00874432       0.01152340
Si       0.93392739       2.03849398       1.62897381      -0.00447679      -0.04992987       0.01945178
Si       1.80968464       4.77955128       3.17279785       0.00310869      -0.04118663      -0.01770552
Si       2.04076245       0.93395627       4.77203439      -0.03800873      -0.01659740      -0.02093969
Si       3.44539437       4.54872198       1.57345978       0.05388130       0.01316721      -0.01077203
Si       3.67558324       0.70237857      -0.02704953      -0.01175363       0.05055983      -0.03148027
Si       4.55230180       3.44415074       4.83020671       0.01013446       0.04062611       0.03296262
Si       4.78244107       1.80827615       3.23015848      -0.05370103       0.01662544       0.01837978
12
Lattice="5.47837145096261 0.00046515612183228546 0.002918335670045583 0.00046509818735721486 5.487262853313067 0.0017943058510392238 0.0034348268403640607 0.0021120983619556787 6.399510284594559" Properties=species:S:1:pos:R:3:forces:R:3 cutoff=-1.0 nneightol=1.2 n_minim_iter=5 energy=-1955.051100088969 stress="-0.08175167841869758 5.725605701396395e-05 0.0007814685167336649 5.725605701396395e-05 -0.07806094311510045 0.0004705206127967801 0.0007814685167336649 0.0004705206127967801 -0.08000486579882574" free_energy=-1955.051100088969 pbc="T T T"
Si       0.46932350       0.47022544       0.00036765       0.09213955       0.06857948       0.02185951
Si      -0.46761585      -0.46911000       3.19936352      -0.10277366      -0.06380043      -0.00577432
Si       2.27271963       3.21554602       4.80191969      -0.08993736       0.06240287      -0.01190135
Si       3.20949969       2.27435334       1.60236374       0.10205256      -0.07014200      -0.00515803
Si       0.70335400       3.67804147       0.03293073       0.02859955       0.00765701       0.01735206
Si       0.93397859       2.04011251       1.63242165      -0.01512653      -0.05079237      -0.01811685
Si       1.80836933       4.78433576       3.17083527       0.01447439      -0.03548008       0.01784235
Si       2.03876773       0.93619575       4.76974729      -0.02864047       0.00027594      -0.03200353
Si       3.44336828       4.55366555       1.57185966       0.05351506      -0.00494469      -0.01499262
Si       3.67224266       0.70435308      -0.02917016      -0.02587583       0.05006732      -0.00329164
Si       4.54828705       3.44976449       4.83451363       0.02390183       0.03530200       0.00605537
Si       4.77734485       1.81066109       3.23420681      -0.05232907       0.00087496       0.02812906
12
Lattice="5.483001175040904 0.0015586186524783052 -0.001916948311381671 0.0015586676232285197 5.481536904542449 -0.0009769113494750073 -0.0022730933572108793 -0.0011586369743663007 6.400784840615703" Properties=species:S:1:pos:R:3:forces:R:3 cutoff=-1.0 nneightol=1.2 n_minim_iter=6 energy=-1955.054193277839 stress="-0.07779685306152602 0.00020772602059184112 -0.0005166302523194325 0.00020772602059184112 -0.07839192637134013 -0.00026202193407958465 -0.0005166302523194325 -0.00026202193407958465 -0.0782043976177777" free_energy=-1955.054193277839 pbc="T T T"
Si       0.47522424       0.47501046      -0.00024231       0.04293092       0.04481875      -0.00950799
Si      -0.47633136      -0.47566029       3.20061577      -0.03680925      -0.04645715       0.00743945
Si       2.26564491       3.21550515       4.79919424      -0.03865943       0.04086711       0.00459291
Si       3.21666828       2.26643041       1.59868989       0.03072494      -0.03728108      -0.00182267
Si       0.70772881       3.67596554       0.03968939       0.03005032      -0.00120356      -0.02495884
Si       0.93513112       2.03411411       1.64014529       0.00575449      -0.01874280      -0.01686174
Si       1.80653827       4.77495045       3.15832633      -0.00277803      -0.02520717       0.01631155
Si       2.03332069       0.93455756       4.75909433      -0.03164258       0.00691579       0.03274410
Si       3.44904849       4.54737248       1.55755703       0.01567202      -0.00417370       0.02356563
Si       3.67681866       0.70760740      -0.04207769       0.01088680       0.01825083       0.03092348
Si       4.54717029       3.44774874       4.83902913      -0.01155968       0.02786846      -0.03153968
Si       4.77560791       1.80666175       3.23904109      -0.01457052      -0.00565548      -0.03088619
12
Lattice="5.479097276670939 -0.0016053846124194316 3.309129186423538e-05 -0.0016054472544524486 5.479588351216875 -0.0005352148040493177 2.9871010280555835e-05 -0.0006365012283461156 6.407622295338978" Properties=species:S:1:pos:R:3:forces:R:3 cutoff=-1.0 nneightol=1.2 n_minim_iter=7 energy=-1955.054847979453 stress="-0.0786015060552833 -0.00022069674951405639 8.576006560819702e-06 -0.00022069674951405639 -0.07839125528543642 -0.0001455726893285866 8.576006560819702e-06 -0.0001455726893285866 -0.07848200039469608" free_energy=-1955.054847979453 pbc="T T T"
Si       0.47649521       0.47641973      -0.00007375       0.00345653       0.00466393       0.00000895
Si      -0.47641383      -0.47684308       3.20385430      -0.00575135      -0.00367999       0.00178355
Si       2.26209578       3.21525646       4.80540919      -0.01106902       0.01005267      -0.00205913
Si       3.21542885       2.26207926       1.60170464       0.01126054      -0.00778321       0.00128370
Si       0.70605015       3.67393769       0.03905719       0.00819597       0.01270684      -0.00452124
Si       0.93359197       2.03207400       1.64122774       0.01441869      -0.00226641      -0.01176551
Si       1.80395300       4.77156334       3.16391801      -0.01406041      -0.01027912       0.00915564
Si       2.03209251       0.93314186       4.76619873      -0.00443905       0.01759212       0.01011835
Si       3.44543358       4.54418755       1.56202155       0.00419833      -0.01528425       0.00705013
Si       3.67346322       0.70615203      -0.03951878       0.01684068       0.00558988       0.00923440
Si       4.54395951       3.44523413       4.84487030      -0.01490939       0.00665959      -0.01059993
Si       4.77144361       1.80384760       3.24312059      -0.00814152      -0.01797204      -0.00968890
12
Lattice="5.478719179031711 0.00041998767847991757 -0.00038019766994379237 0.000420072821462937 5.479050287526512 0.0006951542744986944 -0.0004579773415348186 0.0008156870609217802 6.408693355353803" Properties=species:S:1:pos:R:3:forces:R:3 cutoff=-1.0 nneightol=1.2 n_minim_iter=8 energy=-1955.054902513914 stress="-0.0786733684920135 5.661156510074625e-05 -0.00010537568486144978 5.661156510074625e-05 -0.07852994435856286 0.00019114140895898655 -0.00010537568486144978 0.00019114140895898655 -0.07856996782614664" free_energy=-1955.054902513914 pbc="T T T"
Si       0.47689157       0.47682516      -0.00000285       0.00269674       0.00528280       0.00220659
Si      -0.47707791      -0.47651691       3.20432644      -0.00271939       0.00027064      -0.00091520
Si       2.26244172       3.21719440       4.80674749      -0.00240096      -0.00160201       0.00335619
Si       3.21625024       2.26309710       1.60225401       0.00065329      -0.00140384      -0.00383756
Si       0.70753016       3.67387395       0.03943363       0.00435518       0.01423389      -0.00602396
Si       0.93420780       2.03246758       1.64143492       0.01435526      -0.00504508      -0.00538955
Si       1.80530289       4.77228498       3.16581479      -0.01350264       0.00042704       0.00240355
Si       2.03179688       0.93494998       4.76749764      -0.00376697       0.01585539       0.00107592
Si       3.44690397       4.54531987       1.56346831       0.00088826      -0.01748768       0.00655055
Si       3.67354106       0.70759145      -0.03921954       0.01632569       0.00488577       0.00730349
Si       4.54449701       3.44783482       4.84567709      -0.01639515      -0.00018182      -0.00593339
Si       4.77134998       1.80609959       3.24326296      -0.00048932      -0.01523511      -0.00079662
12
Lattice="5.478754039487726 0.0010271124608887733 0.00038353411491838497 0.0010270776395397137 5.478771713563212 -0.0003703096471456081 0.00044351798264756124 -0.00044199945147015303 6.40897854580198" Properties=species:S:1:pos:R:3:forces:R:3 cutoff=-1.0 nneightol=1.2 n_minim_iter=9 energy=-1955.054928825379 stress="-0.07865670412408965 0.0001397683351708154 0.0001036536707630313 0.0001397683351708154 -0.07864379450911138 -0.00010194550868158428 0.0001036536707630313 -0.00010194550868158428 -0.0786129037734388" free_energy=-1955.054928825379 pbc="T T T"
Si       0.47709888       0.47704751      -0.00001318      -0.00027587       0.00136396       0.00053458
Si      -0.47684659      -0.47731751       3.20448980      -0.00226250      -0.00146221      -0.00011315
Si       2.26330273       3.21650159       4.80667349       0.00338255      -0.00213855      -0.00232952
Si       3.21692112       2.26284357       1.60231163      -0.00176429       0.00391044       0.00241261
Si       0.70807747       3.67389633       0.03857214      -0.00244634       0.01153408       0.00040483
Si       0.93482901       2.03203719       1.64098259       0.01448679       0.00109890      -0.00338177
Si       1.80613867       4.77152206       3.16550367      -0.01317600      -0.00057699       0.00329733
Si       2.03247813       0.93436579       4.76804038       0.00105754       0.01519697       0.00226786
Si       3.44773429       4.54498599       1.56339861       0.00162349      -0.01367829       0.00037926
Si       3.67382124       0.70809669      -0.03858448       0.01342601      -0.00287958       0.00027154
Si       4.54541194       3.44729540       4.84559971      -0.01358693       0.00170409      -0.00030977
Si       4.77193451       1.80573052       3.24349522      -0.00046445      -0.01407282      -0.00343382
12
Lattice="5.479165445201764 -0.0003438569121827736 0.00021466774491097888 -0.00034386770979487574 5.478775819979947 -5.271877469140273e-05 0.000244187631653578 -6.700818676416077e-05 6.408492270679923" Properties=species:S:1:pos:R:3:forces:R:3 cutoff=-1.0 nneightol=1.2 n_minim_iter=10 energy=-1955.054980772588 stress="-0.07860944510329827 -9.270279169955413e-06 -1.478982092354954e-05 -9.270279169955413e-06 -0.07874727269020357 2.3174904753998825e-07 -1.478982092354954e-05 2.3174904753998825e-07 -0.07858779800260542" free_energy=-1955.054980772588 pbc="T T T"
Si       0.47718146       0.47717312       0.00002212       0.00304865      -0.00187760      -0.00170067
Si      -0.47707634      -0.47719148       3.20423036       0.00333949       0.00098416      -0.00036458
Si       2.26235347       3.21637194       4.80642435      -0.00023528       0.00048307       0.00176688
Si       3.21671376       2.26198749       1.60222581      -0.00062515      -0.00049587       0.00005929
Si       0.70734432       3.67411328       0.03862857      -0.00009857       0.00719519       0.00025170
Si       0.93479955       2.03178306       1.64074928       0.00938104       0.00431885       0.00121723
Si       1.80455363       4.77112549       3.16563345      -0.00869243       0.00367450      -0.00064336
Si       2.03212491       0.93462801       4.76782121       0.00279768       0.00673199       0.00124405
Si       3.44693046       4.54374549       1.56360049      -0.00251764      -0.00744174      -0.00090663
Si       3.67440362       0.70728931      -0.03848769       0.00130411      -0.00227405      -0.00153100
Si       4.54426509       3.44657475       4.84513195      -0.01010648      -0.00405035       0.00036425
Si       4.77161279       1.80425780       3.24304506       0.00240457      -0.00724814       0.00024285
12
Lattice="5.479757280487796 -0.0006506037716286047 0.00040283458949436443 -0.0006506290335523858 5.479557386006748 -5.3619451634036074e-05 0.0004661216973267948 -6.817178478523607e-05 6.406886254051895" Properties=species:S:1:pos:R:3:forces:R:3 cutoff=-1.0 nneightol=1.2 n_minim_iter=11 energy=-1955.054991300335 stress="-0.07849858532543502 -8.807063768822215e-05 0.00011166276750750855 -8.807063768822215e-05 -0.0785892674573506 -1.67815234292631e-05 0.00011166276750750855 -1.67815234292631e-05 -0.07861465953707464" free_energy=-1955.054991300335 pbc="T T T"
Si       0.47739694       0.47734223       0.00002799      -0.00460059      -0.00234342       0.00097461
Si      -0.47708225      -0.47732897       3.20340355       0.00070683       0.00041743      -0.00104196
Si       2.26244162       3.21682077       4.80532944       0.00010602       0.00176047      -0.00205370
Si       3.21711597       2.26201307       1.60193073       0.00172398      -0.00115497       0.00186956
Si       0.70733341       3.67508842       0.03884298      -0.00849323       0.00483296       0.00036555
Si       0.93541269       2.03200232       1.64052309       0.00259992       0.00607278       0.00159420
Si       1.80405602       4.77166439       3.16472116      -0.00386036       0.00513007       0.00045005
Si       2.03240902       0.93519634       4.76653637       0.00774649       0.00216199      -0.00215410
Si       3.44715739       4.54364703       1.56313697      -0.00492172      -0.00189096      -0.00084085
Si       3.67517908       0.70724576      -0.03853764       0.00545257      -0.00644982      -0.00259076
Si       4.54413578       3.44683629       4.84423847      -0.00084105      -0.00592609       0.00356924
Si       4.77207513       1.80369949       3.24258111       0.00438115      -0.00261043      -0.00014183
