12
Lattice="5.499767232402514 3.9048590800875286e-05 -3.0660504741620754e-05 3.905458226742853e-05 5.500359685609745 4.1101812874613403e-05 -3.629732897431636e-05 4.916894587272184e-05 6.541131259963545" Properties=species:S:1:pos:R:3:forces:R:3 cutoff=-1.0 nneightol=1.2 n_minim_iter=8 energy=-1955.709978964534 stress="-0.04217677199496084 1.285631082445958e-06 -8.145845706960251e-07 1.285631082445958e-06 -0.04199038490620031 3.3349554322335595e-06 -8.145845706960251e-07 3.3349554322335595e-06 -0.04209024928516172" free_energy=-1955.709978964534 pbc="T T T"
Si       0.46433642       0.46438152       0.00000869       0.00057253       0.00023398       0.00056839
Si      -0.46436019      -0.46437412       3.27056882      -0.00061281       0.00121000       0.00034618
Si       2.28553295       3.21463060       4.90585901      -0.00041534      -0.00136870      -0.00021886
Si       3.21423098       2.28582110       1.63528106       0.00036651       0.00115954      -0.00072297
Si       0.69994377       3.67580519      -0.01351261      -0.00342087       0.00403620      -0.00190403
Si       0.92551252       2.05020066       1.62178046       0.00448935       0.00394815      -0.00462227
Si       1.82439475       4.80040095       3.28411214      -0.00460355       0.00381936       0.00390132
Si       2.04995157       0.92565839       4.91937296       0.00401160       0.00564671       0.00242483
Si       3.44982916       4.57479486       1.64882768      -0.00391126      -0.00589685       0.00244612
Si       3.67539687       0.70001605       0.01350183       0.00425537      -0.00320555       0.00389278
Si       4.57425275       3.45024795       4.89232624      -0.00459459      -0.00386796      -0.00409000
Si       4.79984655       1.82463178       3.25701660       0.00386306      -0.00571486      -0.00202150
