12
Lattice="5.398664299532893 0.00010920530112586617 -2.9620250248896012e-05 0.00010920600908425494 5.398728617398175 -0.000294552482264681 -3.294702839276659e-05 -0.0003506642595458132 6.223316439015035" Properties=species:S:1:pos:R:3:forces:R:3 cutoff=-1.0 nneightol=1.2 n_minim_iter=16 energy=-1954.558600340397 stress="-0.10264926407176578 -1.9547455686702887e-05 -1.2102454945892528e-06 -1.9547455686702887e-05 -0.10262072018083822 1.0338881258380453e-06 -1.2102454945892528e-06 1.0338881258380453e-06 -0.10263630963020146" free_energy=-1954.558600340397 pbc="T T T"
Si       0.47839478       0.47843226      -0.00000959      -0.00255905      -0.00553641      -0.00068300
Si      -0.47837323      -0.47852598       3.11170555       0.00036234      -0.00007462       0.00064888
Si       2.22107183       3.17745045       4.66729122      -0.00061290       0.00181727      -0.00025224
Si       3.17766649       2.22102652       1.55562870       0.00087313      -0.00262015      -0.00083329
Si       0.69757335       3.63194721       0.06335112      -0.00176850       0.00095532      -0.00084956
Si       0.93268833       2.00182360       1.61911998      -0.00155407       0.00158776       0.00391464
Si       1.76672369       4.70104868       3.04786050       0.00044549       0.00117699       0.00063321
Si       2.00185418       0.93252638       4.60397756       0.00178553      -0.00081891      -0.00249761
Si       3.39687530       4.46595769       1.49212055      -0.00110433      -0.00001067      -0.00039804
Si       3.63200690       0.69765530      -0.06359005       0.00031123       0.00180784       0.00007004
Si       4.46604911       3.39671043       4.73079054       0.00207553       0.00070564       0.00112764
Si       4.70118854       1.76655858       3.17505705       0.00174559       0.00100994      -0.00088067
