12
Lattice="5.327002427330941 2.0985505468420453e-05 -0.00018592403357660332 2.0960188289506575e-05 5.327225039686624 1.8061013221666728e-05 -0.00019464520913616947 2.1314292450982552e-05 5.810628101553839" Properties=species:S:1:pos:R:3:forces:R:3 cutoff=-1.0 nneightol=1.2 n_minim_iter=13 energy=-1952.125013659103 stress="-0.19487944863879303 -2.8250134074772127e-05 6.213854749594686e-06 -2.8250134074772127e-05 -0.19484946126330244 1.0519202978222621e-05 6.213854749594686e-06 1.0519202978222621e-05 -0.1948759190413213" free_energy=-1952.125013659103 pbc="T T T"
Si       0.49937853       0.49922814       0.00007716      -0.00498807      -0.00173309      -0.00028434
Si      -0.49947221      -0.49927169       2.90534615       0.00409229       0.00305261       0.00068321
Si       2.16424956       3.16282036       4.35786344       0.00171377      -0.00116692       0.00014753
Si       3.16255277       2.16454473       1.45266755      -0.00161020      -0.00070614      -0.00341815
Si       0.67617727       3.62915284       0.13855100       0.00235336       0.00262916      -0.00078773
Si       0.96506642       1.98719100       1.59107921       0.00631434       0.00106161      -0.00058662
Si       1.69810733       4.65085533       2.76657620      -0.00709619      -0.00097477       0.00369700
Si       1.98691987       0.96534492       4.21930255       0.00284741       0.00600809       0.00203378
Si       3.33973170       4.36203297       1.31396981       0.00038319      -0.00764629       0.00219433
Si       3.62925858       0.67611496      -0.13867772       0.00257755       0.00598121       0.00024137
Si       4.36178582       3.33998232       4.49644619      -0.00710712       0.00091709      -0.00220548
Si       4.65048541       1.69833017       3.04378560       0.00051967      -0.00742257      -0.00171490
