12
Lattice="5.4622869024803755 4.320198810456435e-05 -0.0004608134321213205 4.3207178838435395e-05 5.462345157459885 -0.0002791670205141478 -0.0005481695432245841 -0.00033133830369783113 6.447630854864278" Properties=species:S:1:pos:R:3:forces:R:3 cutoff=-1.0 nneightol=1.2 n_minim_iter=10 energy=-1955.431988682818 stress="-0.059231200907071416 1.2632972851039814e-05 -0.00011162589249009275 1.2632972851039814e-05 -0.05921702812164269 -6.820029193408855e-05 -0.00011162589249009275 -6.820029193408855e-05 -0.05920110128094236" free_energy=-1955.431988682818 pbc="T T T"
Si       0.46822060       0.46812528      -0.00007917       0.00262803       0.00358985      -0.00132952
Si      -0.46846876      -0.46839434       3.22388133      -0.00199000      -0.00241969       0.00175821
Si       2.26250754       3.19923117       4.83535818      -0.00251848       0.00167953       0.00054791
Si       3.19929927       2.26281865       1.61152946       0.00048839      -0.00023572      -0.00031886
Si       0.70004205       3.65661068       0.01106923      -0.00339614      -0.00116679       0.00133780
Si       0.92532533       2.03108863       1.62309164      -0.00037415       0.00554960       0.00081001
Si       1.80550139       4.76219429       3.21210048       0.00050198       0.00412355      -0.00191779
Si       2.03073540       0.92521562       4.82414641       0.00289491       0.00108006       0.00119424
Si       3.43104903       4.53683488       1.60003681      -0.00652162      -0.00017677      -0.00120168
Si       3.65649202       0.70010093      -0.01166690       0.00225786      -0.00683990       0.00118855
Si       4.53647532       3.43097853       4.84651586      -0.00097459      -0.00377783      -0.00181766
Si       4.76200459       1.80564647       3.23465562       0.00700381      -0.00140589      -0.00025120
