12
Lattice="5.440835758459773 -0.0003003256089635739 -1.589797057895343e-05 -0.0003003561084211377 5.44083079497575 -0.00014524703763219368 -2.4420281560051234e-05 -0.00016588272706686457 6.335884473495837" Properties=species:S:1:pos:R:3:forces:R:3 cutoff=-1.0 nneightol=1.2 n_minim_iter=1 energy=-1954.713570563777 stress="-0.09488852063086499 -1.8426249674375094e-05 -1.7601658662989507e-06 -1.8426249674375094e-05 -0.09490042028217235 -4.86720736936792e-06 -1.7601658662989507e-06 -4.86720736936792e-06 -0.08802239831642741" free_energy=-1954.713570563777 pbc="T T T"
Si       0.48100821       0.48124936       0.00002596       0.00785947       0.00214447      -0.00166313
Si      -0.48108592      -0.48115149       3.16794817      -0.00754842      -0.00936758       0.00078859
Si       2.23910765       3.20125270       4.75183109      -0.00965936       0.01108886      -0.00100133
Si       3.20140174       2.23911968       1.58392054       0.01021950      -0.01170862      -0.00098247
Si       0.68757042       3.65917970       0.03129510      -0.01347399       0.02211069       0.11972144
Si       0.93891066       2.03257875       1.61511938       0.01652567       0.01274013       0.12614769
Si       1.78115980       4.75296482       3.13643325      -0.01697420       0.01179702      -0.12035363
Si       2.03259762       0.93882633       4.72057469       0.01230242       0.01603335      -0.12256747
Si       3.40789385       4.50155640       1.55252058      -0.01210197      -0.01704381      -0.12177137
Si       3.65937228       0.68752221      -0.03136583       0.01598976      -0.00992900      -0.12130905
Si       4.50160911       3.40775691       4.78312135      -0.01578817      -0.01103271       0.12275781
Si       4.75302172       1.78105049       3.19925014       0.01264929      -0.01683280       0.12023292
12
Lattice="5.456666475591506 -0.0001733440380513634 -3.6465226156711022e-06 -0.0001733704114396308 5.456744068675427 -0.00011077725219640292 -1.0333733472983492e-05 -0.00012720992738712218 6.299079511925107" Properties=species:S:1:pos:R:3:forces:R:3 cutoff=-1.0 nneightol=1.2 n_minim_iter=2 energy=-1954.717725200875 stress="-0.0906476796759966 -1.041665370955948e-05 -1.595990228479242e-06 -1.041665370955948e-05 -0.09061378942504811 -4.2695756053980395e-06 -1.595990228479242e-06 -4.2695756053980395e-06 -0.09154747747113107" free_energy=-1954.717725200875 pbc="T T T"
Si       0.48247251       0.48268280       0.00001864      -0.05250522      -0.05773591      -0.00129976
Si      -0.48254125      -0.48261418       3.14954692       0.05312222       0.05230310       0.00055716
Si       2.24564276       3.21077308       4.72424589       0.05210561      -0.05120508      -0.00079245
Si       3.21084223       2.24567404       1.57473396      -0.05166465       0.05082915      -0.00068681
Si       0.68956543       3.67004874       0.03194445      -0.02998024       0.09439349       0.14169959
Si       0.94180628       2.03864230       1.60660217       0.08984017       0.02927925       0.14632570
Si       1.78634557       4.76700769       3.11743590      -0.09015859       0.02867561      -0.14194589
Si       2.03862796       0.94175816       4.69233719       0.02903935       0.08960533      -0.14369490
Si       3.41783646       4.51469628       1.54271666      -0.02888722      -0.09030772      -0.14330450
Si       3.67014444       0.68955135      -0.03198889       0.08913826      -0.02746695      -0.14271171
Si       4.51469046       3.41778421       4.75619493      -0.08938733      -0.02820587       0.14367183
Si       4.76698618       1.78627670       3.18149787       0.02933763      -0.09016440       0.14218174
12
Lattice="5.473071336314525 0.0008950370687230391 0.0001414679212600062 0.0008948802916348415 5.470855272026591 0.00028044300682477844 0.000158469236919992 0.00032700655173990086 6.264000195844679" Properties=species:S:1:pos:R:3:forces:R:3 cutoff=-1.0 nneightol=1.2 n_minim_iter=3 energy=-1954.727352114163 stress="-0.08625655961956778 0.00015780245447910687 4.8126711371337575e-05 0.00015780245447910687 -0.08728462604888296 8.794690488694653e-05 4.8126711371337575e-05 8.794690488694653e-05 -0.0870458281646617" free_energy=-1954.727352114163 pbc="T T T"
Si       0.48035157       0.47989125      -0.00005238       0.09853115       0.11628172       0.00176192
Si      -0.48028661      -0.48010395       3.13201198      -0.09988527      -0.10491045      -0.00486935
Si       2.25675576       3.21634027       4.69815449      -0.09315236       0.09966837       0.00419852
Si       3.21741203       2.25570353       1.56614674       0.09317314      -0.09984403       0.00344304
Si       0.68997767       3.68684847       0.04391791       0.02811222      -0.01846358       0.03862722
Si       0.95183594       2.04653662       1.61012370      -0.00245635      -0.02954904       0.03652704
Si       1.78594829       4.78216797       3.08856661       0.00457223      -0.02466277      -0.04579035
Si       2.04736416       0.95165842       4.65427268      -0.02809602      -0.00848198      -0.03694000
Si       3.42675386       4.52035621       1.52252353       0.02919883       0.00972943      -0.03550122
Si       3.68800723       0.68990866      -0.04362995      -0.00279618       0.02416239      -0.04495247
Si       4.52234986       3.42563536       4.74212893       0.00138288       0.02495785       0.04356146
Si       4.78407444       1.78528028       3.17594620      -0.02858427       0.01111209       0.03993419
12
Lattice="5.465459684634291 -0.001302541619170495 -0.0005354238262514405 -0.0013018732437961944 5.477893054041586 -0.0009484805369442769 -0.0006297509871245939 -0.0011043137406940105 6.264665430931666" Properties=species:S:1:pos:R:3:forces:R:3 cutoff=-1.0 nneightol=1.2 n_minim_iter=4 energy=-1954.728093540771 stress="-0.08940568882738263 -0.00019097859777727978 -0.00015851789460019554 -0.00019097859777727978 -0.08368085023969574 -0.0002788562026578606 -0.00015851789460019554 -0.0002788562026578606 -0.08677983726413954" free_energy=-1954.728093540771 pbc="T T T"
Si       0.48062284       0.48166786      -0.00020404       0.11211911       0.07060073       0.01026315
Si      -0.48096743      -0.48247182       3.13244890      -0.10994742      -0.06834499       0.01774104
Si       2.25067621       3.21965801       4.69770449      -0.11579170       0.07204759      -0.01391579
Si       3.21289816       2.25578944       1.56545126       0.11283023      -0.06675605      -0.01097132
Si       0.68775919       3.69156319       0.04439868       0.02873981       0.00609716       0.06341664
Si       0.94994345       2.04816720       1.61110896      -0.02240944      -0.02038225       0.01141761
Si       1.78072981       4.78671063       3.08610982       0.02347488      -0.03144480      -0.01635849
Si       2.04331728       0.95136534       4.65292024      -0.02463758       0.01533464      -0.05179218
Si       3.42023207       4.52409133       1.51988904       0.01931393      -0.01127905      -0.06171701
Si       3.68305324       0.68951249      -0.04572899      -0.02004446       0.02114445      -0.01280757
Si       4.51362229       3.42733567       4.74277489       0.02009073       0.02725335       0.00848722
Si       4.77606806       1.78459382       3.17670168      -0.02373809      -0.01427078       0.05623670
12
Lattice="5.468267753741654 -0.00832549446047436 -0.001434966759694685 -0.008325374624065749 5.470305129944406 -0.0026943666069251695 -0.0016771685610333436 -0.0031370584947581956 6.27014963150237" Properties=species:S:1:pos:R:3:forces:R:3 cutoff=-1.0 nneightol=1.2 n_minim_iter=5 energy=-1954.732848752607 stress="-0.0860818740026735 -0.0013118842221013197 -0.000450403884084239 -0.0013118842221013197 -0.08513209605703079 -0.0008227594455723232 -0.000450403884084239 -0.0008227594455723232 -0.08574859344966404" free_energy=-1954.732848752607 pbc="T T T"
Si       0.48658031       0.48713282      -0.00024656       0.02222479      -0.00397170      -0.01555657
Si      -0.48748950      -0.48838151       3.13537245      -0.01416856      -0.01737656       0.01740481
Si       2.24083888       3.21673148       4.70047607      -0.05581921       0.05143367      -0.00723080
Si       3.21744879       2.24211758       1.56562521       0.04938998      -0.03929130       0.00157676
Si       0.68473293       3.68666109       0.04979424       0.01982516       0.02516455       0.02717748
Si       0.94914386       2.04221414       1.61772478       0.00732905       0.01306374       0.02805448
Si       1.77351980       4.77556726       3.08049112      -0.01193555      -0.02892933      -0.01658400
Si       2.04102935       0.94762420       4.64989272      -0.00429614       0.01825688      -0.00596362
Si       3.41728006       4.51133177       1.51273082      -0.00922508      -0.01281043      -0.03083349
Si       3.68566753       0.68493749      -0.05302622       0.01428498       0.00647689      -0.01269245
Si       4.50905929       3.41644794       4.75141406      -0.00926669       0.01166885       0.00476838
Si       4.77435336       1.77339714       3.18477798      -0.00834273      -0.02368527       0.00987904
12
Lattice="5.467906896658792 -0.00028353394826831596 0.0017882918927521118 -0.00028350562119139306 5.469667287804251 0.003178858998503125 0.002076471918063685 0.0037025734482390776 6.2712809995096945" Properties=species:S:1:pos:R:3:forces:R:3 cutoff=-1.0 nneightol=1.2 n_minim_iter=6 energy=-1954.734124968056 stress="-0.08542398886814251 -5.428116986649767e-05 0.000540071801361378 -5.428116986649767e-05 -0.08460660108565093 0.0009639708222126723 0.000540071801361378 0.0009639708222126723 -0.08507454565169462" free_energy=-1954.734124968056 pbc="T T T"
Si       0.49008813       0.49066020       0.00049937       0.00710869      -0.00122842       0.01577974
Si      -0.48907081      -0.48843103       3.13521022      -0.01352433       0.00245682      -0.01483837
Si       2.24525634       3.22778136       4.70610281      -0.01045554       0.00117967       0.00170172
Si       3.22440602       2.24542711       1.57027857       0.01851540      -0.01634668      -0.00787906
Si       0.69081236       3.68829879       0.05785525      -0.01123630       0.04135948      -0.01036329
Si       0.95417560       2.04474203       1.62429623       0.01566103      -0.01674058       0.00195724
Si       1.78117414       4.78030696       3.08359832      -0.02212626       0.01376349       0.00527976
Si       2.04454392       0.95676697       4.64951336       0.00812645       0.01356863      -0.02441526
Si       3.42503119       4.51640330       1.51622431       0.00940090      -0.02502088       0.00732806
Si       3.68757605       0.69067393      -0.05369363       0.01300325       0.01705185      -0.00398578
Si       4.51547681       3.42841064       4.76207849      -0.00938731      -0.01103373       0.01641461
Si       4.77799132       1.78254008       3.19363697      -0.00508599      -0.01900966       0.01302063
12
Lattice="5.468764663928698 0.002659811474900489 -0.00011617262638677989 0.00265980993920105 5.46928934426371 -0.0001766183697209197 -0.0001415988412403882 -0.0002050416358985032 6.27072929939882" Properties=species:S:1:pos:R:3:forces:R:3 cutoff=-1.0 nneightol=1.2 n_minim_iter=7 energy=-1954.734401060619 stress="-0.08484691199779347 0.0004123685196466636 -4.505648683181091e-05 0.0004123685196466636 -0.08458826510546472 -5.916858418272228e-05 -4.505648683181091e-05 -5.916858418272228e-05 -0.08473444976581242" free_energy=-1954.734401060619 pbc="T T T"
Si       0.49132601       0.49177376       0.00007895       0.01065764      -0.00403931      -0.00402071
Si      -0.49143551      -0.49148144       3.13534885      -0.00875865      -0.00909862       0.00249283
Si       2.24471175       3.22678240       4.70294206      -0.00198647       0.00038061      -0.00204451
Si       3.22655867       2.24503833       1.56762506       0.00187785      -0.00081166      -0.00155665
Si       0.69299870       3.68908190       0.05677979      -0.00736128       0.03131506      -0.00730982
Si       0.95546655       2.04392695       1.62404429       0.01396670      -0.00269752       0.00945135
Si       1.78229093       4.77891197       3.07830857      -0.01869071       0.00389494       0.00628739
Si       2.04364789       0.95550656       4.64626592      -0.00301279       0.01518651      -0.00089319
Si       3.42761083       4.51635560       1.51068888       0.00217971      -0.01736653      -0.00126261
Si       3.68916202       0.69284371      -0.05689581       0.01613620      -0.00249049       0.00499986
Si       4.51574854       3.42770806       4.75951683      -0.01241565       0.00590861       0.00095853
Si       4.77839879       1.78237529       3.19211450       0.00740743      -0.02018162      -0.00710249
12
Lattice="5.469988886640283 -0.0008505172941267278 8.831509938681978e-05 -0.0008505739866134912 5.4695499835134616 -7.566944702188607e-05 9.663132897699493e-05 -8.751044493289162e-05 6.26902577638969" Properties=species:S:1:pos:R:3:forces:R:3 cutoff=-1.0 nneightol=1.2 n_minim_iter=8 energy=-1954.73451053381 stress="-0.0842538412606125 -0.00014027827781079076 2.1458454280288527e-05 -0.00014027827781079076 -0.08444454567625581 -2.6186559087607986e-05 2.1458454280288527e-05 -2.6186559087607986e-05 -0.08430932521761568" free_energy=-1954.73451053381 pbc="T T T"
Si       0.49201041       0.49217385       0.00005406       0.00132011      -0.00345104      -0.00224143
Si      -0.49197403      -0.49200916       3.13448292      -0.00114532      -0.00360429       0.00017860
Si       2.24249905       3.22640343       4.70179046      -0.00529850       0.00725231      -0.00096508
Si       3.22672654       2.24227264       1.56734664       0.00592002      -0.00792215      -0.00003968
Si       0.69076169       3.68996999       0.05838503      -0.00295144       0.01728215      -0.01151896
Si       0.95532331       2.04333052       1.62547254       0.01109788       0.00317647      -0.00393549
Si       1.77876735       4.77803196       3.07605083      -0.01312464       0.00086132       0.00978021
Si       2.04357493       0.95521790       4.64343297       0.00324887       0.00933059       0.00966860
Si       3.42563432       4.51347274       1.50884133      -0.00233499      -0.01063026       0.01026234
Si       3.69047140       0.69056595      -0.05833296       0.01134231       0.00043558       0.00802309
Si       4.51387365       3.42519104       4.76014479      -0.00979773      -0.00116517      -0.00721153
Si       4.77845778       1.77848267       3.19301063       0.00172342      -0.01156553      -0.01200067
12
Lattice="5.469801891750591 0.000639002044689406 -0.0007977397941369856 0.0006390073903535762 5.4700573863493815 0.00040770193449312655 -0.0009351992617352729 0.0004752898997606851 6.268658662135258" Properties=species:S:1:pos:R:3:forces:R:3 cutoff=-1.0 nneightol=1.2 n_minim_iter=9 energy=-1954.734568560461 stress="-0.08453284821663822 0.0001014270009048574 -0.0002443285235847656 0.0001014270009048574 -0.08441356047633525 0.0001254313696689928 -0.0002443285235847656 0.0001254313696689928 -0.0844602825566279" free_energy=-1954.734568560461 pbc="T T T"
Si       0.49199907       0.49194549      -0.00005798       0.00711828       0.00833898      -0.00035216
Si      -0.49246832      -0.49181494       3.13435340      -0.00406840      -0.00408193       0.00173472
Si       2.24259002       3.22769472       4.70138592      -0.00403212       0.00060444       0.00415452
Si       3.22693361       2.24350207       1.56690408       0.00037390      -0.00264758      -0.00489459
Si       0.69155054       3.69108006       0.05760969      -0.00047739       0.00407180      -0.00313539
Si       0.95580590       2.04402461       1.62474242       0.00618463       0.00293886      -0.00327845
Si       1.77917631       4.77932954       3.07695360      -0.00477775       0.00678394      -0.00086618
Si       2.04311941       0.95647317       4.64376629       0.00067051       0.00713258       0.00203837
Si       3.42641894       4.51470017       1.50949098      -0.00781170      -0.00810972       0.00338724
Si       3.69078540       0.69161582      -0.05798851       0.00749855      -0.00302626       0.00712130
Si       4.51370144       3.42713519       4.75863212      -0.00880400      -0.00606082      -0.00728741
Si       4.77838378       1.77993485       3.19122178       0.00812549      -0.00594430       0.00137804
12
Lattice="5.469845869175056 0.0008881336313999172 0.0002150346607129296 0.0008881166958112118 5.47022197172802 -0.0001653210877415769 0.00024413708266841704 -0.00019194672214693423 6.268419578709342" Properties=species:S:1:pos:R:3:forces:R:3 cutoff=-1.0 nneightol=1.2 n_minim_iter=10 energy=-1954.734587782845 stress="-0.08457855916158637 0.0001430097013985984 6.925805139403883e-05 0.0001430097013985984 -0.08440697533554238 -4.9700100617268445e-05 6.925805139403883e-05 -4.9700100617268445e-05 -0.08448907242719784" free_energy=-1954.734587782845 pbc="T T T"
Si       0.49208719       0.49195248      -0.00004863       0.00512894       0.00982426       0.00218205
Si      -0.49194603      -0.49224701       3.13420791      -0.00679866      -0.00502164       0.00005187
Si       2.24356444       3.22746132       4.70128912      -0.00068212       0.00038224      -0.00136099
Si       3.22742150       2.24345603       1.56717229       0.00145371       0.00052182       0.00101061
Si       0.69167677       3.69149939       0.05709109      -0.00567375      -0.00167796       0.00377823
Si       0.95638037       2.04399958       1.62450873       0.00587440       0.00637103      -0.00728914
Si       1.77978958       4.77928746       3.07688247      -0.00335017       0.00519520       0.00177065
Si       2.04409215       0.95625856       4.64406885       0.00604750       0.00676370       0.00126867
Si       3.42687274       4.51464329       1.50982035      -0.00428104      -0.00530911       0.00009778
Si       3.69101773       0.69180090      -0.05714160       0.00407045      -0.00769924       0.00047294
Si       4.51462815       3.42689989       4.75871913      -0.00598798      -0.00504235      -0.00277146
Si       4.77918395       1.77967487       3.19156696       0.00419873      -0.00430795       0.00078879
12
Lattice="5.470253771082255 0.0001258634621634071 7.366169120869981e-05 0.0001258352183943547 5.470338200014208 -5.423615271917288e-05 7.95342413825751e-05 -6.261280662325922e-05 6.267818808943948" Properties=species:S:1:pos:R:3:forces:R:3 cutoff=-1.0 nneightol=1.2 n_minim_iter=11 energy=-1954.734612623919 stress="-0.08444369738837516 2.9151173270546164e-06 5.025755134831067e-06 2.9151173270546164e-06 -0.08441377310492877 5.5641610925678305e-06 5.025755134831067e-06 5.5641610925678305e-06 -0.08442357514071236" free_energy=-1954.734612623919 pbc="T T T"
Si       0.49241737       0.49221855      -0.00006187       0.00203393       0.01032745       0.00242657
Si      -0.49236000      -0.49250008       3.13391943      -0.00342278      -0.00190987      -0.00042187
Si       2.24281958       3.22765851       4.70083295      -0.00159866       0.00097452       0.00101292
Si       3.22765122       2.24272582       1.56696712       0.00109671      -0.00062879       0.00002536
Si       0.69109180       3.69198097       0.05728994      -0.00351191      -0.00812439       0.00331666
Si       0.95658871       2.04405929       1.62453325       0.00262314       0.00767612      -0.00721248
Si       1.77870522       4.77931216       3.07650726      -0.00021482       0.00603226      -0.00072399
Si       2.04410173       0.95654167       4.64344282       0.00772713       0.00325007       0.00156828
Si       3.42635440       4.51382524       1.50954501      -0.00709948      -0.00212650       0.00104174
Si       3.69165456       0.69121455      -0.05735926       0.00116355      -0.00687237      -0.00005797
Si       4.51390915       3.42635195       4.75835633      -0.00394662      -0.00802565      -0.00295659
Si       4.77932220       1.77864992       3.19130880       0.00514982      -0.00057286       0.00198136
12
Lattice="5.470550428774517 -0.00011881370523857335 9.860018236385558e-05 -0.00011885245333638851 5.470454110703672 -8.270116714248455e-05 0.00010857817419490799 -9.577396070729005e-05 6.267346119790124" Properties=species:S:1:pos:R:3:forces:R:3 cutoff=-1.0 nneightol=1.2 n_minim_iter=12 energy=-1954.734633288824 stress="-0.08434809809066077 -5.315849726659652e-06 3.554296141044692e-06 -5.315849726659652e-06 -0.08441560342300612 5.4668001222446995e-06 3.554296141044692e-06 5.4668001222446995e-06 -0.08437260385793353" free_energy=-1954.734633288824 pbc="T T T"
Si       0.49279002       0.49269019      -0.00003427      -0.00118984       0.00588000       0.00160457
Si      -0.49274312      -0.49288621       3.13368554       0.00019705       0.00025280      -0.00048340
Si       2.24246293       3.22795103       4.70048314      -0.00072134       0.00050380       0.00104080
Si       3.22807888       2.24226065       1.56683292       0.00039404      -0.00003888       0.00044574
Si       0.69079414       3.69232759       0.05738264      -0.00446798      -0.00822299       0.00171154
Si       0.95701644       2.04430354       1.62436707      -0.00102153       0.00726492      -0.00329533
Si       1.77817439       4.77952786       3.07619390       0.00241885       0.00659828      -0.00085828
Si       2.04444147       0.95690378       4.64306519       0.00745005      -0.00119395       0.00015804
Si       3.42611033       4.51330404       1.50939507      -0.00686338       0.00189492      -0.00037746
Si       3.69225205       0.69086577      -0.05740102      -0.00196451      -0.00729965      -0.00059051
Si       4.51354708       3.42596485       4.75800561       0.00005403      -0.00793885      -0.00048387
Si       4.77972186       1.77803240       3.19116124       0.00571455       0.00229960       0.00112815
