12
Lattice="5.920269747243045 0.0019214489191541236 0.00013570941906497573 0.0019219218100355502 5.920371865678158 -7.168140282497737e-05 0.00016600578342335746 -8.798582812217522e-05 7.239799913883044" Properties=species:S:1:pos:R:3:forces:R:3 cutoff=-1.0 nneightol=1.2 n_minim_iter=1 energy=-1954.845880201905 stress="0.0689859754567001 0.0001913959980548946 1.947600082888043e-05 0.0001913959980548946 0.0690004077993734 -1.0126587159633564e-05 1.947600082888043e-05 -1.0126587159633564e-05 0.06789191667132245" free_energy=-1954.845880201905 pbc="T T T"
Si       0.45560265       0.45562337       0.00001081       0.01249793       0.01249738       0.00002491
Si      -0.45549606      -0.45563481       3.61990922      -0.01323171      -0.01305660      -0.00016632
Si       2.50591336       3.41638952       5.42986142      -0.00988705       0.00996023      -0.00027476
Si       3.41644733       2.50581269       1.80999354       0.01013393      -0.00986239       0.00028055
Si       0.75979244       3.92947095      -0.15772014       0.02868800      -0.00420344      -0.06860755
Si       0.96978236       2.20195542       1.65219302      -0.00451939      -0.03082710      -0.06770142
Si       1.99288329       5.16243996       3.77757747       0.00438476      -0.02912250       0.06899571
Si       2.20207040       0.96969015       5.58762952      -0.03085735      -0.00443286       0.06762511
Si       3.72028785       4.95252619       1.96769093       0.03141321       0.00433134       0.06796016
Si       3.92936206       0.75978547       0.15777774      -0.00395882       0.02900577       0.06850976
Si       4.95256782       3.72023289       5.27217833       0.00465380       0.03133908      -0.06757582
Si       5.16249188       1.99277883       3.46231789      -0.02931730       0.00437110      -0.06907033
12
Lattice="5.9125514054916115 -0.002183345320141488 -0.0002822022224657956 -0.002182843330174405 5.912344053231708 0.00014561442884300998 -0.00034573551961721054 0.00017814100731376734 7.259094180188102" Properties=species:S:1:pos:R:3:forces:R:3 cutoff=-1.0 nneightol=1.2 n_minim_iter=2 energy=-1954.846479174108 stress="0.06796127203445185 -0.00021785124540057939 -3.897099494240721e-05 -0.00021785124540057939 0.06792316144869347 2.0262073264741116e-05 -3.897099494240721e-05 2.0262073264741116e-05 0.06923476581653631" free_energy=-1954.846479174108 pbc="T T T"
Si       0.45487125       0.45486815      -0.00000426       0.01428653       0.01443804      -0.00038112
Si      -0.45503106      -0.45475455       3.62956945      -0.01411201      -0.01441834      -0.00003355
Si       2.49975484       3.41036321       5.44427674      -0.01828495       0.01820920       0.00072457
Si       3.41027452       2.49997392       1.81467193       0.01784531      -0.01838256      -0.00042480
Si       0.75649986       3.92355106      -0.15903247       0.03273162      -0.01326459      -0.07086552
Si       0.96681165       2.19791913       1.65563883      -0.01340163      -0.02996733      -0.06954354
Si       1.98650435       5.15378354       3.78868203       0.01310280      -0.03179437       0.06970214
Si       2.19769301       0.96699216       5.60336943      -0.03042881      -0.01361378       0.07019680
Si       3.71231588       4.94336789       1.97382747       0.02934208       0.01326473       0.07075882
Si       3.92364574       0.75645240       0.15892982      -0.01269896       0.03259553       0.07063850
Si       4.94322804       3.71239836       5.28504770       0.01325584       0.02963740      -0.07044262
Si       5.15371892       1.98668990       3.47026421      -0.03163782       0.01329608      -0.07032968
12
Lattice="5.915491425087597 -0.0007073669748284905 0.0011351977896791273 -0.0007074057808047178 5.917028681656928 -0.0005912924788917015 0.0013881470912647774 -0.0007236990692224655 7.249741506647331" Properties=species:S:1:pos:R:3:forces:R:3 cutoff=-1.0 nneightol=1.2 n_minim_iter=3 energy=-1954.849219069823 stress="0.06781562896035129 -7.01798321800436e-05 0.0001597380097314719 -7.01798321800436e-05 0.06807799869491295 -8.299807533452655e-05 0.0001597380097314719 -8.299807533452655e-05 0.06677673360696884" free_energy=-1954.849219069823 pbc="T T T"
Si       0.45657434       0.45671341       0.00003028      -0.03913210      -0.04029336       0.00163500
Si      -0.45589655      -0.45707877       3.62483029       0.03719724       0.03909200       0.00008568
Si       2.50172001       3.41444463       5.43745865       0.03824936      -0.03835111      -0.00326558
Si       3.41444951       2.50114769       1.81283326      -0.03632855       0.03913010       0.00157759
Si       0.76094655       3.92598440      -0.16627521      -0.01008476       0.00938104      -0.01598162
Si       0.96733262       2.19659608       1.64643674       0.00851321       0.00928074      -0.02155803
Si       1.99057163       5.15478701       3.79073771      -0.00809062       0.00607954       0.02134815
Si       2.19724179       0.96670142       5.60361193       0.01077509       0.00992547       0.01845782
Si       3.71896882       4.94885419       1.97866053      -0.00623485      -0.00907177       0.01740615
Si       3.92498104       0.76115210       0.16669504       0.00766242      -0.00879287       0.01747007
Si       4.94877819       3.71903076       5.27189478      -0.00777130      -0.00718508      -0.01849514
Si       5.15449881       1.99001702       3.45964232       0.00524486      -0.00919469      -0.01868008
12
Lattice="5.914007110194712 0.002899719626827388 -0.0017037426647011243 0.002901357386820181 5.910571754062321 0.00088278256453051 -0.002084450299574776 0.0010803342410115385 7.2594850085814455" Properties=species:S:1:pos:R:3:forces:R:3 cutoff=-1.0 nneightol=1.2 n_minim_iter=4 energy=-1954.849620796138 stress="0.06760582333381152 0.0002902238419024316 -0.00023920813464436906 0.0002902238419024316 0.06702094078892024 0.00012442145179708522 -0.00023920813464436906 0.00012442145179708522 0.06721457973966798" free_energy=-1954.849620796138 pbc="T T T"
Si       0.45648640       0.45622711      -0.00005691      -0.03538885      -0.03266251      -0.00293311
Si      -0.45757601      -0.45571186       3.62980678       0.03920654       0.03505122      -0.00065023
Si       2.50077719       3.41338770       5.44437816       0.04107421      -0.03964774       0.00548908
Si       3.41406736       2.50116826       1.81427258      -0.04403122       0.03846519      -0.00182847
Si       0.76377925       3.92203725      -0.16767547      -0.00902615       0.00137860      -0.01696080
Si       0.96753956       2.19465816       1.64688971       0.00471248       0.00826990      -0.00890636
Si       1.99150322       5.15072241       3.79801444      -0.00490853       0.01518893       0.00770043
Si       2.19407058       0.96829520       5.61213702       0.00605712       0.00144155       0.01472879
Si       3.72068559       4.94630422       1.98257032      -0.01291760      -0.00255578       0.01545860
Si       3.92428047       0.76332378       0.16703111       0.00485817      -0.01123148       0.01355244
Si       4.94739289       3.71986905       5.27572068      -0.00587243      -0.01170647      -0.01291485
Si       5.15215582       1.99193759       3.46048933       0.01623625      -0.00199142      -0.01273553
12
Lattice="5.906486006483401 -3.14955760413391e-05 0.0012248521459756016 -3.27142520225041e-05 5.911692503740907 -0.0006412231974684138 0.0014971374784621878 -0.000784481442764021 7.267348836314656" Properties=species:S:1:pos:R:3:forces:R:3 cutoff=-1.0 nneightol=1.2 n_minim_iter=5 energy=-1954.849860749154 stress="0.0663195064873548 -2.69398484078306e-06 0.00017205765697465852 -2.69398484078306e-06 0.06721260416533063 -8.970206831988782e-05 0.00017205765697465852 -8.970206831988782e-05 0.06757937849333709" free_energy=-1954.849860749154 pbc="T T T"
Si       0.45498714       0.45542197       0.00002329      -0.03111607      -0.03604304       0.00370652
Si      -0.45425641      -0.45582242       3.63362028       0.02906119       0.03477951       0.00202491
Si       2.49932204       3.41068266       5.45068358       0.03137405      -0.03515908      -0.00547057
Si       3.40862482       2.50018855       1.81727283      -0.02930789       0.03599981      -0.00018699
