12
Lattice="5.3667149827286345 -0.0002074439663019942 9.611179472756997e-05 -0.0002074517545995653 5.3659050210204295 0.00024100255111674708 0.00010452322871471591 0.0002698785313139661 5.938398670812125" Properties=species:S:1:pos:R:3:forces:R:3 cutoff=-1.0 nneightol=1.2 n_minim_iter=1 energy=-1952.587674527228 stress="-0.19270509916717665 -5.806248200804342e-06 -1.5584792033047394e-06 -5.806248200804342e-06 -0.19310706312718845 -1.629242267966226e-05 -1.5584792033047394e-06 -1.629242267966226e-05 -0.1895766459420112" free_energy=-1952.587674527228 pbc="T T T"
Si       0.49942591       0.49924638      -0.00000513      -0.01565952      -0.01521610      -0.00135369
Si      -0.49937617      -0.49924128       2.96913376       0.01391159       0.01199490      -0.00141050
Si       2.18382387       3.18247273       4.45400944       0.01256824      -0.01259505       0.00128366
Si       3.18279085       2.18349141       1.48478970      -0.01308210       0.01367221       0.00192568
Si       0.66561852       3.65024512       0.09741820      -0.04902286       0.04467166       0.18424698
Si       0.96737188       2.01742348       1.58195710       0.04310746       0.04958891       0.18891796
Si       1.71584816       4.70041586       2.87226552      -0.04149523       0.04834987      -0.18927073
Si       2.01768776       0.96725571       4.35662069       0.04917134       0.04156566      -0.18429412
Si       3.34898830       4.39873243       1.38756384      -0.04923052      -0.04073938      -0.18417281
Si       3.65063661       0.66538072      -0.09710450       0.04322294      -0.05064414      -0.18825956
Si       4.39922801       3.34854149       4.55121008      -0.04282059      -0.04906712       0.18840357
Si       4.70096429       1.71573828       3.06662089       0.04932925      -0.04158141       0.18398357
12
Lattice="5.37864376278066 -0.0001317734781603305 0.0001159856739897788 -0.0001315914466207695 5.3831156201601145 0.00045303781498092974 0.00012733456974805545 0.0005068463701054278 5.906284677730536" Properties=species:S:1:pos:R:3:forces:R:3 cutoff=-1.0 nneightol=1.2 n_minim_iter=2 energy=-1952.591564271334 stress="-0.19019822538832382 -1.3075327982212994e-05 4.581383141517908e-05 -1.3075327982212994e-05 -0.18771609864257313 0.0001985021395502756 4.581383141517908e-05 0.0001985021395502756 -0.1936909674967417" free_energy=-1952.591564271334 pbc="T T T"
Si       0.50031890       0.50063669      -0.00000260      -0.04885012      -0.05866105       0.01039376
Si      -0.50028278      -0.50055969       2.95303534       0.04878959       0.06660429       0.00518588
Si       2.18892008       3.19270783       4.43007587       0.04932361      -0.06668360      -0.00588745
Si       3.18971475       2.19079498       1.47688645      -0.04874970       0.06455293      -0.00941446
Si       0.66644843       3.66260656       0.09965692      -0.05253934       0.11942622       0.19269595
Si       0.97017401       2.02468162       1.57617025       0.10789941       0.04857532       0.17135076
Si       1.71914570       4.71632337       2.85423690      -0.10865982       0.05286945      -0.17604479
Si       2.02290688       0.97115560       4.33048833       0.05237494       0.12436391      -0.19556413
Si       3.35579518       4.41235974       1.37763088      -0.05264011      -0.12695122      -0.19019406
Si       3.65937893       0.66683702      -0.09921395       0.10915485      -0.04718671      -0.17550658
Si       4.40845817       3.35882200       4.52942454      -0.10763822      -0.05311898       0.17696164
Si       4.71215562       1.72083431       3.05273724       0.05153491      -0.12379054       0.19602349
12
Lattice="5.396973260083767 0.0001927281822242199 -0.0004649095082365892 0.00019196332401408368 5.377837695157156 -0.0018203960216526627 -0.0005149080251580815 -0.0020087848811183888 5.892002979599992" Properties=species:S:1:pos:R:3:forces:R:3 cutoff=-1.0 nneightol=1.2 n_minim_iter=3 energy=-1952.599903413128 stress="-0.18131465091321367 4.130551448782763e-05 -0.0001947788035968652 4.130551448782763e-05 -0.19198205768543972 -0.0007461954493114995 -0.0001947788035968652 -0.0007461954493114995 -0.19008672194536844" free_energy=-1952.599903413128 pbc="T T T"
Si       0.50089653       0.49888833      -0.00015275      -0.00361432       0.06364681      -0.03710166
Si      -0.50123063      -0.50003945       2.94619682       0.00801837      -0.06805184      -0.01623099
Si       2.19716894       3.18648852       4.41772932       0.00707124       0.06702920       0.02065086
Si       3.19947108       2.18954314       1.47196099      -0.00919591      -0.05761965       0.03214451
Si       0.66679846       3.66200715       0.10560459      -0.00563272       0.04055186       0.06707120
Si       0.97622074       2.02416171       1.57902208       0.10735505       0.01348958       0.14498347
Si       1.72222080       4.71270045       2.83745692      -0.10847074      -0.00641485      -0.14129754
Si       2.03152073       0.97146936       4.31153696       0.00369537       0.05243723      -0.04767381
Si       3.36521002       4.40465162       1.36430710      -0.01052843      -0.04734842      -0.06732328
Si       3.67471369       0.66436054      -0.10731625       0.10944454      -0.01266469      -0.14248046
Si       4.42041079       3.35172939       4.52427086      -0.10869310       0.00767435       0.13756907
Si       4.73010788       1.71515183       3.05197023       0.01055065      -0.05272960       0.04968863
12
Lattice="5.386304388128815 0.00026594544024043673 -0.00014324690586742117 0.00026607729351512993 5.390835762170481 -0.0006189810016405612 -0.00015908740340380993 -0.0006784055900424303 5.889438282960127" Properties=species:S:1:pos:R:3:forces:R:3 cutoff=-1.0 nneightol=1.2 n_minim_iter=4 energy=-1952.604863370151 stress="-0.18705715867845912 5.292035871097178e-05 -5.980670566832475e-05 5.292035871097178e-05 -0.18459791656367994 -0.0002399339297388654 -5.980670566832475e-05 -0.0002399339297388654 -0.18591554483101247" free_energy=-1952.604863370151 pbc="T T T"
Si       0.49909470       0.49946202      -0.00008101       0.11752239       0.10332463       0.00352037
Si      -0.49926791      -0.49994880       2.94473313      -0.11393882      -0.10192085       0.01078102
Si       2.19391217       3.19456622       4.41669691      -0.11272776       0.10096346      -0.00936211
Si       3.19247600       2.19590465       1.47207063       0.11267740      -0.09857381      -0.00606281
Si       0.66401606       3.67314856       0.11218340       0.03188134       0.02741698       0.04542695
Si       0.97679235       2.03095031       1.58479877       0.01979616      -0.02774568       0.02106908
Si       1.71669409       4.72622309       2.83138346      -0.02182235      -0.03306219      -0.01947410
Si       2.02929318       0.97711832       4.30427733      -0.03389630       0.03364064      -0.03854011
Si       3.35715460       4.41336854       1.35915508       0.03146782      -0.03275730      -0.04554493
Si       3.66985428       0.66446366      -0.11287515       0.01992390       0.02831528      -0.02085015
Si       4.40961538       3.35943797       4.52928451      -0.02052245       0.03466355       0.01960798
Si       4.72250153       1.71776117       3.05703407      -0.03036131      -0.03426470       0.03942883
12
Lattice="5.389974761667606 -0.00047426846413199143 0.0010931966675361477 -0.0004742514316371342 5.3894815133173966 0.004285569898446471 0.0012093563636455331 0.00474950053648184 5.886910632889154" Properties=species:S:1:pos:R:3:forces:R:3 cutoff=-1.0 nneightol=1.2 n_minim_iter=5 energy=-1952.606565773599 stress="-0.184871797707686 -7.069947679493075e-05 0.000446659027554203 -7.069947679493075e-05 -0.18519351038043824 0.001761919275434224 0.000446659027554203 0.001761919275434224 -0.18503195367434583" free_energy=-1952.606565773599 pbc="T T T"
Si       0.50079975       0.50068425       0.00044130       0.09953902       0.11787051       0.02303970
Si      -0.50023802      -0.49845695       2.94300343      -0.10358188      -0.09292262      -0.02392013
Si       2.19461687       3.19892698       4.41813845      -0.09914230       0.09530403       0.01435002
Si       3.19605969       2.19494433       1.47417279       0.10542915      -0.11882261      -0.01438094
Si       0.66389846       3.67342751       0.11843930       0.02676170       0.02522261      -0.00611626
Si       0.97878911       2.03193897       1.58887747       0.02426679      -0.05557250       0.00301118
Si       1.71660951       4.72744100       2.83219474      -0.02642553      -0.00836706      -0.01469377
Si       2.03159942       0.98185939       4.30112453      -0.02524462       0.01276853      -0.03624608
Si       3.35903631       4.41177818       1.36055148       0.03795273      -0.02791909       0.00945036
Si       3.67349097       0.66352186      -0.11406074       0.02025582       0.05788128      -0.01432116
Si       4.41195879       3.36215215       4.53406224      -0.02151572       0.00720894       0.02626947
Si       4.72632380       1.71819131       3.06104670      -0.03829516      -0.01265201       0.03355761
12
Lattice="5.397043682942858 -0.0015425819642187223 -0.0010528264228841673 -0.0015426634429126101 5.388431299085238 -0.004116554805091872 -0.0011654274899362432 -0.004548925667457043 5.880346082319739" Properties=species:S:1:pos:R:3:forces:R:3 cutoff=-1.0 nneightol=1.2 n_minim_iter=6 energy=-1952.60987311543 stress="-0.18031484437596948 -0.00025184766869648504 -0.0004254205425789849 -0.00025184766869648504 -0.1850539605410772 -0.0016508396162652783 -0.0004254205425789849 -0.0016508396162652783 -0.18268317915953478" free_energy=-1952.60987311543 pbc="T T T"
Si       0.50635417       0.50568600      -0.00037195       0.06039791       0.07417985      -0.03583238
Si      -0.50690276      -0.50777451       2.94066702      -0.05682480      -0.10044066       0.00937176
Si       2.19022790       3.19573487       4.40735226      -0.06796125       0.10719211      -0.00038672
Si       3.20413073       2.18658448       1.46766835       0.06232153      -0.08670143       0.02673161
Si       0.66395792       3.67605631       0.12013799       0.03316448      -0.00411459      -0.03031720
Si       0.98283295       2.02868982       1.59117827       0.02411856      -0.00332010       0.00391621
Si       1.71289694       4.72183995       2.81325903      -0.02237496      -0.05290124       0.01013069
Si       2.03229940       0.97828003       4.28601133      -0.02917763       0.00539253       0.06906885
Si       3.36207534       4.40419215       1.34306375       0.01754059       0.00881016       0.02659605
Si       3.68201173       0.66304264      -0.12419149       0.02779494       0.00787099       0.00899882
Si       4.41145080       3.35337901       4.52986233      -0.02620875       0.04830626      -0.02165606
Si       4.73092554       1.70826266       3.06107357      -0.02279061      -0.00427388      -0.06662163
12
Lattice="5.393150100840347 0.0018874328647740545 0.00015472390907025825 0.0018869688928277357 5.388696270096264 0.00033941627960175043 0.00017097235972246165 0.00038241160368865997 5.884298603389498" Properties=species:S:1:pos:R:3:forces:R:3 cutoff=-1.0 nneightol=1.2 n_minim_iter=7 energy=-1952.611905063819 stress="-0.1811908154082083 0.0002994479862898149 6.178191666803405e-05 0.0002994479862898149 -0.1836262626047078 0.0001426630424547247 6.178191666803405e-05 0.0001426630424547247 -0.18243218849236228" free_energy=-1952.611905063819 pbc="T T T"
Si       0.51000241       0.50975103       0.00007779       0.02398345       0.03639020      -0.00508728
Si      -0.50983355      -0.50940455       2.94218491      -0.02775295      -0.03979398      -0.01007633
Si       2.18795611       3.20483948       4.41340826      -0.01741047       0.03132831       0.00868737
Si       3.20727095       2.18614169       1.47121087       0.01801086      -0.03387130       0.00745297
Si       0.66679663       3.67801407       0.12485303      -0.00063964       0.01346758      -0.03607872
Si       0.98513151       2.02993243       1.59558523       0.02020201      -0.01103395      -0.00837996
Si       1.71392300       4.72450735       2.81806796      -0.01952124       0.00031815       0.01128392
Si       2.03152815       0.98454802       4.28884009      -0.00528287       0.00690638       0.02827427
Si       3.36361511       4.40636660       1.34691717       0.00811725      -0.00679596       0.03370153
Si       3.68111473       0.66623458      -0.12430284       0.02110602       0.00326205       0.01121734
Si       4.41007528       3.36110792       4.53802954      -0.01928096       0.00598713      -0.00935844
Si       4.72837438       1.71260075       3.06694241      -0.00153147      -0.00616462      -0.03163670
12
Lattice="5.389202497242395 -0.003277972607600345 -0.00020916170014540178 -0.0032775047178023875 5.389273848860658 0.0006910839970054507 -0.00023206330553296142 0.0007713466475303867 5.8879793079325085" Properties=species:S:1:pos:R:3:forces:R:3 cutoff=-1.0 nneightol=1.2 n_minim_iter=8 energy=-1952.612254309252 stress="-0.18263523277568303 -0.0005307181784102602 -8.081138607793092e-05 -0.0005307181784102602 -0.1825956171066553 0.00027913577308993275 -8.081138607793092e-05 0.00027913577308993275 -0.18260239202450118" free_energy=-1952.612254309252 pbc="T T T"
Si       0.51109574       0.51124668       0.00004737      -0.00707988      -0.00911002       0.00182721
Si      -0.51116563      -0.51077479       2.94399571       0.00628865       0.00995537      -0.00309562
Si       2.18118645       3.20522589       4.41625296      -0.00874617       0.00467327       0.00498243
Si       3.20453458       2.18153699       1.47210117       0.00726231      -0.00842631      -0.00261068
Si       0.66323148       3.67836509       0.12468149      -0.00412855       0.01777646      -0.01253370
Si       0.98289680       2.02869775       1.59635872       0.01335336       0.01228744      -0.00734783
Si       1.70740269       4.72308084       2.82039633      -0.01171378       0.00935449       0.00400698
Si       2.02822651       0.98351475       4.29182957       0.01610325       0.01369960       0.00624687
Si       3.35744520       4.40320195       1.34821559      -0.01753642      -0.01530657       0.01330651
Si       3.67835295       0.66325562      -0.12422920       0.01381102      -0.00208260       0.00863944
Si       4.40278818       3.35815133       4.54044760      -0.01395723      -0.02060887      -0.00917253
Si       4.72258573       1.70794834       3.06821920       0.00634345      -0.01221226      -0.00424908
12
Lattice="5.3887352498941725 0.001135371025940606 0.0011049343279198995 0.001135275864561436 5.389497823811718 -0.0002745636710266055 0.0012221822282273863 -0.00029718532914863374 5.888243373023788" Properties=species:S:1:pos:R:3:forces:R:3 cutoff=-1.0 nneightol=1.2 n_minim_iter=9 energy=-1952.612331796408 stress="-0.18289905627354405 0.00017977060630563273 0.00044917797937977616 0.00017977060630563273 -0.18248033665416732 -0.00011104661668685607 0.00044917797937977616 -0.00011104661668685607 -0.18264216368942418" free_energy=-1952.612331796408 pbc="T T T"
Si       0.51163473       0.51180043       0.00006562      -0.00224359      -0.00422309       0.00467370
Si      -0.51099033      -0.51189965       2.94407896      -0.00452352       0.00158770      -0.00314342
Si       2.18439847       3.20662910       4.41645674       0.00660609      -0.00625901      -0.00652827
Si       3.20669846       2.18368300       1.47255651      -0.00096837       0.00791780       0.00589340
Si       0.66622654       3.67930454       0.12387784      -0.02060826       0.01383789      -0.00127984
Si       0.98507076       2.02938411       1.59608334       0.01204538       0.01250682      -0.01070952
Si       1.71163595       4.72419179       2.82031043      -0.01169696       0.01329599       0.01217223
Si       2.03001783       0.98465379       4.29261551       0.01747074       0.01338980       0.00286919
Si       3.36096547       4.40568073       1.34861166      -0.00483865      -0.01190155       0.00360155
Si       3.67876732       0.66631869      -0.12318949       0.00900173      -0.01704611       0.00068642
Si       4.40606665       3.36094684       4.54083874      -0.00831533      -0.01010769      -0.00124963
Si       4.72436059       1.71113528       3.06894118       0.00807075      -0.01299855      -0.00698580
12
Lattice="5.388923376122425 0.0017019811779079156 -0.0002701518742232038 0.0017017302591218406 5.389570872865306 -4.878212793567371e-05 -0.0002993366664408271 -4.7346234850858416e-05 5.88795808598709" Properties=species:S:1:pos:R:3:forces:R:3 cutoff=-1.0 nneightol=1.2 n_minim_iter=10 energy=-1952.612360409766 stress="-0.1828715067570014 0.00027184950007040127 -0.00010843878778622648 0.00027184950007040127 -0.18251525259164234 -1.9942879120250856e-05 -0.00010843878778622648 -1.9942879120250856e-05 -0.1826407785357118" free_energy=-1952.612360409766 pbc="T T T"
Si       0.51164292       0.51178845      -0.00003155       0.00376897      -0.00038382      -0.00049735
Si      -0.51178929      -0.51178101       2.94402655      -0.00284847      -0.00053336       0.00192290
Si       2.18370973       3.20705312       4.41580750       0.00334822      -0.00657970       0.00057153
Si       3.20663769       2.18415234       1.47178518      -0.00500162       0.00707375      -0.00123501
Si       0.66650001       3.67951966       0.12379474      -0.01333162       0.01225913      -0.00439441
Si       0.98498510       2.02968264       1.59576741       0.00891117       0.01001637      -0.00401714
Si       1.71139135       4.72463713       2.82000941      -0.00895948       0.01516040       0.00500019
Si       2.02920553       0.98514171       4.29199392       0.00827777       0.01138581       0.00364579
Si       3.36112006       4.40607875       1.34794472      -0.01098054      -0.01110622       0.00229073
Si       3.67906676       0.66661600      -0.12405458       0.01028557      -0.01596701       0.00770083
Si       4.40533455       3.36155036       4.53958871      -0.00966347      -0.00968311      -0.00714215
Si       4.72397410       1.71171205       3.06758473       0.01619349      -0.01164223      -0.00384592
12
Lattice="5.390563330735941 -0.0012627278709175526 -0.0004363196041261038 -0.0012625880715370435 5.389957972437948 -2.2641136739924596e-06 -0.0004832807404435122 4.188897374838485e-06 5.88574383357496" Properties=species:S:1:pos:R:3:forces:R:3 cutoff=-1.0 nneightol=1.2 n_minim_iter=11 energy=-1952.612441803783 stress="-0.18247265200172624 -0.0002038964374746597 -0.00017628704533187927 -0.0002038964374746597 -0.18279973596100432 -9.77250997637381e-07 -0.00017628704533187927 -9.77250997637381e-07 -0.1825958960384679" free_energy=-1952.612441803783 pbc="T T T"
Si       0.51119473       0.51114968      -0.00004203       0.00497635       0.00667618      -0.00258950
Si      -0.51147208      -0.51116880       2.94291032      -0.00192480      -0.00567664       0.00123995
Si       2.18285430       3.20570078       4.41412845      -0.00991575       0.01166446       0.00265974
Si       3.20597428       2.18298928       1.47118523       0.00768968      -0.01149764      -0.00128083
Si       0.66404728       3.67988934       0.12355918      -0.00281533       0.00257563      -0.00663050
Si       0.98451942       2.02987382       1.59500476       0.00550560       0.00993374      -0.00375227
Si       1.70884449       4.72470188       2.81909510      -0.00567190       0.00556368       0.00243805
Si       2.02973608       0.98455076       4.29049758       0.00721744       0.00378716       0.00812573
Si       3.35910883       4.40415545       1.34754934      -0.01207886      -0.00410019       0.00621983
Si       3.68023711       0.66397588      -0.12394770       0.00641025      -0.00538145       0.00662381
Si       4.40429074       3.35882216       4.53760270      -0.00705663      -0.00970004      -0.00741893
Si       4.72499377       1.70885484       3.06611140       0.00766396      -0.00384489      -0.00563509
12
Lattice="5.3911786491273075 0.00011499438799844215 1.4125423505743667e-05 0.00011497779429876516 5.391378685316525 -1.2224934730152408e-05 1.5268130352932526e-05 -6.617250203844368e-06 5.883520900291002" Properties=species:S:1:pos:R:3:forces:R:3 cutoff=-1.0 nneightol=1.2 n_minim_iter=12 energy=-1952.612561840544 stress="-0.18264278070352846 7.765729294946464e-06 -1.2296392968842292e-06 7.765729294946464e-06 -0.1825251222691027 -2.795983712332034e-06 -1.2296392968842292e-06 -2.795983712332034e-06 -0.1826318272053916" free_energy=-1952.612561840544 pbc="T T T"
Si       0.51237832       0.51229296      -0.00001715       0.00320076       0.00590291       0.00102852
Si      -0.51245526      -0.51240363       2.94171421      -0.00072141      -0.00180515       0.00162687
Si       2.18324095       3.20813776       4.41270330      -0.00071444       0.00179392      -0.00161118
Si       3.20805544       2.18334843       1.47095930       0.00113537      -0.00156267      -0.00222493
Si       0.66400523       3.68259397       0.12298693      -0.00837981      -0.01006378       0.00457158
Si       0.98677010       2.03178815       1.59400632      -0.00623087       0.00892360      -0.00131855
Si       1.70902938       4.72749643       2.81863845       0.00425241       0.00848434      -0.00002389
Si       2.03174031       0.98680769       4.28958785       0.00785919      -0.00593107      -0.00226175
Si       3.35959665       4.40471003       1.34785397      -0.00848390       0.00495673      -0.00356929
Si       3.68232292       0.66395475      -0.12308962      -0.00645640      -0.00776551      -0.00058550
Si       4.40455479       3.35965982       4.53570690       0.00565806      -0.00786798       0.00114852
Si       4.72729801       1.70905226       3.06480310       0.00888104       0.00493466       0.00321959
12
Lattice="5.391739360684863 0.00020117079859714818 0.0001392543988628411 0.0002011212045542341 5.391276602718743 -1.2607497536525601e-05 0.00015375053990132726 -7.016254184681451e-06 5.883020447120187" Properties=species:S:1:pos:R:3:forces:R:3 cutoff=-1.0 nneightol=1.2 n_minim_iter=13 energy=-1952.612591796081 stress="-0.18243458597437762 5.111804693038981e-06 -1.3615571454182657e-05 5.111804693038981e-06 -0.18264766874610927 6.937106965591535e-07 -1.3615571454182657e-05 6.937106965591535e-07 -0.18252963634428257" free_energy=-1952.612591796081 pbc="T T T"
Si       0.51267606       0.51265933       0.00003145       0.00792818       0.00314966      -0.00176407
Si      -0.51257512      -0.51258735       2.94150289      -0.00505515      -0.00536342      -0.00103265
Si       2.18348957       3.20832328       4.41233448      -0.00435721       0.00453435       0.00101978
Si       3.20860513       2.18316386       1.47083359       0.00406588      -0.00508650       0.00055102
Si       0.66319091       3.68253912       0.12306911      -0.00018921      -0.00303006      -0.00260681
Si       0.98714478       2.03275989       1.59374318      -0.00418357       0.00011495       0.00231148
Si       1.70905766       4.72840290       2.81851344       0.00425258       0.00071241      -0.00064131
Si       2.03301995       0.98700931       4.28929787       0.00030522      -0.00514540       0.00271191
Si       3.35907460       4.40444916       1.34778040      -0.00034748       0.00510631       0.00243351
Si       3.68290968       0.66306145      -0.12293477      -0.00751758       0.00013457      -0.00076034
Si       4.40494326       3.35871069       4.53537904       0.00384651      -0.00030000       0.00039089
Si       4.72885781       1.70886565       3.06467456       0.00125184       0.00517313      -0.00261341
