12
Lattice="5.51889083 0.0 0.0 0.0 5.51889083 0.0 0.0 0.0 6.95380245" Properties=species:S:1:pos:R:3:forces:R:3 cutoff=-1.0 nneightol=1.2 n_minim_iter=1 energy=-1954.469503247773 stress="-0.03255422147416521 2.281882913263999e-10 -1.9579703406349575e-10 2.281882913263999e-10 -0.0325542215845654 3.205733114427344e-10 -1.9579703406349575e-10 3.205733114427344e-10 0.04830793449659928" free_energy=-1954.469503247773 pbc="T T T"
Si       0.46855383       0.46855383       0.00000000       1.02383243       1.02383243       0.00000000
Si      -0.46855383      -0.46855383       3.47690123      -1.02383243      -1.02383244      -0.00000002
Si       2.29089158       3.22799925       5.21535184      -1.02383232       1.02383232      -0.00000001
Si       3.22799925       2.29089158       1.73845061       1.02383232      -1.02383233       0.00000001
Si       0.66668201       3.72635509       0.16828202       0.39669628      -0.80894785      -0.95044170
Si       0.96690967       2.09276340       1.90673263      -0.80894770      -0.39669624      -0.95044176
Si       1.79253574       4.85220882       3.30861921       0.80894788      -0.39669629       0.95044167
Si       2.09276340       0.96690967       5.04706982      -0.39669623      -0.80894770       0.95044176
Si       3.42612743       4.55198116       1.57016859       0.39669622       0.80894770       0.95044181
Si       3.72635509       0.66668201      -0.16828202      -0.80894785       0.39669628       0.95044170
Si       4.55198116       3.42612743       5.38363386       0.80894770       0.39669621      -0.95044180
Si       4.85220882       1.79253574       3.64518324      -0.39669629       0.80894789      -0.95044167
12
Lattice="5.669678947671932 -1.0712561943486354e-09 8.890946512091379e-10 -1.0712561943486352e-09 5.669678948190217 -1.455691184867133e-09 1.1202592612001349e-09 -1.8341708940404013e-09 6.681139955911552" Properties=species:S:1:pos:R:3:forces:R:3 cutoff=-1.0 nneightol=1.2 n_minim_iter=2 energy=-1955.00997185702 stress="0.0004485067266383175 1.3919085125833473e-11 -1.9873151185385256e-10 1.3919085125833473e-11 0.0004485068857734118 3.0167222772900464e-10 -1.9873151185385256e-10 3.0167222772900464e-10 0.022763935417898718" free_energy=-1955.00997185702 pbc="T T T"
Si       0.48546772       0.48546772      -0.00000000       0.53793487       0.53793484       0.00000000
Si      -0.48546772      -0.48546772       3.34056998      -0.53793485      -0.53793485      -0.00000002
Si       2.34937175       3.32030720       5.01085497      -0.53793478       0.53793478      -0.00000001
Si       3.32030720       2.34937175       1.67028499       0.53793478      -0.53793478       0.00000001
Si       0.68649045       3.82491828       0.15811358       0.35551049      -0.22722494      -0.95914268
Si       0.99007880       2.14834902       1.82839856      -0.22722482      -0.35551043      -0.95914275
Si       1.84476067       4.98318850       3.18245640       0.22722496      -0.35551048       0.95914266
Si       2.14834902       0.99007880       4.85274139      -0.35551043      -0.22722481       0.95914275
Si       3.52132993       4.67960015       1.51217141       0.35551042       0.22722481       0.95914280
Si       3.82491828       0.68649045      -0.15811358      -0.22722495       0.35551049       0.95914269
Si       4.67960015       3.52132993       5.16896855       0.22722481       0.35551042      -0.95914278
Si       4.98318850       1.84476067       3.49868355      -0.35551049       0.22722496      -0.95914266
12
Lattice="5.623747610447995 -9.551892579677497e-10 3.0033192829544534e-09 -9.551892724604344e-10 5.623747608837014 -4.63513952989656e-09 3.784182298808198e-09 -5.8402758111971104e-09 6.419168711138438" Properties=species:S:1:pos:R:3:forces:R:3 cutoff=-1.0 nneightol=1.2 n_minim_iter=3 energy=-1955.092420546444 stress="-0.02187626221842872 -1.5020123771853707e-10 -2.577735128565937e-10 -1.5020123771853707e-10 -0.021876262353038148 3.3339468711260694e-10 -2.577735128565937e-10 3.3339468711260694e-10 -0.01629410331158137" free_energy=-1955.092420546444 pbc="T T T"
Si       0.48628223       0.48628223      -0.00000000       0.44570299       0.44570291      -0.00000001
Si      -0.48628223      -0.48628224       3.20958436      -0.44570294      -0.44570294      -0.00000003
Si       2.32559157       3.29815604       4.81437653      -0.44570288       0.44570289       0.00000000
Si       3.29815604       2.32559156       1.60479218       0.44570288      -0.44570290      -0.00000000
Si       0.68436178       3.79232357       0.14401909       0.38612646      -0.03272317      -0.78643512
Si       0.98044976       2.12751202       1.74881127      -0.03272304      -0.38612637      -0.78643519
Si       1.83142404       4.93938582       3.06556526       0.03272316      -0.38612644       0.78643511
Si       2.12751202       0.98044976       4.67035744      -0.38612638      -0.03272303       0.78643521
Si       3.49623559       4.64329784       1.46077308       0.38612638       0.03272301       0.78643526
Si       3.79232357       0.68436178      -0.14401909      -0.03272322       0.38612649       0.78643511
Si       4.64329785       3.49623558       4.95839563       0.03272302       0.38612638      -0.78643523
Si       4.93938583       1.83142403       3.35360345      -0.38612644       0.03272317      -0.78643512
12
Lattice="5.714109337361947 1.5978735600194432e-09 8.332434347154088e-09 1.5978715919377957e-09 5.714109333916663 -1.1987459393577774e-08 1.0498868279164743e-08 -1.51041998132956e-08 6.430710835142818" Properties=species:S:1:pos:R:3:forces:R:3 cutoff=-1.0 nneightol=1.2 n_minim_iter=4 energy=-1955.300147218398 stress="0.0013686446184715728 -2.0220332304461507e-10 -1.4907480410923953e-10 -2.0220332304461507e-10 0.0013686421447834016 6.942786678215124e-10 -1.4907480410923953e-10 6.942786678215124e-10 -0.008726513711003395" free_energy=-1955.300147218398 pbc="T T T"
Si       0.50297331       0.50297331      -0.00000000       0.19166186       0.19166216       0.00000003
Si      -0.50297330      -0.50297331       3.21535542      -0.19166194      -0.19166194      -0.00000003
Si       2.35408137       3.36002797       4.82303312      -0.19166194       0.19166194       0.00000002
Si       3.36002798       2.35408135       1.60767771       0.19166193      -0.19166196      -0.00000002
Si       0.70332137       3.85266845       0.12860945       0.27118958       0.09776899      -0.75102864
Si       0.99561379       2.15373329       1.73628716       0.09776932      -0.27118947      -0.75102874
Si       1.86144089       5.01078796       3.08674595      -0.09776925      -0.27118951       0.75102866
Si       2.15373331       0.99561377       4.69442367      -0.27118943       0.09776932       0.75102871
Si       3.56037604       4.71849555       1.47906824       0.27118949      -0.09776937       0.75102877
Si       3.85266845       0.70332137      -0.12860946       0.09776924       0.27118960       0.75102864
Si       4.71849556       3.56037603       4.95164259      -0.09776935       0.27118949      -0.75102872
Si       5.01078798       1.86144088       3.34396488      -0.27118949      -0.09776925      -0.75102868
12
Lattice="5.799966727670458 1.641628454456281e-08 2.6209566523629225e-08 1.6416279376081155e-08 5.79996687966648 -6.698136335178333e-08 3.302405569170361e-08 -8.439651815941373e-08 6.549434783117532" Properties=species:S:1:pos:R:3:forces:R:3 cutoff=-1.0 nneightol=1.2 n_minim_iter=5 energy=-1955.553332968402 stress="0.024527613843580293 -1.2910877599581007e-09 -1.596144449301504e-09 -1.2910877599581007e-09 0.024527647227043335 1.8224454419114647e-10 -1.596144449301504e-09 1.8224454419114647e-10 -0.0012584762046465347" free_energy=-1955.553332968402 pbc="T T T"
Si       0.53978347       0.53978350      -0.00000000      -0.29275105      -0.29275216      -0.00000011
Si      -0.53978346      -0.53978353       3.27471740       0.29275140       0.29275156       0.00000014
Si       2.36019993       3.43976687       4.91207606       0.29275125      -0.29275139      -0.00000004
Si       3.43976685       2.36019994       1.63735868      -0.29275129       0.29275124      -0.00000035
Si       0.74300470       3.91080187       0.06825678      -0.07614427       0.16075847      -0.46595926
Si       1.01081844       2.15697872       1.70561549       0.16075851       0.07614465      -0.46595937
Si       1.88916498       5.05696214       3.20646052      -0.16075859       0.07614436       0.46595957
Si       2.15697871       1.01081839       4.84381927       0.07614448       0.16075884       0.46595935
Si       3.64298806       4.78914842       1.56910184      -0.07614442      -0.16075899       0.46595936
Si       3.91080178       0.74300472      -0.06825681       0.16075800      -0.07614374       0.46595955
Si       4.78914834       3.64298809       4.98033288      -0.16075853      -0.07614415      -0.46595948
Si       5.05696207       1.88916497       3.34297421       0.07614450      -0.16075870      -0.46595936
12
Lattice="5.632098655190771 9.031158008278877e-08 1.219755916964853e-07 9.03115763622808e-08 5.632097090193261 -1.0402353712449437e-07 1.53689249078811e-07 -1.310696556029271e-07 6.82714827716446" Properties=species:S:1:pos:R:3:forces:R:3 cutoff=-1.0 nneightol=1.2 n_minim_iter=6 energy=-1955.784167211351 stress="-0.0037083469169330277 -1.4735799300036552e-09 -1.0827781231104172e-09 -1.4735799300036552e-09 -0.0037087303727596794 6.64525390978967e-09 -1.0827781231104172e-09 6.64525390978967e-09 0.003067411987004186" free_energy=-1955.784167211351 pbc="T T T"
Si       0.53657730       0.53657712      -0.00000000      -0.38910770      -0.38910207      -0.00000031
Si      -0.53657721      -0.53657720       3.41357414       0.38910668       0.38910404      -0.00000116
Si       2.27947221       3.35262561       5.12036120       0.38910623      -0.38910367       0.00000163
Si       3.35262668       2.27947143       1.70678708      -0.38910656       0.38910352       0.00000081
Si       0.73702916       3.79732493       0.01468824      -0.24909063      -0.04133609      -0.18945019
Si       0.98127675       2.07901966       1.72147533      -0.04133113       0.24909217      -0.18944790
Si       1.83477282       4.89506817       3.39888581       0.04133116       0.24909251       0.18944743
Si       2.07902038       0.98127636       5.10567296       0.24909241      -0.04133378       0.18944980
Si       3.55307853       4.65082068       1.69209879      -0.24909154       0.04133371       0.18944999
Si       3.79732598       0.73702899      -0.01468822      -0.04133158      -0.24909185       0.18944734
Si       4.65082215       3.55307742       5.13504952       0.04133078      -0.24909235      -0.18944739
Si       4.89506968       1.83477216       3.42826250       0.24909188       0.04133387      -0.18945005
12
Lattice="5.6840903886228915 1.5828707373445588e-07 1.635616905571609e-07 1.5828707019671695e-07 5.684108421961795 -4.186222814125228e-07 2.060877342161321e-07 -5.274640730476391e-07 6.684548557372659" Properties=species:S:1:pos:R:3:forces:R:3 cutoff=-1.0 nneightol=1.2 n_minim_iter=7 energy=-1955.846483103155 stress="0.0013128644798598443 -9.785006147600016e-10 -4.739850586866666e-09 -9.785006147600016e-10 0.001317132020887473 1.7755147649531185e-08 -4.739850586866666e-09 1.7755147649531185e-08 -0.004689501556171838" free_energy=-1955.846483103155 pbc="T T T"
Si       0.51734181       0.51734367      -0.00000004      -0.15465760      -0.15468350       0.00001190
Si      -0.51734174      -0.51734386       3.34227426       0.15465685       0.15469009       0.00001098
Si       2.32470359       3.35939748       5.01341130       0.15465646      -0.15468944      -0.00001044
Si       3.35938715       2.32471055       1.67113708      -0.15465648       0.15468848      -0.00001231
Si       0.72687435       3.83232602       0.02203230      -0.10285960      -0.07365592      -0.27519737
Si       0.99026901       2.11517764       1.69316964      -0.07367676       0.10285532      -0.27523216
Si       1.85177655       4.95723175       3.32024132       0.07367662       0.10285561       0.27523045
Si       2.11517123       0.99027160       4.99137885       0.10286139      -0.07364723       0.27519821
Si       3.56891957       4.69383644       1.64910435      -0.10286105       0.07364573       0.27519853
Si       3.83231405       0.72687664      -0.02203260      -0.07367735      -0.10285239       0.27523039
Si       4.69382173       3.56893042       5.03544394       0.07367631      -0.10285499      -0.27523039
Si       4.95721637       1.85178217       3.36430684       0.10286121       0.07364824      -0.27519780
12
Lattice="5.694116563080731 3.8242140685431385e-07 5.208041354158119e-07 3.8242140897825765e-07 5.693981014860982 -1.8082664361916661e-06 6.56213218909202e-07 -2.2784157086776804e-06 6.772995215734237" Properties=species:S:1:pos:R:3:forces:R:3 cutoff=-1.0 nneightol=1.2 n_minim_iter=8 energy=-1955.974685106946 stress="0.0021680969354473615 -8.231515193577501e-10 2.455242398321747e-08 -8.231515193577501e-10 0.0021352154291361326 -1.1579024358614127e-07 2.455242398321747e-08 -1.1579024358614127e-07 -0.00043860332920739293" free_energy=-1955.974685106946 pbc="T T T"
Si       0.49139250       0.49138044       0.00000025       0.00654835       0.00676894      -0.00008532
Si      -0.49139230      -0.49138111       3.38649797      -0.00654259      -0.00681654      -0.00007591
Si       2.35566632       3.33836898       5.07974540      -0.00653907       0.00681776       0.00007071
Si       3.33845124       2.35561007       1.69324801       0.00654150      -0.00681147       0.00008625
Si       0.71736901       3.83440431      -0.04166776      -0.07389274      -0.24553022      -0.08722819
Si       0.98743742       2.12963841       1.65158067      -0.24534813       0.07390957      -0.08696227
Si       1.85962185       4.97662840       3.42816363       0.24535015       0.07391339       0.08697879
Si       2.12969040       0.98741284       5.12141291       0.07387498      -0.24558130       0.08722187
Si       3.56442734       4.70656616       1.73491429      -0.07387940       0.24559061       0.08721901
Si       3.83449531       0.71735208       0.04166754      -0.24534510      -0.07393475       0.08697859
Si       4.70668011       3.56434077       5.03807828       0.24535296      -0.07391231      -0.08697642
Si       4.97674849       1.85957537       3.34483085       0.07387909       0.24558633      -0.08722712
12
Lattice="5.684197642084056 5.02701886364845e-07 5.087703480986677e-08 5.02701890422597e-07 5.684855405917592 5.221371089019738e-07 6.410507137274178e-08 6.578927564403166e-07 6.8212333754094425" Properties=species:S:1:pos:R:3:forces:R:3 cutoff=-1.0 nneightol=1.2 n_minim_iter=9 energy=-1955.999569580139 stress="-0.00016450181633081995 -1.912807199753094e-09 -4.4084791150707115e-09 -1.912807199753094e-09 -1.6891395256935226e-06 1.4833538990434382e-08 -4.4084791150707115e-09 1.4833538990434382e-08 0.000682563979628667" free_energy=-1955.999569580139 pbc="T T T"
Si       0.47920473       0.47926448      -0.00000113       0.03971092       0.03833112       0.00038730
Si      -0.47920475      -0.47926457       3.41061549      -0.03971230      -0.03832650       0.00038705
Si       2.36289439       3.32169339       5.11592651      -0.03970991       0.03832575      -0.00038724
Si       3.32130381       2.36316322       1.70530981       0.03971034      -0.03832773      -0.00039089
Si       0.71033223       3.82123333      -0.07333574      -0.05402843      -0.26655163       0.01636296
Si       0.97869614       2.13201426       1.63197638      -0.26773266       0.05385204       0.01513311
Si       1.86340341       4.97444234       3.48394950       0.26773166       0.05384724      -0.01513779
Si       2.13176708       0.97880603       5.18926112       0.05402815      -0.26654152      -0.01635889
Si       3.55243120       4.70605064       1.77864478      -0.05402910       0.26653858      -0.01635712
Si       3.82079472       0.71041377       0.07333241      -0.26773099      -0.05383975      -0.01513699
Si       4.70550209       3.55284227       5.04259311       0.26773293      -0.05384664       0.01513683
Si       4.97386595       1.86362333       3.33728081       0.05402939       0.26653904       0.01636167
12
Lattice="5.682068473198836 7.224282266135661e-07 3.743650046988705e-08 7.224282324010372e-07 5.673803168412731 1.0179752910202785e-06 4.716999878911525e-08 1.282648865706207e-06 6.845707554167805" Properties=species:S:1:pos:R:3:forces:R:3 cutoff=-1.0 nneightol=1.2 n_minim_iter=10 energy=-1956.01752772284 stress="3.690595858274171e-06 2.5224787244074828e-08 -9.776557939503572e-09 2.5224787244074828e-08 -0.0020380281902590554 6.643655351671734e-08 -9.776557939503572e-09 6.643655351671734e-08 -0.0002942138620648288" free_energy=-1956.01752772284 pbc="T T T"
Si       0.46652217       0.46578348       0.00001523       0.02341734       0.04035887      -0.00497191
Si      -0.46652222      -0.46578355       3.42286894      -0.02341610      -0.04032415      -0.00497808
Si       2.37451262       3.30268712       5.13426598      -0.02341530       0.04032303       0.00497982
Si       3.30755666       2.37111808       1.71141209       0.02341527      -0.04032575       0.00497345
Si       0.69922155       3.79570740      -0.09638070       0.03070097      -0.13502965       0.06123480
Si       0.96015240       2.13869034       1.61499800      -0.12061734      -0.02902139       0.07766985
Si       1.88088281       4.97559235       3.51928410       0.12061357      -0.02902019      -0.07768245
Si       2.14181317       0.95880674       5.23066222      -0.03069893      -0.13499999      -0.06123024
Si       3.54025607       4.71499852       1.80780916       0.03069656       0.13499405      -0.06122983
Si       3.80118644       0.69821221       0.09642957      -0.12061358       0.02903062      -0.07768188
Si       4.72191692       3.53511500       5.03785196       0.12061468       0.02901899       0.07768134
Si       4.98284760       1.87809753       3.32647273      -0.03069714       0.13499557       0.06123513
12
Lattice="5.66256191817192 2.736655029316516e-07 1.5222278890934527e-07 2.736655083301852e-07 5.688947305215497 1.512174714698338e-07 1.91800722049051e-07 1.9053401253482877e-07 6.844508591892086" Properties=species:S:1:pos:R:3:forces:R:3 cutoff=-1.0 nneightol=1.2 n_minim_iter=11 energy=-1956.022717162369 stress="-0.0038222658768896434 9.119519418624245e-10 5.569112234170404e-09 9.119519418624245e-10 0.0026517734231817514 6.384670937159845e-09 5.569112234170404e-09 6.384670937159845e-09 -0.00027670111470969397" free_energy=-1956.022717162369 pbc="T T T"
Si       0.46770088       0.47006232      -0.00005019       0.02166142      -0.03066485       0.01597873
Si      -0.46770083      -0.47006252       3.42220410      -0.02166389       0.03066786       0.01597719
Si       2.36358052       3.31453661       5.13343172      -0.02166465      -0.03066824      -0.01597666
Si       3.29898191       2.37441114       1.71117740       0.02166462       0.03066851      -0.01597638
Si       0.69721674       3.80167284      -0.08790216       0.04077112      -0.03368749       0.05794728
Si       0.95291278       2.14402516       1.62339339      -0.07777272      -0.04556256       0.00491428
Si       1.87836864       4.98849885       3.50998830       0.07777209      -0.04556168      -0.00491467
Si       2.13406440       0.95719952       5.22128386      -0.04077038      -0.03368578      -0.05794884
Si       3.52849793       4.73174822       1.79902975       0.04077099       0.03368629      -0.05794864
Si       3.78419370       0.70044898       0.08773396      -0.07776966       0.04556131      -0.00491496
Si       4.70964966       3.54492281       5.04564787       0.07777254       0.04556107       0.00491472
Si       4.96534549       1.88727482       3.33435216      -0.04077148       0.03368556       0.05794795
12
Lattice="5.674373135338499 -2.996229666038167e-09 1.6925015749710931e-07 -2.9962246516184273e-09 5.675018159097007 -3.610253199053943e-07 2.1325520627099008e-07 -4.548919046890419e-07 6.842845478904243" Properties=species:S:1:pos:R:3:forces:R:3 cutoff=-1.0 nneightol=1.2 n_minim_iter=12 energy=-1956.02585382861 stress="-0.00020144381145486745 6.90491937606255e-09 8.807127116338893e-09 6.90491937606255e-09 -4.262765916570376e-05 -4.249031597821188e-09 8.807127116338893e-09 -4.249031597821188e-09 -0.00010325966337353982" free_energy=-1956.02585382861 pbc="T T T"
Si       0.47153747       0.47159985      -0.00000054      -0.03129246      -0.03262805       0.00038654
Si      -0.47153740      -0.47160012       3.42142224       0.03129049       0.03262988       0.00038497
Si       2.36564939       3.30910872       5.13213445       0.03128854      -0.03262973      -0.00038468
Si       3.30872400       2.36590895       1.71071174      -0.03128872       0.03263166      -0.00038126
Si       0.69977194       3.79040538      -0.08034235       0.04677764      -0.00972622       0.00165795
Si       0.95279727       2.13765853       1.63037223      -0.01087763      -0.04691513       0.00041300
Si       1.88438939       4.97516743       3.50176139       0.01087783      -0.04690968      -0.00041043
Si       2.13741458       0.95289626       5.21247633      -0.04677789      -0.00973192      -0.00166240
Si       3.53695868       4.72212135       1.79105345       0.04677856       0.00973491      -0.00166371
Si       3.78998394       0.69985071       0.08033901      -0.01087446       0.04690256      -0.00041070
Si       4.72157611       3.53735937       5.05179512       0.01087744       0.04690878       0.00041081
Si       4.97460125       1.88461230       3.34108061      -0.04677935       0.00973295       0.00165991
12
Lattice="5.6805486052976555 -7.181290059322015e-07 -5.643212886439145e-07 -7.181290007212349e-07 5.67592181951174 -2.2052900476339817e-07 -7.110448160057374e-07 -2.77866545975984e-07 6.849766443329968" Properties=species:S:1:pos:R:3:forces:R:3 cutoff=-1.0 nneightol=1.2 n_minim_iter=13 energy=-1956.027400835435 stress="0.0013389612311287497 -3.263367902891335e-08 -1.293797403170922e-08 -3.263367902891335e-08 0.00021900221201415747 -9.717493378008871e-09 -1.293797403170922e-08 -9.717493378008871e-09 0.00040691507306208675" free_energy=-1956.027400835435 pbc="T T T"
Si       0.46866819       0.46825629       0.00000934      -0.03684004      -0.02799180      -0.00282135
Si      -0.46866874      -0.46825623       3.42489257       0.03683982       0.02798342      -0.00281931
Si       2.37160496       3.30621666       5.13731518       0.03683622      -0.02798315       0.00282215
Si       3.30894226       2.36970427       1.71243206      -0.03683862       0.02798212       0.00281776
Si       0.70358936       3.78825040      -0.08449682       0.03172787      -0.00694050       0.01034593
Si       0.95103850       2.13494046       1.62791755       0.00049673      -0.03085718       0.01957956
Si       1.88923431       4.97290153       3.50940674      -0.00049420      -0.03086151      -0.01957974
Si       2.13668358       0.95028908       5.22182099      -0.03171225      -0.00694195      -0.01034118
Si       3.54386352       4.72563187       1.79693745       0.03171899       0.00694162      -0.01034222
Si       3.79131355       0.70301915       0.08452351       0.00048369       0.03086468      -0.01958139
Si       4.72950871       3.54098008       5.05280036      -0.00049859       0.03086173       0.01957560
Si       4.97695802       1.88767070       3.34038615      -0.03171962       0.00694252       0.01034419
12
Lattice="5.680188872206369 -7.60891819183056e-07 -1.2144470810623981e-06 -7.608918138503788e-07 5.675058184854206 2.3761762448520826e-07 -1.5302033147942212e-06 2.993982073666813e-07 6.851748003484874" Properties=species:S:1:pos:R:3:forces:R:3 cutoff=-1.0 nneightol=1.2 n_minim_iter=14 energy=-1956.029167937618 stress="0.0012050174320287954 -4.538795170015874e-08 -3.11905509026796e-08 -4.538795170015874e-08 -3.872195419676411e-05 1.7612844930072435e-08 -3.11905509026796e-08 1.7612844930072435e-08 0.000393607260282596" free_energy=-1956.029167937618 pbc="T T T"
Si       0.46401807       0.46355675       0.00000888      -0.01805330      -0.00799673      -0.00309385
Si      -0.46401923      -0.46355628       3.42588279       0.01805126       0.00799765      -0.00309172
Si       2.37607410       3.30108561       5.13880200       0.01805023      -0.00799784       0.00309530
Si       3.30411246       2.37397237       1.71292812      -0.01805338       0.00799247       0.00308195
Si       0.70841354       3.78437031      -0.08479289       0.01538843      -0.00568347       0.00655901
Si       0.94765890       2.12975027       1.62811877       0.00279455      -0.01431910       0.01665372
Si       1.89243343       4.96728011       3.51069213      -0.00279202      -0.01433125      -0.01666173
Si       2.13167921       0.94684076       5.22360300      -0.01536291      -0.00566666      -0.00654471
Si       3.54850748       4.72821737       1.79772869       0.01537243       0.00565972      -0.00654326
Si       3.78775433       0.70777660       0.08481750       0.00277411       0.01434824      -0.01666339
Si       4.73252767       3.54530663       5.05399179      -0.00279760       0.01433276       0.01665524
Si       4.97177370       1.89068797       3.34108036      -0.01537179       0.00566420       0.00655343
12
Lattice="5.676290819462656 8.916710518923042e-08 -9.995676030864154e-07 8.916711047527348e-08 5.675336026405161 -6.448301286005449e-08 -1.2594551723369616e-06 -8.12485934197289e-08 6.8495641927451745" Properties=species:S:1:pos:R:3:forces:R:3 cutoff=-1.0 nneightol=1.2 n_minim_iter=15 energy=-1956.029808335074 stress="0.00021774976558384617 -2.173548949975779e-08 -2.861040289452377e-08 -2.173548949975779e-08 -1.6195854345550827e-05 -5.038305675413641e-09 -2.861040289452377e-08 -5.038305675413641e-09 -1.8672715555979392e-05" free_energy=-1956.029808335074 pbc="T T T"
Si       0.46116294       0.46106744      -0.00000007      -0.00250568      -0.00041825      -0.00053869
Si      -0.46116418      -0.46106694       3.42478188       0.00250751       0.00041030      -0.00053285
Si       2.37698057       3.29873500       5.13717319       0.00251266      -0.00041070       0.00053211
Si       3.29930895       2.37660129       1.71239119      -0.00251307       0.00040595       0.00052317
Si       0.71222083       3.78253165      -0.08254471      -0.00080196      -0.00020755       0.00171813
Si       0.94500410       2.12556723       1.62984874       0.00159320       0.00104418       0.00341024
Si       1.89314055       4.96323612       3.50732398      -0.00159238       0.00103203      -0.00341357
Si       2.12592452       0.94486316       5.21971688       0.00081168      -0.00020114      -0.00170558
Si       3.55036557       4.73047330       1.79493426      -0.00080864       0.00019429      -0.00170361
Si       3.78314991       0.71209902       0.08254149       0.00157877      -0.00101803      -0.00341324
Si       4.73128543       3.54976787       5.05462982      -0.00159288      -0.00102923       0.00341148
Si       4.96406968       1.89280508       3.34223690       0.00081079       0.00019815       0.00171241
