12
Lattice="5.446786471298794 0.00021352357418337464 -3.331584051814207e-05 0.0002134810298903875 5.44677394739405 2.4230216977900206e-05 -4.066120528790968e-05 2.5168324274242146e-05 6.136113811576087" Properties=species:S:1:pos:R:3:forces:R:3 cutoff=-1.0 nneightol=1.2 n_minim_iter=14 energy=-1954.200227949109 stress="-0.11025877617886398 6.286955050343705e-06 -9.650340511798326e-06 6.286955050343705e-06 -0.11024127423947644 -3.1626382594806493e-06 -9.650340511798326e-06 -3.1626382594806493e-06 -0.11024997846385243" free_energy=-1954.200227949109 pbc="T T T"
Si       0.49844353       0.49888940       0.00009883       0.00760917      -0.00521985      -0.00339960
Si      -0.49871047      -0.49867220       3.06810411      -0.00146663      -0.00093315      -0.00087976
Si       2.22486701       3.22215451       4.60204974       0.00026126       0.00059279       0.00060543
Si       3.22209232       2.22486861       1.53398122       0.00042587      -0.00116982       0.00078798
Si       0.68163686       3.68984396       0.07680391      -0.00404906       0.00419785      -0.00122246
Si       0.96659110       2.04188739       1.61069035      -0.00086297       0.00352119       0.00369139
Si       1.75694579       4.76528086       2.99129675       0.00139009       0.00437891      -0.00010152
Si       2.04193196       0.96677053       4.52529647       0.00279491      -0.00419596       0.00184174
Si       3.40503120       4.48025590       1.45728934      -0.00271190       0.00349694      -0.00064725
Si       3.69028761       0.68169911      -0.07677932      -0.00793039      -0.00372121      -0.00092145
Si       4.48036615       3.40515711       4.67883574       0.00134658      -0.00459826       0.00009671
Si       4.76533373       1.75691543       3.14479958       0.00319306       0.00365057       0.00014880
