12
Lattice="5.718283657024145 8.508383137179772e-06 1.7378990264564012e-06 8.506937280058184e-06 5.719197384797062 -1.8065159669647374e-06 2.0461839649960547e-06 -2.1835858063608256e-06 6.915797107666724" Properties=species:S:1:pos:R:3:forces:R:3 cutoff=-1.0 nneightol=1.2 n_minim_iter=7 energy=-1955.994631875281 stress="0.012501938104181508 1.6345876036663438e-07 5.769333327835407e-08 1.6345876036663438e-07 0.012710037691083344 -1.0768914427065936e-07 5.769333327835407e-08 -1.0768914427065936e-07 0.012673303828870079" free_energy=-1955.994631875281 pbc="T T T"
Si       0.45968695       0.45976975       0.00000003      -0.00027845      -0.00200091       0.00049309
Si      -0.45968312      -0.45976967       3.45789827       0.00025352       0.00195565       0.00050170
Si       2.39946054       3.31936879       5.18684878       0.00032574      -0.00196008      -0.00053278
Si       3.31883307       2.39983507       1.72895137      -0.00031904       0.00195924      -0.00052706
Si       0.71916522       3.80908836      -0.09674923       0.00219687      -0.00304801       0.00238306
Si       0.94935116       2.14032735       1.63219993      -0.00453246      -0.00247149       0.00087711
Si       1.90980518       4.99992783       3.55464625       0.00450891      -0.00247836      -0.00085401
Si       2.13998435       0.94948986       5.28359570      -0.00225030      -0.00308617      -0.00237589
Si       3.57830918       4.76971456       1.82569590       0.00224997       0.00308377      -0.00236192
Si       3.80848794       0.71927527       0.09674929      -0.00448482       0.00247961      -0.00084961
Si       4.76894255       3.57887456       5.09009847       0.00454233       0.00249888       0.00087554
Si       4.99912700       1.91011790       3.36115188      -0.00221227       0.00306788       0.00237078
