12
Lattice="5.39120313913966 0.00021134461016299695 -3.2975859239375494e-05 0.00021130250002574202 5.39119074303878 2.398295261281681e-05 -4.0246266077162596e-05 2.491148671774979e-05 6.073496036131375" Properties=species:S:1:pos:R:3:forces:R:3 cutoff=-1.0 nneightol=1.2 n_minim_iter=14 energy=-1954.200227949109 stress="-0.11025877617886398 6.286955050343705e-06 -9.650340511798326e-06 6.286955050343705e-06 -0.11024127423947644 -3.1626382594806493e-06 -9.650340511798326e-06 -3.1626382594806493e-06 -0.11024997846385243" free_energy=-1954.200227949109 pbc="T T T"
Si       0.49335701       0.49379833       0.00009782       0.00760917      -0.00521985      -0.00339960
Si      -0.49362124      -0.49358335       3.03679474      -0.00146663      -0.00093315      -0.00087976
Si       2.20216270       3.18927309       4.55508677       0.00026126       0.00059279       0.00060543
Si       3.18921153       2.20216429       1.51832726       0.00042587      -0.00116982       0.00078798
Si       0.67468090       3.65218986       0.07602014      -0.00404906       0.00419785      -0.00122246
Si       0.95672723       2.02105035       1.59425359      -0.00086297       0.00352119       0.00369139
Si       1.73901652       4.71665215       2.96077118       0.00139009       0.00437891      -0.00010152
Si       2.02109446       0.95690484       4.47911675       0.00279491      -0.00419596       0.00184174
Si       3.37028356       4.43453581       1.44241800      -0.00271190       0.00349694      -0.00064725
Si       3.65262898       0.67474251      -0.07599580      -0.00793039      -0.00372121      -0.00092145
Si       4.43464494       3.37040819       4.63108919       0.00134658      -0.00459826       0.00009671
Si       4.71670449       1.73898647       3.11270755       0.00319306       0.00365057       0.00014880
