12
Lattice="5.8015862839975325 -1.0348890247456959e-06 4.718474586198382e-05 -1.0367664728575498e-06 5.80237071316588 -4.007660437696087e-05 5.7070143654231035e-05 -4.821002930743299e-05 7.0465314535384325" Properties=species:S:1:pos:R:3:forces:R:3 cutoff=-1.0 nneightol=1.2 n_minim_iter=10 energy=-1955.720671917324 stress="0.036615747463055195 2.6820247063599897e-07 4.063327822448668e-07 2.6820247063599897e-07 0.036776486524499004 -2.3332618453611284e-06 4.063327822448668e-07 -2.3332618453611284e-06 0.03667752603021795" free_energy=-1955.720671917324 pbc="T T T"
Si       0.45592612       0.45605437       0.00004416      -0.00030778      -0.00315212      -0.00053980
Si      -0.45588885      -0.45603115       3.52328909       0.00042127       0.00190598       0.00003157
Si       2.44488219       3.35716716       5.28488816       0.00110356      -0.00193163      -0.00065117
Si       3.35674841       2.44517688       1.76165211      -0.00082819       0.00164001      -0.00050469
Si       0.73643590       3.85743704      -0.12467001       0.00313270       0.00228690       0.00161889
Si       0.95610334       2.16458857       1.63699588       0.00104330      -0.00322483       0.00044464
Si       1.94473574       5.06582388       3.64787156      -0.00079254      -0.00390762      -0.00000923
Si       2.16446422       0.95619993       5.40953903      -0.00486706       0.00161979      -0.00129792
Si       3.63719358       4.84614847       1.88623288       0.00429934      -0.00184781      -0.00089760
Si       3.85686403       0.73646254       0.12464861       0.00127219       0.00422045       0.00015784
Si       4.84552013       3.63766269       5.16027522      -0.00054723       0.00412762       0.00034293
Si       5.06519822       1.94494107       3.39866039      -0.00392955      -0.00173674       0.00130453
