12
Lattice="5.8462156246385275 -1.042850022402216e-06 4.754771970966092e-05 -1.044741912990182e-06 5.8470060881145365 -4.0384898064397226e-05 5.750916201177931e-05 -4.858089026079129e-05 7.100737671835122" Properties=species:S:1:pos:R:3:forces:R:3 cutoff=-1.0 nneightol=1.2 n_minim_iter=10 energy=-1955.720671917324 stress="0.036615747463055195 2.6820247063599897e-07 4.063327822448668e-07 2.6820247063599897e-07 0.036776486524499004 -2.3332618453611284e-06 4.063327822448668e-07 -2.3332618453611284e-06 0.03667752603021795" free_energy=-1955.720671917324 pbc="T T T"
Si       0.45943339       0.45956262       0.00004450      -0.00030778      -0.00315212      -0.00053980
Si      -0.45939583      -0.45953922       3.55039238       0.00042127       0.00190598       0.00003157
Si       2.46368972       3.38299254       5.32554275       0.00110356      -0.00193163      -0.00065117
Si       3.38257057       2.46398667       1.77520381      -0.00082819       0.00164001      -0.00050469
Si       0.74210102       3.88711080      -0.12562905       0.00313270       0.00228690       0.00161889
Si       0.96345827       2.18123991       1.64958865       0.00104330      -0.00322483       0.00044464
Si       1.95969583       5.10479329       3.67593321      -0.00079254      -0.00390762      -0.00000923
Si       2.18111460       0.96355560       5.45115250      -0.00486706       0.00161979      -0.00129792
Si       3.66517309       4.88342800       1.90074294       0.00429934      -0.00184781      -0.00089760
Si       3.88653338       0.74212786       0.12560749       0.00127219       0.00422045       0.00015784
Si       4.88279483       3.66564581       5.19997121      -0.00054723       0.00412762       0.00034293
Si       5.10416282       1.95990275       3.42480496      -0.00392955      -0.00173674       0.00130453
