12
Lattice="5.920269747243045 0.0019214489191541236 0.00013570941906497573 0.0019219218100355502 5.920371865678158 -7.168140282497737e-05 0.00016600578342335746 -8.798582812217522e-05 7.239799913883044" Properties=species:S:1:pos:R:3:forces:R:3 cutoff=-1.0 nneightol=1.2 n_minim_iter=9 energy=-1955.195374879371 stress="0.05790125086297933 0.00019607432185717502 2.0523909663305494e-05 0.00019607432185717502 0.05791646518463729 -1.067835219040795e-05 2.0523909663305494e-05 -1.067835219040795e-05 0.057867721569895905" free_energy=-1955.195374879371 pbc="T T T"
Si       0.45560265       0.45562337       0.00001081       0.00003008       0.00003051       0.00002908
Si      -0.45549606      -0.45563481       3.61990922      -0.00080958      -0.00061843      -0.00017494
Si       2.50591336       3.41638952       5.42986142       0.00274570      -0.00266498      -0.00029724
Si       3.41644733       2.50581269       1.80999354      -0.00246865       0.00277665       0.00030276
Si       0.75979244       3.92947095      -0.15772014       0.00160463      -0.00286194       0.00119277
Si       0.96978236       2.20195542       1.65219302      -0.00319971      -0.00386903       0.00214352
Si       1.99288329       5.16243996       3.77757747       0.00304262      -0.00206930      -0.00077128
Si       2.20207040       0.96969015       5.58762952      -0.00390006      -0.00310889      -0.00223387
Si       3.72028785       4.95252619       1.96769093       0.00448683       0.00301099      -0.00188870
Si       3.92936206       0.75978547       0.15777774      -0.00261941       0.00194133      -0.00129140
Si       4.95256782       3.72023289       5.27217833       0.00335857       0.00440739       0.00228911
Si       5.16249188       1.99277883       3.46231789      -0.00227101       0.00302570       0.00070019
