12
Lattice="5.628588641334117 8.841776635684384e-08 -9.911674781861098e-07 8.841777159846427e-08 5.627641872127048 -6.394111318233389e-08 -1.248871015026041e-06 -8.05657998491965e-08 6.7920021083458195" Properties=species:S:1:pos:R:3:forces:R:3 cutoff=-1.0 nneightol=1.2 n_minim_iter=1 energy=-1956.029808335074 stress="0.00021774976558384617 -2.173548949975779e-08 -2.861040289452377e-08 -2.173548949975779e-08 -1.6195854345550827e-05 -5.038305675413641e-09 -2.861040289452377e-08 -5.038305675413641e-09 -1.8672715555979392e-05" free_energy=-1956.029808335074 pbc="T T T"
Si       0.45728744       0.45719274      -0.00000007      -0.00250568      -0.00041825      -0.00053869
Si      -0.45728867      -0.45719225       3.39600084       0.00250751       0.00041030      -0.00053285
Si       2.35700500       3.27101323       5.09400163       0.00251266      -0.00041070       0.00053211
Si       3.27158235       2.35662891       1.69800067      -0.00251307       0.00040595       0.00052317
Si       0.70623550       3.75074417      -0.08185102      -0.00080196      -0.00020755       0.00171813
Si       0.93706252       2.10770448       1.61615188       0.00159320       0.00104418       0.00341024
Si       1.87723105       4.92152628       3.47784928      -0.00159238       0.00103203      -0.00341357
Si       2.10805877       0.93692276       5.17585164       0.00081168      -0.00020114      -0.00170558
Si       3.52052915       4.69071954       1.77985007      -0.00080864       0.00019429      -0.00170361
Si       3.75135723       0.70611471       0.08184783       0.00157877      -0.00101803      -0.00341324
Si       4.69152484       3.51993647       5.01215194      -0.00159288      -0.00102923       0.00341148
Si       4.92235284       1.87689840       3.31414955       0.00081079       0.00019815       0.00171241
