12
Lattice="5.883605393921575 -2.662660236874145e-05 -0.00012184094112681068 -2.6632191307823704e-05 5.885063464116331 0.00014589000368881426 -0.0001484177075485369 0.00017779269082021974 7.16930395526536" Properties=species:S:1:pos:R:3:forces:R:3 cutoff=-1.0 nneightol=1.2 n_minim_iter=9 energy=-1955.487388963728 stress="0.047612971026440944 -3.295231962583863e-07 -3.937506825513731e-06 -3.295231962583863e-07 0.04787394568281319 7.660611577982972e-06 -3.937506825513731e-06 7.660611577982972e-06 0.04775017262691463" free_energy=-1955.487388963728 pbc="T T T"
Si       0.45736667       0.45737029       0.00009078      -0.00035199       0.00188162       0.00015434
Si      -0.45751832      -0.45741431       3.58468515       0.00046509       0.00209383       0.00015695
Si       2.48429909       3.40017348       5.37701110       0.00018112      -0.00206085      -0.00018839
Si       3.39909959       2.48511297       1.79233138       0.00012825       0.00109565      -0.00139216
Si       0.75068576       3.90920365      -0.14118114       0.00392681      -0.00459079       0.00509750
Si       0.96626128       2.19161947       1.65115790      -0.00120815      -0.00161197       0.00090146
Si       1.97532055       5.13424314       3.72594331       0.00137281      -0.00224962      -0.00226588
Si       2.19120338       0.96673607       5.51817703      -0.00366945      -0.00089584      -0.00400619
Si       3.69232643       4.91857247       1.93355769       0.00290764      -0.00074846      -0.00369456
Si       3.90814404       0.75082285       0.14112054      -0.00177548       0.00470751      -0.00173329
Si       4.91711838       3.69353729       5.23573704       0.00143234       0.00229012       0.00222695
Si       5.13291907       1.97600688       3.44335728      -0.00340900       0.00008880       0.00474325
