2
Lattice="4.769200122555398 -7.517279773556178e-18 2.112803955766528e-16 -7.517279773556195e-18 4.769200122555398 -2.6467849865214596e-16 2.384600061277699 2.384600061277699 1.3154348298417196" Properties=species:S:1:pos:R:3 cutoff=-1.0 nneightol=1.2 n_minim_iter=1 energy=-325.7052552189581 free_energy=-325.7052552189581 pbc="T T T"
Si      -0.00000000      -1.19230003      -0.32885871
Si      -0.00000000       1.19230003       0.32885871
