2
Lattice="4.997925555108622 -1.0536902455691092e-16 2.6874337408964876e-15 -1.0536902455689553e-16 4.997925555108622 -4.686983171307382e-15 2.49896277755431 2.4989627775543126 1.504916267733983" Properties=species:S:1:pos:R:3 cutoff=-1.0 nneightol=1.2 n_minim_iter=1 stress="0.050467016630138535 -2.943623829195866e-18 -3.679864141850854e-17 -2.943623829195866e-18 0.05046701663013926 4.1053095438813075e-16 -3.679864141850854e-17 4.1053095438813075e-16 0.04014123498658106" pbc="T T T"
Si      -0.00000000      -1.24948139      -0.37622907
Si      -0.00000000       1.24948139       0.37622907
