2
Lattice="4.485578441709602 4.6135190700051924e-17 -9.582060602373243e-17 4.613519070005176e-17 4.485578441709602 2.5443425995997127e-16 2.242789220854801 2.242789220854801 1.2201378212545368" Properties=species:S:1:pos:R:3 cutoff=-1.0 nneightol=1.2 n_minim_iter=1 stress="-0.19840000206682898 -2.8887262050316553e-16 3.163910386229197e-16 -2.8887262050316553e-16 -0.1984000020668294 9.451454486792581e-16 3.163910386229197e-16 9.451454486792581e-16 -0.19080123924999495" pbc="T T T"
Si      -0.00000000      -1.12139461      -0.30503446
Si      -0.00000000       1.12139461       0.30503446
