2
Lattice="2.8553152520752905 6.560631828930824e-17 2.8553152520752905 2.8553152520752905 2.8553152520752905 1.7817051272814533e-16 -6.214422370953909e-17 2.8553152520752905 2.8553152520752905" Properties=species:S:1:pos:R:3 n_minim_iter=1 energy=-326.17392275185375 free_energy=-326.17392275185375 pbc="T T T"
Si       0.00000000       0.00000000       0.00000000
Si       1.42765763       1.42765763       1.42765763
