2
Lattice="2.6506398780953844 6.090351087721977e-17 2.6506398780953844 2.6506398780953844 2.6506398780953844 1.653988524716045e-16 -5.768958696874623e-17 2.6506398780953844 2.6506398780953844" Properties=species:S:1:pos:R:3 n_minim_iter=1 energy=-326.2598384862349 free_energy=-326.2598384862349 pbc="T T T"
Si       0.00000000       0.00000000       0.00000000
Si       1.32531994       1.32531994       1.32531994
