2
Lattice="2.897004567356397 6.65642098866048e-17 2.897004567356397 2.897004567356397 2.897004567356397 1.807719090795715e-16 -6.305156664942764e-17 2.897004567356397 2.897004567356397" Properties=species:S:1:pos:R:3 n_minim_iter=1 stress="0.06411700022958092 -5.088774221601574e-12 3.817610764777288e-12 -5.088774221601574e-12 0.06411700022958092 3.818685405090102e-12 3.817610764777288e-12 3.818685405090102e-12 0.06411700021942025" pbc="T T T"
Si       0.00000000       0.00000000       0.00000000
Si       1.44850228       1.44850228       1.44850228
