2
Lattice="2.650639878095385 6.090351087721977e-17 2.650639878095385 2.650639878095385 2.650639878095385 1.653988524716045e-16 -5.768958696874623e-17 2.650639878095385 2.650639878095385" Properties=species:S:1:pos:R:3 n_minim_iter=1 stress="-0.03867044348250947 -5.213646365984508e-12 1.042835875943374e-11 -5.213646365984508e-12 -0.03867044348251838 1.0431025468323983e-11 1.042835875943374e-11 1.0431025468323983e-11 -0.03867044348947367" pbc="T T T"
Si       0.00000000       0.00000000       0.00000000
Si       1.32531994       1.32531994       1.32531994
