2
Lattice="2.5217602332981173 5.79422550258958e-17 2.5217602332981173 2.5217602332981173 2.5217602332981173 1.5735681494980694e-16 -5.488459880778357e-17 2.5217602332981173 2.5217602332981173" Properties=species:S:1:pos:R:3 n_minim_iter=1 stress="-0.21719227172050493 1.9735847111679917e-15 -7.774604121768116e-15 1.9735847111679917e-15 -0.21719227172047656 -4.038510554409805e-15 -7.774604121768116e-15 -4.038510554409805e-15 -0.21719227172047656" pbc="T T T"
Si       0.00000000       0.00000000       0.00000000
Si       1.26088012       1.26088012       1.26088012
