2
Lattice="2.876310971181764 6.608873501348996e-17 2.876310971181764 2.876310971181764 2.876310971181764 1.7948063707801448e-16 -6.260118294167537e-17 2.876310971181764 2.876310971181764" Properties=species:S:1:pos:R:3 n_minim_iter=1 stress="0.059824249123712085 -4.703600071463512e-12 4.7095244411900475e-12 -4.703600071463512e-12 0.05982424912370253 4.71149490756838e-12 4.7095244411900475e-12 4.71149490756838e-12 0.059824249123716866" pbc="T T T"
Si       0.00000000       0.00000000       0.00000000
Si       1.43815549       1.43815549       1.43815549
