2
Lattice="2.79039910565642 6.411474591004946e-17 2.79039910565642 2.79039910565642 2.79039910565642 1.7411977154172845e-16 -6.073136272247876e-17 2.79039910565642 2.79039910565642" Properties=species:S:1:pos:R:3 n_minim_iter=1 stress="0.020502725075167674 -5.354502327648095e-14 -2.744026816792796e-15 -5.354502327648095e-14 0.020502725075159635 2.0938071698995632e-17 -2.744026816792796e-15 2.0938071698995632e-17 0.020502725074733504" pbc="T T T"
Si       0.00000000       0.00000000       0.00000000
Si       1.39519955       1.39519955       1.39519955
