2
Lattice="4.959444125967739 -4.1519098663326956e-17 2.4758132937509386e-15 -4.15190986633229e-17 4.959444125967738 -4.629607657168334e-15 2.4797220629838685 2.4797220629838708 1.4345118246382884" Properties=species:S:1:pos:R:3 cutoff=-1.0 nneightol=1.2 n_minim_iter=1 energy=-325.58087293024244 free_energy=-325.58087293024244 pbc="T T T"
Si      -0.00000000      -1.23986103      -0.35862796
Si      -0.00000000       1.23986103       0.35862796
