2
Lattice="4.555968811555776 2.8730841073289355e-17 1.1668662129519034e-16 2.8730841073289386e-17 4.555968811555776 -3.0845725058454474e-16 2.277984405777888 2.277984405777888 1.256405233011112" Properties=species:S:1:pos:R:3 cutoff=-1.0 nneightol=1.2 n_minim_iter=1 energy=-325.39507150860334 free_energy=-325.39507150860334 pbc="T T T"
Si      -0.00000000      -1.13899220      -0.31410131
Si      -0.00000000       1.13899220       0.31410131
2
Lattice="4.582525129346209 4.338952679041911e-17 -2.8816298812856184e-16 4.3389526790419246e-17 4.582525129346209 3.6251222551811057e-16 2.2912625646731044 2.2912625646731044 1.2418853702510146" Properties=species:S:1:pos:R:3 cutoff=-1.0 nneightol=1.2 n_minim_iter=2 stress="-0.15630810201108303 -6.51645435928036e-17 -3.075694973196589e-17 -6.51645435928036e-17 -0.15630810201108317 -1.120928850981566e-16 -3.075694973196589e-17 -1.120928850981566e-16 -0.15677417746269295" pbc="T T T"
Si      -0.00000000      -1.14563128      -0.31047134
Si      -0.00000000       1.14563128       0.31047134
