2
Lattice="4.888446503372601 3.082751120408017e-17 1.2520197776903781e-16 3.082751120407995e-17 4.888446503372601 -3.309673157189661e-16 2.4442232516863003 2.4442232516863003 1.3480930230588821" Properties=species:S:1:pos:R:3 cutoff=-1.0 nneightol=1.2 n_minim_iter=1 energy=-325.69318105455443 free_energy=-325.69318105455443 pbc="T T T"
Si      -0.00000000      -1.22211162      -0.33702326
Si      -0.00000000       1.22211163       0.33702326
