2
Lattice="4.728052630427389 2.981603569506662e-17 1.2109399988671448e-16 2.9816035695066406e-17 4.728052630427389 -3.2010801112192883e-16 2.3640263152136947 2.3640263152136947 1.3038610035595066" Properties=species:S:1:pos:R:3 cutoff=-1.0 nneightol=1.2 n_minim_iter=1 stress="-0.020104567790445612 1.695367013274997e-17 -9.914864503091216e-17 1.695367013274997e-17 -0.02010456779044573 -9.947096904529868e-18 -9.914864503091216e-17 -9.947096904529868e-18 -0.018491109469584835" pbc="T T T"
Si      -0.00000000      -1.18201316      -0.32596525
Si      -0.00000000       1.18201316       0.32596525
