2
Lattice="4.728052630427389 2.981603569506661e-17 1.2109399988671443e-16 2.981603569506644e-17 4.728052630427389 -3.201080111219288e-16 2.3640263152136947 2.3640263152136947 1.3038610035595066" Properties=species:S:1:pos:R:3 cutoff=-1.0 nneightol=1.2 n_minim_iter=1 stress="-0.041553314663830145 -7.032046130555801e-17 -1.4385009069740298e-16 -7.032046130555801e-17 -0.04155331466382954 -3.844304430766759e-17 -1.4385009069740298e-16 -3.844304430766759e-17 -0.03787728652247355" pbc="T T T"
Si      -0.00000000      -1.18201316      -0.32596525
Si      -0.00000000       1.18201316       0.32596525
