2
Lattice="4.926939793000146 3.107025750731909e-17 1.261878607052385e-16 3.107025750731894e-17 4.926939793000146 -3.335734648774835e-16 2.463469896500073 2.463469896500073 1.3587083658156613" Properties=species:S:1:pos:R:3 cutoff=-1.0 nneightol=1.2 n_minim_iter=1 stress="0.03937957020870353 1.8112933028049964e-17 2.2972688171775128e-17 1.8112933028049964e-17 0.03937957020870353 1.6373890565011945e-16 2.2972688171775128e-17 1.6373890565011945e-16 0.03125745223904504" pbc="T T T"
Si      -0.00000000      -1.23173495      -0.33967709
Si      -0.00000000       1.23173495       0.33967709
