2
Lattice="4.983209617733129 3.049799730037651e-17 2.10540832708757e-15 3.0497997300393643e-17 4.983209617733129 -4.962070421495378e-15 2.491604808866564 2.4916048088665654 1.5135266495918773" Properties=species:S:1:pos:R:3 cutoff=-1.0 nneightol=1.2 n_minim_iter=1 stress="0.06019007651993859 8.734558613601324e-18 1.0064917761086908e-17 8.734558613601324e-18 0.06019007651993849 -7.937576906225257e-17 1.0064917761086908e-17 -7.937576906225257e-17 0.05389970018229704" pbc="T T T"
Si      -0.00000000      -1.24580240      -0.37838166
Si      -0.00000000       1.24580241       0.37838166
