63
Lattice="10.9095825548632 0.0 0.0 0.0 10.9095825548632 0.0 0.0 0.0 10.9095825548632" Properties=species:S:1:pos:R:3:forces:R:3 cutoff=-1.0 nneightol=1.2 vacancies=0 relax_radial_0=0.13 relax_symm_break_0=0.01 bulk_struct_test=bulk_Si_diamond supercell_a1_in_bulk_lattice_coords="2 2 -2" n_minim_iter=0 energy=-10276.60789212655 stress="0.004443935581356063 1.1506800415093338e-06 -8.060768633674366e-05 1.1506800415093338e-06 0.004450105358265132 -0.00016178761673861026 -8.060768633674366e-05 -0.00016178761673861026 0.004452153110368615" free_energy=-10276.60789212655 pbc="T T T"
Si       2.68480560       2.68491967       0.02347943      -0.00049280      -0.00038410      -0.00522664
Si       2.68581834       0.02259425       2.68606842      -0.00088047      -0.00436151      -0.00063484
Si       0.02175903       2.68686580       2.68700169      -0.00353106      -0.00113830      -0.00100075
Si       1.23322965       1.23544731       1.23784760       0.00211810       0.00129877       0.00037466
Si       4.08093196       4.08091443       1.36049325      -0.00030771      -0.00013256      -0.00478420
Si       4.08074985       1.36128633       4.08070016      -0.00020330      -0.00467757       0.00013463
Si       1.36206346       4.08051150       4.08047918      -0.00461508       0.00002587       0.00018840
Si       0.00045327       0.00022617       5.45479462       0.00063257       0.00031862       0.00001644
Si       2.72390668       2.72354960       5.45916439       0.00143412       0.00133591       0.00116039
Si       2.68203657      -0.02357769       8.22729651       0.00006586       0.00535006      -0.00028496
Si      -0.02369454       2.67928327       8.23016394       0.00545348       0.00072249      -0.00083304
Si       1.36051239       1.36048823       6.83575195       0.00190065       0.00230842      -0.00336743
Si       4.09027611       4.08959266       6.82066622       0.00013630       0.00035553      -0.00054795
Si       4.07435723       1.36003263       9.54956846       0.00372672       0.00207850      -0.00241230
Si       1.36027139       4.07407486       9.54935396       0.00181350       0.00351655      -0.00255540
Si       0.00045339       5.45508456       0.00000132       0.00063197       0.00052056      -0.00001532
Si       2.68311640       8.22605668      -0.02265640      -0.00034198      -0.00003111       0.00449793
Si       2.72450051       5.45866974       2.72376539       0.00099342       0.00131638       0.00083826
Si      -0.02283082       8.23173408       2.67768923       0.00471292      -0.00110052       0.00097270
Si       1.36100968       6.83507341       1.36094687       0.00139153      -0.00276685       0.00220493
Si       4.07523232       9.54936172       1.36024158       0.00327299      -0.00213374       0.00183901
Si       4.09071424       6.82095770       4.08931456       0.00003673      -0.00075637       0.00054748
Si       1.36074681       9.54891962       4.07471217       0.00132664      -0.00243603       0.00287440
Si       0.00047827       5.45657656       5.45479367       0.00134386      -0.00104671       0.00001208
Si       2.72420263       8.18652133       5.45146518       0.00113212      -0.00087109      -0.00107528
Si       2.72361997       5.45099203       8.18670218       0.00157734      -0.00091205      -0.00135899
Si       0.02096917       8.22414699       8.22430664      -0.00286857       0.00072581       0.00088173
Si       1.36208450       6.83092169       6.83086948      -0.00493391      -0.00084439      -0.00067702
Si       4.07933980       9.54990662       6.83030477       0.00005398       0.00512463      -0.00042748
Si       4.07919133       6.83050493       9.54908629       0.00018776      -0.00072925       0.00501829
Si       1.22575049       9.67670214       9.67927299       0.00389424      -0.00119761      -0.00220063
Si       5.45537860       0.00022641       0.00000131       0.00104526       0.00031744      -0.00001528
Si       8.22760503       2.68149653      -0.02182928      -0.00031889      -0.00010797       0.00380918
Si       8.23041583      -0.02188655       2.67882174      -0.00084219       0.00392019       0.00055261
Si       5.45815785       2.72474371       2.72436587       0.00145556       0.00045348       0.00039646
Si       6.83436744       1.36149324       1.36145441      -0.00224060       0.00130495       0.00171008
Si       9.54895080       4.07581454       1.36068392      -0.00199710       0.00262217       0.00141108
Si       9.54872345       1.36095044       4.07557678      -0.00215646       0.00116376       0.00243353
Si       6.82125627       4.09045554       4.08973939      -0.00097175       0.00020104       0.00049313
Si       5.45836490       0.00023981       5.45479369      -0.00208461       0.00066852       0.00001162
Si       8.18667065       2.72412374       5.45252706      -0.00050447       0.00071930      -0.00103031
Si       8.22662946       0.02097698       8.22697477       0.00007047      -0.00300919       0.00038878
Si       5.45160656       2.72297431       8.18699067      -0.00070429       0.00162190      -0.00150306
Si       6.83254998       1.36130891       6.83242101      -0.00144795      -0.00531971      -0.00108972
Si       9.55076285       4.07767129       6.83195585       0.00551235       0.00055269      -0.00075172
Si       9.68152525       1.22041449       9.68682674      -0.00191326       0.00484765      -0.00397242
Si       6.83235351       4.07740205       9.54908437      -0.00138647       0.00082869       0.00534245
Si       5.45836522       5.45657719       0.00002075      -0.00208310      -0.00104368      -0.00005956
Si       8.22937470       8.22956033       0.02099757      -0.00043545      -0.00027301      -0.00313153
Si       8.18698220       5.45313833       2.72343419      -0.00065059      -0.00087422       0.00080349
Si       5.45269108       8.18712139       2.72286724      -0.00071071      -0.00116033       0.00126180
Si       6.83415057       6.83407373       1.36049735      -0.00183730      -0.00164611      -0.00576136
Si       9.68907640       9.69180713       1.21526358      -0.00372163      -0.00477958       0.00573650
Si       9.55078023       6.83378854       4.07585832       0.00584954      -0.00141176       0.00120645
Si       6.83398668       9.54992243       4.07573684      -0.00174563       0.00578534       0.00134900
Si       5.45533906       5.45506490       5.45478734      -0.00089961      -0.00044668      -0.00000028
Si       8.18641128       8.18598372       5.45598507      -0.00019799      -0.00024952       0.00102918
Si       8.18608850       5.45657464       8.18525969      -0.00005808       0.00117672      -0.00015436
Si       5.45712452       8.18533887       8.18493765       0.00136030       0.00001616      -0.00002678
Si       6.82084568       6.82012235       6.81939296      -0.00095692      -0.00068620      -0.00037603
Si       9.54849967       9.54846813       6.83316366      -0.00157534      -0.00128492      -0.00203612
Si       9.54825067       6.83336015       9.54817746      -0.00171147      -0.00188888      -0.00105488
Si       6.83351878       9.54793929       9.54789773      -0.00180352      -0.00149657      -0.00113101
