4
Lattice="2.0172400804869013 -3.4939623104676447 -3.904212757919157e-18 2.017240080486902 3.4939623104676447 3.9042127579187544e-18 6.6435859279236865e-31 -7.442363455944379e-18 6.660327965766862" Properties=species:S:1:pos:R:3 cutoff=-1.0 nneightol=1.2 n_minim_iter=1 energy=-652.2544530140029 free_energy=-652.2544530140029 pbc="T T T"
Si       2.01724008       1.16465410       0.41655599
Si       2.01724008      -1.16465410       3.74671997
Si       2.01724008       1.16465410       2.91360799
Si       2.01724008      -1.16465410      -0.41655599
4
Lattice="2.0158214374896826 -3.4915051487186584 4.1449796058736945e-18 2.0158214374896835 3.4915051487186584 -4.144979605874037e-18 6.831416320117777e-31 -2.2791294539276023e-17 6.669705733269655" Properties=species:S:1:pos:R:3 cutoff=-1.0 nneightol=1.2 n_minim_iter=2 stress="0.05776853660056086 2.9235102788225476e-17 7.743664015959694e-17 2.9235102788225476e-17 0.057768536600559875 -1.4105139919581078e-17 7.743664015959694e-17 -1.4105139919581078e-17 0.0580118738370427" pbc="T T T"
Si       2.01582144       1.16383505       0.41732703
Si       2.01582144      -1.16383505       3.75217989
Si       2.01582144       1.16383505       2.91752584
Si       2.01582144      -1.16383505      -0.41732703
4
Lattice="2.0160115965917234 -3.4918345139449163 1.1069641135697457e-17 2.0160115965917242 3.4918345139449163 -1.1069641135697134e-17 7.599939646279576e-31 -3.599985033519079e-17 6.668447560509947" Properties=species:S:1:pos:R:3 cutoff=-1.0 nneightol=1.2 n_minim_iter=3 stress="0.05792492262813739 -1.1189148906763147e-16 4.425214821814234e-17 -1.1189148906763147e-16 0.05792492262813757 -1.263411194891773e-16 4.425214821814234e-17 -1.263411194891773e-16 0.05760883947071961" pbc="T T T"
Si       2.01601160       1.16394484       0.41823836
Si       2.01601160      -1.16394484       3.75246214
Si       2.01601160       1.16394484       2.91598542
Si       2.01601160      -1.16394484      -0.41823836
