4
Lattice="1.8606997794888889 -3.2228265557069617 2.5012217176099675e-18 1.8606997794888889 3.2228265557069617 -2.5012217176099563e-18 -1.8389292736971604e-32 4.754645109121186e-18 6.126364733183362" Properties=species:S:1:pos:R:3 cutoff=-1.0 nneightol=1.2 n_minim_iter=1 energy=-652.4177447568273 free_energy=-652.4177447568273 pbc="T T T"
Si       1.86069978       1.07427552       0.38534853
Si       1.86069978      -1.07427552       3.44853089
Si       1.86069978       1.07427552       2.67783384
Si       1.86069978      -1.07427552      -0.38534853
4
Lattice="1.859325573909057 -3.2204463618226478 1.161672461030449e-18 1.859325573909057 3.2204463618226478 -1.161672461030444e-18 -1.8919074851197868e-32 7.303697249459349e-18 6.1354239274070235" Properties=species:S:1:pos:R:3 cutoff=-1.0 nneightol=1.2 n_minim_iter=2 stress="-0.06407247674120574 -2.072030610984699e-16 -1.3030889847238968e-16 -2.072030610984699e-16 -0.06407247674120449 3.177214459780852e-16 -1.3030889847238968e-16 3.177214459780852e-16 -0.06265650022022248" pbc="T T T"
Si       1.85932557       1.07348212       0.38721905
Si       1.85932557      -1.07348212       3.45493101
Si       1.85932557       1.07348212       2.68049291
Si       1.85932557      -1.07348212      -0.38721905
4
Lattice="1.8594612480341386 -3.2206813563005614 4.87639755247076e-19 1.8594612480341386 3.2206813563005614 -4.876397552470845e-19 -1.9097175552565603e-32 8.585339314513519e-18 6.1345286273238795" Properties=species:S:1:pos:R:3 cutoff=-1.0 nneightol=1.2 n_minim_iter=3 stress="-0.06336725951281921 -9.880358588814569e-17 -4.305756604489108e-17 -9.880358588814569e-17 -0.06336725951281709 -5.612751291223896e-16 -4.305756604489108e-17 -5.612751291223896e-16 -0.06385618739528853" pbc="T T T"
Si       1.85946125       1.07356045       0.38832955
Si       1.85946125      -1.07356045       3.45559386
Si       1.85946125       1.07356045       2.67893477
Si       1.85946125      -1.07356045      -0.38832955
4
Lattice="1.8594287825614353 -3.2206251244523467 1.3251085212435e-18 1.8594287825614353 3.2206251244523467 -1.3251085212435083e-18 -1.8916908766028654e-32 6.993253053269342e-18 6.134742845918569" Properties=species:S:1:pos:R:3 cutoff=-1.0 nneightol=1.2 n_minim_iter=4 stress="-0.06354858477876527 -2.052570475956165e-16 -2.6049975015644515e-17 -2.052570475956165e-16 -0.0635485847787654 -2.7815548947290443e-16 -2.6049975015644515e-17 -2.7815548947290443e-16 -0.0635471678830802" pbc="T T T"
Si       1.85942878       1.07354171       0.38803841
Si       1.85942878      -1.07354171       3.45540983
Si       1.85942878       1.07354171       2.67933301
Si       1.85942878      -1.07354171      -0.38803841
