4
Lattice="1.7608096058004434 -3.049811699701694 6.164865119655341e-18 1.7608096058004434 3.049811699701694 -6.1648651196553916e-18 4.204831001098967e-32 -3.412766686127712e-18 5.891011313864794" Properties=species:S:1:pos:R:3 cutoff=-1.0 nneightol=1.2 n_minim_iter=3 stress="-0.14258513465273676 -5.282639889981113e-16 -4.850699313542087e-16 -5.282639889981113e-16 -0.1425851346527362 -1.6214045468205087e-16 -4.850699313542087e-16 -1.6214045468205087e-16 -0.14257358186581384" pbc="T T T"
Si       1.76080961       1.01660390       0.38036915
Si       1.76080961      -1.01660390       3.32587481
Si       1.76080961       1.01660390       2.56513651
Si       1.76080961      -1.01660390      -0.38036915
