4
Lattice="1.8947787743837528 -3.281853106335747 2.6072341180795713e-18 1.8947787743837532 3.281853106335747 -2.6072341180795494e-18 4.6907811387512377e-32 3.8105211143672525e-18 6.236192822168479" Properties=species:S:1:pos:R:3 cutoff=-1.0 nneightol=1.2 n_minim_iter=2 stress="-0.027087955065968745 -8.973107998595323e-20 3.5710209679194674e-16 -8.973107998595323e-20 -0.027087955065969282 4.644590569369989e-16 3.5710209679194674e-16 4.644590569369989e-16 -0.027325931423403962" pbc="T T T"
Si       1.89477877       1.09395104       0.39100196
Si       1.89477877      -1.09395104       3.50909837
Si       1.89477877       1.09395104       2.72709445
Si       1.89477877      -1.09395104      -0.39100196
