4
Lattice="2.0172400804869017 -3.493962310467644 -3.904212757919157e-18 2.0172400804869013 3.493962310467644 3.904212757918754e-18 6.65679011111928e-31 -7.44236345594438e-18 6.660327965766863" Properties=species:S:1:pos:R:3 cutoff=-1.0 nneightol=1.2 n_minim_iter=1 stress="0.05174279403208703 -4.9558295995792806e-17 2.166394659508815e-17 -4.9558295995792806e-17 0.05174279403208756 -6.663652349516404e-17 2.166394659508815e-17 -6.663652349516404e-17 0.050745389475822765" pbc="T T T"
Si       2.01724008       1.16465410       0.41655599
Si       2.01724008      -1.16465410       3.74671997
Si       2.01724008       1.16465410       2.91360799
Si       2.01724008      -1.16465410      -0.41655599
