4
Lattice="1.8780099411994386 -3.252808635276868 2.5841600396754853e-18 1.878009941199439 3.252808635276868 -2.5841600396754634e-18 4.649267624095455e-32 3.776797919989105e-18 6.181002380648903" Properties=species:S:1:pos:R:3 cutoff=-1.0 nneightol=1.2 n_minim_iter=2 stress="-0.027087955065968745 -8.973107998595323e-20 3.5710209679194674e-16 -8.973107998595323e-20 -0.027087955065969282 4.644590569369989e-16 3.5710209679194674e-16 4.644590569369989e-16 -0.027325931423403962" pbc="T T T"
Si       1.87800994       1.08426955       0.38754158
Si       1.87800994      -1.08426955       3.47804277
Si       1.87800994       1.08426955       2.70295961
Si       1.87800994      -1.08426955      -0.38754158
