4
Lattice="2.056271149078081 -3.5615661043412743 1.4017670145063353e-17 2.056271149078081 3.5615661043412743 -1.4017670145063214e-17 -1.2893569635137963e-30 1.1319728761281464e-17 6.827917678229595" Properties=species:S:1:pos:R:3 cutoff=-1.0 nneightol=1.2 n_minim_iter=2 stress="0.06620969149912434 6.081198220375805e-17 -2.988944680621361e-17 6.081198220375805e-17 0.06620969149912498 -3.325982751111338e-17 -2.988944680621361e-17 -3.325982751111338e-17 0.06654804119263137" pbc="T T T"
Si       2.05627115       1.18718870       0.43244272
Si       2.05627115      -1.18718870       3.84640156
Si       2.05627115       1.18718870       2.98151612
Si       2.05627115      -1.18718870      -0.43244272
