4
Lattice="1.9266145908643284 -3.3369943579805414 6.685688992719179e-19 1.9266145908643286 3.3369943579805414 -6.685688992719638e-19 7.543660716551428e-32 1.2720786378081795e-18 6.349262195558463" Properties=species:S:1:pos:R:3 cutoff=-1.0 nneightol=1.2 n_minim_iter=1 stress="0.00013586827091469186 1.214991830246281e-16 -7.448302290506052e-17 1.214991830246281e-16 0.00013586827091406853 -5.129160194888462e-17 -7.448302290506052e-17 -5.129160194888462e-17 -6.372045005847271e-05" pbc="T T T"
Si       1.92661459       1.11233145       0.39770646
Si       1.92661459      -1.11233145       3.57233756
Si       1.92661459       1.11233145       2.77692463
Si       1.92661459      -1.11233145      -0.39770646
