4
Lattice="1.8022834319985943 -3.121646473861172 2.2244508388128548e-18 1.802283431998594 3.121646473861172 -2.2244508388128848e-18 8.673027483560993e-33 5.305034194673285e-18 5.9857795709554615" Properties=species:S:1:pos:R:3 cutoff=-1.0 nneightol=1.2 n_minim_iter=3 stress="-0.11135563837543362 4.3216523261210554e-17 -3.282881183573463e-16 4.3216523261210554e-17 -0.1113556383754354 3.258739074167448e-17 -3.282881183573463e-16 3.258739074167448e-17 -0.11136469304458668" pbc="T T T"
Si       1.80228343       1.04054882       0.38374903
Si       1.80228343      -1.04054882       3.37663882
Si       1.80228343       1.04054882       2.60914075
Si       1.80228343      -1.04054882      -0.38374903
