4
Lattice="1.9875704753229217 -3.442573046883125 -3.8467895230131425e-18 1.9875704753229213 3.442573046883125 3.846789523012745e-18 6.567394023084867e-31 -7.332901033815926e-18 6.562367736382954" Properties=species:S:1:pos:R:3 cutoff=-1.0 nneightol=1.2 n_minim_iter=1 stress="0.043672094442755806 -2.0804136714966852e-16 -1.6415371755226397e-16 -2.0804136714966852e-16 0.04367209444275555 1.5604867760680218e-16 -1.6415371755226397e-16 1.5604867760680218e-16 0.04325257845285215" pbc="T T T"
Si       1.98757048       1.14752435       0.41042928
Si       1.98757048      -1.14752435       3.69161314
Si       1.98757048       1.14752435       2.87075459
Si       1.98757048      -1.14752435      -0.41042928
