1
Lattice="2.639187748280854 6.156389893523477e-17 -2.5913992492083474e-51 1.319593874140427 2.28560363536787 2.0214814839049727e-50 2.8360595686703577e-50 3.8944073030491223e-50 2.452936902477106" Properties=species:S:1:pos:R:3:forces:R:3 cutoff=-1.0 nneightol=1.2 n_minim_iter=1 energy=-162.8336547287604 stress="-0.015455657708124118 -4.689565789719342e-18 -5.6274789476631994e-18 -4.689565789719342e-18 -0.015455657708123774 -1.1254957895326399e-17 -5.6274789476631994e-18 -1.1254957895326399e-17 -0.021082358886254662" free_energy=-162.8336547287604 pbc="T T T"
Si       0.00000000       0.00000000       0.00000000      -0.00000000      -0.00000000       0.00000000
