1
Lattice="2.8085448921206284 6.551446520097446e-17 -2.757689796624062e-51 1.4042724460603142 2.43227122424549 2.1512003076840473e-50 5.581126122102339e-50 -2.0422417162035305e-49 2.61034229665314" Properties=species:S:1:pos:R:3:forces:R:3 cutoff=-1.0 nneightol=1.2 n_minim_iter=1 energy=-162.7039868538776 stress="0.08291526963934849 -8.950086198677105e-18 -2.269317283549749e-35 -8.950086198677105e-18 0.08291526963934856 9.728354563779465e-19 -2.269317283549749e-35 9.728354563779465e-19 0.09286724861387498" free_energy=-162.7039868538776 pbc="T T T"
Si       0.00000000       0.00000000       0.00000000       0.00000000      -0.00000000       0.00000000
