1
Lattice="2.395368306041272 5.2446325556293275e-17 2.5985923200302888e-51 1.197684153020636 2.074449804451839 6.797293443925504e-50 4.2614270760256427e-50 -2.032545561057845e-49 2.2905459030598303" Properties=species:S:1:pos:R:3:forces:R:3 cutoff=-1.0 nneightol=1.2 n_minim_iter=1 energy=-162.3360901514289 stress="-0.3196007185514095 1.3107336382265546e-16 -9.144653289952702e-18 1.3107336382265546e-16 -0.3196007185514092 -1.5263950449812725e-16 -9.144653289952702e-18 -1.5263950449812725e-16 -0.34414248449827217" free_energy=-162.3360901514289 pbc="T T T"
Si       0.00000000       0.00000000       0.00000000      -0.00000000      -0.00000000      -0.00000000
1
Lattice="2.388437206739215 5.042753280836217e-17 -5.92010909244004e-50 1.1942186033696074 2.0684472963801044 3.5798460574048004e-50 5.475506844867215e-50 -2.2513742252365026e-49 2.3038592417227006" Properties=species:S:1:pos:R:3:forces:R:3 cutoff=-1.0 nneightol=1.2 n_minim_iter=2 energy=-162.3368928549836 stress="-0.3230231502837275 -4.8161840660417597e-17 3.109182118583922e-17 -4.8161840660417597e-17 -0.32302315028372774 -8.458804293206256e-17 3.109182118583922e-17 -8.458804293206256e-17 -0.3229962582542341" free_energy=-162.3368928549836 pbc="T T T"
Si       0.00000000       0.00000000       0.00000000      -0.00000000       0.00000000      -0.00000000
