1
Lattice="2.8964905598894504 1.7405774411843072e-17 -1.1242465981182033e-50 1.4482452799447252 2.508434406686076 4.0124943742747254e-50 6.024060507663301e-50 -2.8707087252585616e-49 2.5586694747250056" Properties=species:S:1:pos:R:3:forces:R:3 cutoff=-1.0 nneightol=1.2 n_minim_iter=2 energy=-162.6424983447213 stress="0.08475675520880194 3.7325115469193985e-19 1.7954850345099016e-35 3.7325115469193985e-19 0.08475675520880233 -9.33127886729868e-19 1.7954850345099016e-35 -9.33127886729868e-19 0.09050456389058552" free_energy=-162.6424983447213 pbc="T T T"
Si       0.00000000       0.00000000       0.00000000       0.00000000      -0.00000000       0.00000000
