1
Lattice="2.768128554912156 6.457167994408796e-17 -2.718005289159213e-51 1.384064277456078 2.3972696494950347 2.1202434811500481e-50 4.490334106821984e-50 -1.044324777299176e-49 2.572778191914401" Properties=species:S:1:pos:R:3:forces:R:3 cutoff=-1.0 nneightol=1.2 n_minim_iter=1 energy=-162.7637444135762 stress="0.06827661953328709 8.9414387723982e-18 -4.064290351090088e-19 8.9414387723982e-18 0.06827661953328686 -5.8932210090806296e-18 -4.064290351090088e-19 -5.8932210090806296e-18 0.07329903204744385" free_energy=-162.7637444135762 pbc="T T T"
Si       0.00000000       0.00000000       0.00000000      -0.00000000       0.00000000      -0.00000000
