1
Lattice="2.808544892120629 6.551446520097447e-17 -2.757689796624061e-51 1.4042724460603146 2.4322712242454894 2.151200307684046e-50 5.068510900079572e-50 -1.5509071308154777e-49 2.61034229665314" Properties=species:S:1:pos:R:3:forces:R:3 cutoff=-1.0 nneightol=1.2 n_minim_iter=1 energy=-162.7354348034943 stress="0.07664106851946775 -4.7760933758937803e-17 3.180748970418335e-18 -4.7760933758937803e-17 0.0766410685194675 -8.548262857999277e-18 3.180748970418335e-18 -8.548262857999277e-18 0.08387967469449203" free_energy=-162.7354348034943 pbc="T T T"
Si       0.00000000       0.00000000       0.00000000       0.00000000      -0.00000000      -0.00000000
