4
Lattice="1.8939978556994026 -3.280500515497872 1.281146621184848e-17 1.8939978556994026 3.280500515497872 -1.281146621184848e-17 -2.918165747917356e-33 2.4207164871060166e-17 6.198479980754447" Properties=species:S:1:pos:R:3:forces:R:3 cutoff=-1.0 nneightol=1.2 n_minim_iter=1 energy=-652.5951130428766 stress="-0.028373652074485084 -2.4977125716656095e-16 1.6004456372727402e-17 -2.4977125716656095e-16 -0.028373652074484952 -3.3568147322804526e-17 1.6004456372727402e-17 -3.3568147322804526e-17 -0.02922167170441222" free_energy=-652.5951130428766 pbc="T T T"
Si       1.89399786       1.09350017       0.38523312      -0.00000000      -0.00000000       0.00153041
Si       1.89399786      -1.09350017       3.48447311       0.00000000       0.00000000       0.00153041
Si       1.89399786       1.09350017       2.71400687      -0.00000000      -0.00000000      -0.00153041
Si       1.89399786      -1.09350017      -0.38523312       0.00000000       0.00000000      -0.00153041
