4
Lattice="2.003063119981878 -3.469407094576046 1.3325653648592441e-17 2.003063119981878 3.469407094576046 -1.332565364859245e-17 1.5144010732009025e-32 2.520676283423362e-17 6.562719106662608" Properties=species:S:1:pos:R:3:forces:R:3 cutoff=-1.0 nneightol=1.2 n_minim_iter=1 energy=-652.4020162971451 stress="0.045352515521749556 -5.903684260300532e-17 7.421700277422831e-18 -5.903684260300532e-17 0.04535251552174942 -3.2834458839944663e-17 7.421700277422831e-18 -3.2834458839944663e-17 0.0444182893114467" free_energy=-652.4020162971451 pbc="T T T"
Si       2.00306312       1.15646903       0.41182791      -0.00000000       0.00000000       0.02699900
Si       2.00306312      -1.15646903       3.69318747       0.00000000       0.00000000       0.02699900
Si       2.00306312       1.15646903       2.86953164      -0.00000000      -0.00000000      -0.02699900
Si       2.00306312      -1.15646903      -0.41182791       0.00000000      -0.00000000      -0.02699900
4
Lattice="2.0022504710207474 -3.4679995452866494 1.416450857999045e-17 2.0022504710207474 3.4679995452866494 -1.416450857999047e-17 1.3168294087636245e-32 2.3630226506940348e-17 6.568047380248543" Properties=species:S:1:pos:R:3:forces:R:3 cutoff=-1.0 nneightol=1.2 n_minim_iter=2 energy=-652.402093119482 stress="0.04500827235856151 -6.811943377269844e-18 -4.186684497345548e-17 -6.811943377269844e-18 0.04500827235856144 -1.740429696580897e-17 -4.186684497345548e-17 -1.740429696580897e-17 0.045015451935563354" free_energy=-652.402093119482 pbc="T T T"
Si       2.00225047       1.15599985       0.41254829       0.00000000       0.00000000       0.02808774
Si       2.00225047      -1.15599985       3.69657198       0.00000000       0.00000000       0.02808774
Si       2.00225047       1.15599985       2.87147540      -0.00000000      -0.00000000      -0.02808774
Si       2.00225047      -1.15599985      -0.41254829      -0.00000000      -0.00000000      -0.02808774
4
Lattice="2.0017034715048228 -3.4670521143333537 1.4183603614137893e-17 2.0017034715048228 3.4670521143333537 -1.418360361413795e-17 1.3570415880345635e-32 2.3602260301575306e-17 6.571637532011234" Properties=species:S:1:pos:R:3:forces:R:3 cutoff=-1.0 nneightol=1.2 n_minim_iter=3 energy=-652.4021643785346 stress="0.04485205296411284 -6.811943377269845e-17 -1.4693719169011608e-17 -6.811943377269845e-17 0.044852052964112446 -2.5863948898679697e-17 -1.4693719169011608e-17 -2.5863948898679697e-17 0.045167744438899995" free_energy=-652.4021643785346 pbc="T T T"
Si       2.00170347       1.15568404       0.41369423       0.00000000       0.00000000       0.01499072
Si       2.00170347      -1.15568404       3.69951300       0.00000000       0.00000000       0.01499072
Si       2.00170347       1.15568404       2.87212453      -0.00000000      -0.00000000      -0.01499072
Si       2.00170347      -1.15568404      -0.41369423      -0.00000000      -0.00000000      -0.01499072
4
Lattice="2.0016011249687424 -3.4668748449328852 1.4022846955122553e-17 2.0016011249687424 3.4668748449328852 -1.4022846955122605e-17 1.3640396949491552e-32 2.390786515011071e-17 6.572309595515579" Properties=species:S:1:pos:R:3:forces:R:3 cutoff=-1.0 nneightol=1.2 n_minim_iter=4 energy=-652.4021854290634 stress="0.0448830078561816 -3.8601012471195783e-17 2.7586410864137212e-17 -3.8601012471195783e-17 0.04488300785618172 -2.91286278696322e-17 2.7586410864137212e-17 -2.91286278696322e-17 0.044997252979287375" free_energy=-652.4021854290634 pbc="T T T"
Si       2.00160112       1.15562495       0.41443566      -0.00000000       0.00000000       0.00149198
Si       2.00160112      -1.15562495       3.70059046       0.00000000      -0.00000000       0.00149198
Si       2.00160112       1.15562495       2.87171914      -0.00000000       0.00000000      -0.00149198
Si       2.00160112      -1.15562495      -0.41443566       0.00000000      -0.00000000      -0.00149198
