4
Lattice="1.9427766553577281 -3.3649878748383153 1.3141963428068643e-17 1.9427766553577273 3.3649878748383153 -1.3141963428068641e-17 -3.0401123871572967e-33 2.4822148530052823e-17 6.356216427020091" Properties=species:S:1:pos:R:3:forces:R:3 cutoff=-1.0 nneightol=1.2 n_minim_iter=2 energy=-652.6374395575543 stress="0.01097923567109834 -1.2715627637570376e-16 1.008144259969687e-16 -1.2715627637570376e-16 0.010979235671097737 -1.0222751865013894e-16 1.008144259969687e-16 -1.0222751865013894e-16 0.01069985760820579" free_energy=-652.6374395575543 pbc="T T T"
Si       1.94277666       1.12166262       0.39523017      -0.00000000       0.00000000       0.00548785
Si       1.94277666      -1.12166262       3.57333838      -0.00000000      -0.00000000       0.00548785
Si       1.94277666       1.12166262       2.78287804       0.00000000       0.00000000      -0.00548785
Si       1.94277666      -1.12166262      -0.39523017       0.00000000      -0.00000000      -0.00548785
