4
Lattice="1.7433468659822606 -3.0195653470972452 -1.5457875934368894e-16 1.7433468659822609 3.0195653470972452 1.5457875934368887e-16 -1.084985434471854e-31 -1.0192330688422655e-16 5.968355111870668" Properties=species:S:1:pos:R:3:forces:R:3 cutoff=-1.0 nneightol=1.2 n_minim_iter=4 energy=-650.7599291189013 stress="-0.27370320739947895 4.722947408240426e-16 -2.4371477370287453e-16 4.722947408240426e-16 -0.2737032073994764 -7.054511944604427e-17 -2.4371477370287453e-16 -7.054511944604427e-17 -0.27372638589756126" free_energy=-650.7599291189013 pbc="T T T"
Si       1.74334687       1.00652178       0.41599258       0.00000000      -0.00000000      -0.00028085
Si       1.74334687      -1.00652178       3.40017014      -0.00000000       0.00000000      -0.00028085
Si       1.74334687       1.00652178       2.56818497       0.00000000      -0.00000000       0.00028085
Si       1.74334687      -1.00652178      -0.41599258      -0.00000000       0.00000000       0.00028085
