4
Lattice="2.0440694167642772 -3.5404320840334127 1.0164730654644217e-18 2.044069416764277 3.5404320840334127 -1.01647306546436e-18 -3.406796498497311e-32 3.4750042460888133e-19 6.743322340003274" Properties=species:S:1:pos:R:3:forces:R:3 cutoff=-1.0 nneightol=1.2 n_minim_iter=4 energy=-652.0431091258869 stress="0.0653995933370135 5.903684260300532e-17 -4.0596998008596006e-17 5.903684260300532e-17 0.06539959333701385 1.6746221885396268e-18 -4.0596998008596006e-17 1.6746221885396268e-18 0.06556381848135778" free_energy=-652.0431091258869 pbc="T T T"
Si       2.04406942       1.18014403       0.43102711       0.00000000       0.00000000       0.00219707
Si       2.04406942      -1.18014403       3.80268828       0.00000000      -0.00000000       0.00219707
Si       2.04406942       1.18014403       2.94063406      -0.00000000       0.00000000      -0.00219707
Si       2.04406942      -1.18014403      -0.43102711      -0.00000000      -0.00000000      -0.00219707
