4
Lattice="1.8661698095595178 -3.2323009257082207 -2.4733514152321252e-17 1.8661698095595178 3.2323009257082207 2.4733514152321178e-17 1.1546888678366924e-31 -4.681185510826571e-17 6.1176103674037" Properties=species:S:1:pos:R:3 cutoff=-1.0 nneightol=1.2 n_minim_iter=1 energy=-652.404771611398 free_energy=-652.404771611398 pbc="T T T"
Si       1.86616981       1.07743364       0.38986797
Si       1.86616981      -1.07743364       3.44867315
Si       1.86616981       1.07743364       2.66893721
Si       1.86616981      -1.07743364      -0.38986797
4
Lattice="1.860048200148522 -3.2216979871842857 -6.238452437691361e-18 1.860048200148522 3.2216979871842857 6.2384524376913766e-18 1.2311399773406598e-31 -8.197158591631968e-17 6.15794399581955" Properties=species:S:1:pos:R:3 cutoff=-1.0 nneightol=1.2 n_minim_iter=2 stress="-0.07278987423013764 -2.8725272940142225e-17 -1.0224563067539969e-17 -2.8725272940142225e-17 -0.07278987423013733 -9.938600516359506e-17 -1.0224563067539969e-17 -9.938600516359506e-17 -0.06940820757273282" pbc="T T T"
Si       1.86004820       1.07389933       0.39416736
Si       1.86004820      -1.07389933       3.47313935
Si       1.86004820       1.07389933       2.68480464
Si       1.86004820      -1.07389933      -0.39416736
4
Lattice="1.856249484777459 -3.2151184191581117 7.982438116172922e-17 1.856249484777459 3.2151184191581117 -7.982438116172914e-17 1.2949281836333181e-31 -2.4437957985460457e-16 6.183173591544676" Properties=species:S:1:pos:R:3 cutoff=-1.0 nneightol=1.2 n_minim_iter=3 stress="-0.0675609430503588 -5.908352309173664e-17 -7.042020908126375e-17 -5.908352309173664e-17 -0.06756094305035823 -7.828755665157591e-17 -7.042020908126375e-17 -7.828755665157591e-17 -0.0672876907601242" pbc="T T T"
Si       1.85624948       1.07170614       0.40477726
Si       1.85624948      -1.07170614       3.49636406
Si       1.85624948       1.07170614       2.68680954
Si       1.85624948      -1.07170614      -0.40477726
