4
Lattice="1.8094019243663073 -3.1339760643153425 1.1888696321233898e-16 1.8094019243663069 3.1339760643153425 -1.1888696321233903e-16 -1.072163890325857e-31 7.366034647144066e-17 6.145970228682118" Properties=species:S:1:pos:R:3 cutoff=-1.0 nneightol=1.2 n_minim_iter=4 stress="-0.097596092908253 -7.856448563772092e-17 -4.536929504258191e-17 -7.856448563772092e-17 -0.09759609290825348 -5.221346052076924e-18 -4.536929504258191e-17 -5.221346052076924e-18 -0.0973906724670948" pbc="T T T"
Si       1.80940192       1.04465869       0.41569488
Si       1.80940192      -1.04465869       3.48867999
Si       1.80940192       1.04465869       2.65729024
Si       1.80940192      -1.04465869      -0.41569488
