4
Lattice="1.927060325371911 -3.3377663927943617 -1.5893613753857262e-17 1.9270603253719112 3.3377663927943617 1.589361375385724e-17 -8.648931352514332e-34 2.9969285569460145e-17 6.374571575404938" Properties=species:S:1:pos:R:3 cutoff=-1.0 nneightol=1.2 n_minim_iter=4 stress="0.0002815137932243573 3.3617650393849206e-17 8.207856145252773e-18 3.3617650393849206e-17 0.0002815137932236425 -1.2791254485068808e-17 8.207856145252773e-18 -1.2791254485068808e-17 1.411667941685953e-05" pbc="T T T"
Si       1.92706033       1.11258880       0.40747591
Si       1.92706033      -1.11258880       3.59476170
Si       1.92706033       1.11258880       2.77980988
Si       1.92706033      -1.11258880      -0.40747591
