4
Lattice="1.910865775474971 -3.309716609567152 -1.576004765964075e-17 1.910865775474971 3.309716609567152 1.5760047659640724e-17 4.043067790050419e-32 -3.009903630615245e-17 6.321001214326809" Properties=species:S:1:pos:R:3 cutoff=-1.0 nneightol=1.2 n_minim_iter=1 stress="0.00028151379322490975 3.610503587341264e-17 -6.31243369521502e-17 3.610503587341264e-17 0.0002815137932244711 -5.433688606878772e-17 -6.31243369521502e-17 -5.433688606878772e-17 1.411667941636131e-05" pbc="T T T"
Si       1.91086578       1.10323887       0.40405158
Si       1.91086578      -1.10323887       3.56455219
Si       1.91086578       1.10323887       2.75644902
Si       1.91086578      -1.10323887      -0.40405158
