4
Lattice="1.8832915898973652 -3.261956719169406 -2.496043980192172e-17 1.8832915898973646 3.261956719169406 2.496043980192164e-17 -8.318417221978337e-32 -4.15162549274284e-18 6.173738368385533" Properties=species:S:1:pos:R:3 cutoff=-1.0 nneightol=1.2 n_minim_iter=3 stress="-0.04381036051185107 1.0714871090652472e-16 5.433788297888154e-17 1.0714871090652472e-16 -0.043810360511851484 1.9438294228142995e-17 5.433788297888154e-17 1.9438294228142995e-17 -0.04403685352253331" pbc="T T T"
Si       1.88329159       1.08731891       0.39344494
Si       1.88329159      -1.08731891       3.48031412
Si       1.88329159       1.08731891       2.69342424
Si       1.88329159      -1.08731891      -0.39344494
