4
Lattice="1.9874723645906827 -3.4424031141101183 -1.8158538554696908e-17 1.9874723645906829 3.4424031141101183 1.8158538554696908e-17 -6.124372064971683e-33 -3.477372991787624e-17 6.592226340129025" Properties=species:S:1:pos:R:3 cutoff=-1.0 nneightol=1.2 n_minim_iter=1 stress="0.028265704901719764 1.151898466405553e-16 -3.6846889349354036e-17 1.151898466405553e-16 0.02826570490171956 -1.6645399454074573e-16 -3.6846889349354036e-17 -1.6645399454074573e-16 0.029048230689498095" pbc="T T T"
Si       1.98747236       1.14746770       0.42084107
Si       1.98747236      -1.14746770       3.71695424
Si       1.98747236       1.14746770       2.87527210
Si       1.98747236      -1.14746770      -0.42084107
