2
Lattice="2.8094181529663356 8.858879416043858e-17 8.37556719916383e-17 8.858879416043858e-17 2.8094181529663356 8.674943250339262e-17 8.37556719916383e-17 8.674943250339262e-17 2.8094181529663356" Properties=species:S:1:pos:R:3:forces:R:3 n_minim_iter=1 energy=-324.15922963930404 stress="-0.38318108990480276 -5.252651783124537e-16 -5.498298379527874e-16 -5.252651783124537e-16 -0.3831810899048027 -5.853456712454773e-16 -5.498298379527874e-16 -5.853456712454773e-16 -0.38318108990480293" free_energy=-324.15922963930404 pbc="T T T"
Si      -0.00000000      -0.00000000      -0.00000000      -0.00000001      -0.00000001      -0.00000001
Si       1.40470907       1.40470907       1.40470907       0.00000001       0.00000001       0.00000001
