2
Lattice="3.215980972988439 1.014088544060795e-16 9.587631062345356e-17 1.014088544060795e-16 3.215980972988439 9.93033109200525e-17 9.587631062345356e-17 9.93033109200525e-17 3.215980972988439" Properties=species:S:1:pos:R:3:forces:R:3 n_minim_iter=1 energy=-325.08045846804737 stress="0.06063950060831288 -5.8360355461220825e-18 -3.4045498236478726e-17 -5.8360355461220825e-18 0.06063950060831289 -3.5047667257546145e-17 -3.4045498236478726e-17 -3.5047667257546145e-17 0.06063950060831292" free_energy=-325.08045846804737 pbc="T T T"
Si      -0.00000000      -0.00000000      -0.00000000       0.00000000       0.00000000       0.00000000
Si       1.60799048       1.60799048       1.60799048      -0.00000000      -0.00000000      -0.00000000
