2
Lattice="3.039745084923377 9.585164506186232e-17 9.062228490344913e-17 9.585164506186232e-17 3.039745084923377 9.386148544447018e-17 9.062228490344913e-17 9.386148544447018e-17 3.039745084923377" Properties=species:S:1:pos:R:3:forces:R:3 n_minim_iter=1 energy=-325.2011691255593 stress="-0.012806666425776329 5.4966881016304977e-17 3.986841603266019e-17 5.4966881016304977e-17 -0.012806666425776334 4.489278807371123e-17 3.986841603266019e-17 4.489278807371123e-17 -0.012806666425776356" free_energy=-325.2011691255593 pbc="T T T"
Si      -0.00000000      -0.00000000      -0.00000000      -0.00000001      -0.00000001      -0.00000001
Si       1.51987254       1.51987254       1.51987254       0.00000001       0.00000001       0.00000001
