2
Lattice="2.8705115068743696 9.051523809268666e-17 8.557701528487061e-17 9.051523809268666e-17 2.8705115068743696 8.863587784285019e-17 8.557701528487061e-17 8.863587784285019e-17 2.8705115068743696" Properties=species:S:1:pos:R:3:forces:R:3 n_minim_iter=1 energy=-324.8366390188023 stress="-0.20785254654855684 1.5660851271186676e-16 1.4652368595245945e-16 1.5660851271186676e-16 -0.20785254654855678 1.4764398787878607e-16 1.4652368595245945e-16 1.4764398787878607e-16 -0.20785254654855675" free_energy=-324.8366390188023 pbc="T T T"
Si      -0.00000000      -0.00000000      -0.00000000      -0.00000002      -0.00000002      -0.00000002
Si       1.43525575       1.43525575       1.43525575       0.00000002       0.00000002       0.00000002
