2
Lattice="3.142865021406182 9.91033044196077e-17 9.369654409364236e-17 9.91033044196077e-17 3.142865021406182 9.704563087338186e-17 9.369654409364236e-17 9.704563087338186e-17 3.142865021406182" Properties=species:S:1:pos:R:3:forces:R:3 n_minim_iter=1 energy=-325.19729189397844 stress="0.016863664123537302 3.9839302979563496e-17 3.7979414906829515e-17 3.9839302979563496e-17 0.01686366412353733 3.091094346538805e-17 3.7979414906829515e-17 3.091094346538805e-17 0.01686366412353734" free_energy=-325.19729189397844 pbc="T T T"
Si      -0.00000000      -0.00000000      -0.00000000      -0.00000000      -0.00000000      -0.00000000
Si       1.57143251       1.57143251       1.57143251       0.00000000       0.00000000       0.00000000
