2
Lattice="3.191980220519361 1.0065204370563825e-16 9.516078910194914e-17 1.0065204370563825e-16 3.191980220519361 9.856221381631641e-17 9.516078910194914e-17 9.856221381631641e-17 3.191980220519361" Properties=species:S:1:pos:R:3:forces:R:3 n_minim_iter=1 energy=-325.1546928652357 stress="0.0399040829958311 -8.112956491981976e-17 -2.3347028941061706e-17 -8.112956491981976e-17 0.039904082995831085 -5.130524380517035e-17 -2.3347028941061706e-17 -5.130524380517035e-17 0.039904082995831064" free_energy=-325.1546928652357 pbc="T T T"
Si      -0.00000000      -0.00000000      -0.00000000      -0.00000000      -0.00000000      -0.00000000
Si       1.59599011       1.59599011       1.59599011       0.00000000       0.00000000       0.00000000
