2
Lattice="2.840293352137281 8.95623753488172e-17 8.46761376943703e-17 8.95623753488172e-17 2.840293352137281 8.770279930771852e-17 8.46761376943703e-17 8.770279930771852e-17 2.840293352137281" Properties=species:S:1:pos:R:3:forces:R:3 n_minim_iter=1 energy=-324.65795764442777 stress="-0.27676332215107236 -4.81355169264477e-16 1.313852054403359e-18 -4.81355169264477e-16 -0.27676332215107236 -2.3165738578075796e-18 1.313852054403359e-18 -2.3165738578075796e-18 -0.2767633221510723" free_energy=-324.65795764442777 pbc="T T T"
Si      -0.00000000      -0.00000000      -0.00000000      -0.00000002      -0.00000002      -0.00000002
Si       1.42014667       1.42014667       1.42014667       0.00000002       0.00000002       0.00000002
