4
Lattice="4.101565929702347 0.0 0.0 0.0 4.101565929702347 0.0 0.0 0.0 4.101565929702347" Properties=species:S:1:pos:R:3:forces:R:3 n_minim_iter=1 energy=-649.96184689301 stress="0.06808221971418164 -8.045094362610274e-19 -2.4336410497939265e-17 -8.045094362610274e-19 0.06808221971418163 -1.6894698196696693e-17 -2.4336410497939265e-17 -1.6894698196696693e-17 0.06808221971418162" free_energy=-649.96184689301 pbc="T T T"
Si       0.00000000       0.00000000       0.00000000       0.00000000       0.00000000       0.00000000
Si       2.05078296       2.05078296       0.00000000      -0.00000000      -0.00000000       0.00000000
Si       2.05078296       0.00000000       2.05078296      -0.00000000       0.00000000      -0.00000000
Si       0.00000000       2.05078296       2.05078296       0.00000000      -0.00000000      -0.00000000
