4
Lattice="3.634241185664279 0.0 0.0 0.0 3.634241185664279 0.0 0.0 0.0 3.634241185664279" Properties=species:S:1:pos:R:3:forces:R:3 n_minim_iter=1 energy=-649.9269794658603 stress="-0.08193219554170988 -1.9102836543866072e-17 1.6437454460518618e-17 -1.9102836543866072e-17 -0.08193219554170987 -8.287086407391259e-18 1.6437454460518618e-17 -8.287086407391259e-18 -0.08193219554170975" free_energy=-649.9269794658603 pbc="T T T"
Si       0.00000000       0.00000000       0.00000000      -0.00000000      -0.00000000      -0.00000000
Si       1.81712059       1.81712059       0.00000000       0.00000000       0.00000000      -0.00000000
Si       1.81712059       0.00000000       1.81712059       0.00000000      -0.00000000       0.00000000
Si       0.00000000       1.81712059       1.81712059      -0.00000000       0.00000000       0.00000000
