4
Lattice="4.2171633265087465 0.0 0.0 0.0 4.2171633265087465 0.0 0.0 0.0 4.2171633265087465" Properties=species:S:1:pos:R:3:forces:R:3 n_minim_iter=1 energy=-649.470168509016 stress="0.09988543817840533 8.511709849944991e-18 1.1102230240392363e-17 8.511709849944991e-18 0.09988543817840534 6.661338143959691e-18 1.1102230240392363e-17 6.661338143959691e-18 0.09988543817840527" free_energy=-649.470168509016 pbc="T T T"
Si       0.00000000       0.00000000       0.00000000       0.00000000       0.00000000       0.00000000
Si       2.10858166       2.10858166       0.00000000      -0.00000000      -0.00000000       0.00000000
Si       2.10858166       0.00000000       2.10858166      -0.00000000       0.00000000      -0.00000000
Si       0.00000000       2.10858166       2.10858166       0.00000000      -0.00000000      -0.00000000
