4
Lattice="3.7084297692661896 0.0 0.0 0.0 3.7084297692661896 0.0 0.0 0.0 3.7084297692661896" Properties=species:S:1:pos:R:3:forces:R:3 n_minim_iter=1 energy=-650.0393773891599 stress="-0.06981285186787888 -1.3763723213162662e-17 5.4677922403819635e-18 -1.3763723213162662e-17 -0.06981285186787889 6.2949366536461745e-18 5.4677922403819635e-18 6.2949366536461745e-18 -0.0698128518678789" free_energy=-650.0393773891599 pbc="T T T"
Si       0.00000000       0.00000000       0.00000000      -0.00000000      -0.00000000      -0.00000000
Si       1.85421488       1.85421488       0.00000000       0.00000000       0.00000000      -0.00000000
Si       1.85421488       0.00000000       1.85421488       0.00000000      -0.00000000       0.00000000
Si       0.00000000       1.85421488       1.85421488      -0.00000000       0.00000000       0.00000000
