8
Lattice="-3.008661658293405 3.309847371216881 3.197233470569122 2.736657671811499 -3.457454956858104 3.061621362184414 3.1563784850669383 3.569437286939102 -3.3245573479920423" Properties=species:S:1:pos:R:3:forces:R:3 cutoff=-1.0 nneightol=1.2 n_minim_iter=21 energy=-1302.565471147704 stress="-0.08322377637831505 4.819812419450669e-05 -6.509915078423341e-05 4.819812419450669e-05 -0.0832451747974582 9.498928721731534e-05 -6.509915078423341e-05 9.498928721731534e-05 -0.08300727560280569" free_energy=-1302.565471147704 pbc="T T T"
Si       2.60006920       0.75711607      -0.74355487      -0.00275063       0.00120173      -0.00592111
Si       3.54050351      -0.95953443       0.48108724      -0.00055702      -0.00341905       0.00240023
Si       1.02601395       1.48269451       0.75881780       0.00210831       0.00031231       0.00529775
Si       0.69835387      -0.47599220       1.86056297       0.00622971      -0.00034204       0.00481350
Si      -1.02141066       2.60284464       0.81181483      -0.00280699       0.00674929       0.00008685
Si       0.74805135       3.53970379      -0.57186201       0.00047746      -0.00447602      -0.00846256
Si      -1.44269170       1.16922839       3.76816117      -0.00327307       0.00191319       0.00507281
Si       2.50423269       2.14942776       2.43786470       0.00057222      -0.00193942      -0.00328748
