4
Lattice="2.0006124822477185 -3.465162465509537 -1.593991721484386e-35 2.0006124822477185 3.465162465509537 1.593991721484633e-35 -4.076292382231131e-48 -3.0360094311175725e-35 6.599950165264275" Properties=species:S:1:pos:R:3:forces:R:3 cutoff=-1.0 nneightol=1.2 n_minim_iter=1 energy=-652.407671899583 stress="0.03946202095186121 8.075745560674874e-18 -3.791429840692429e-19 8.075745560674874e-18 0.03946202095186082 -1.0359201840499983e-17 -3.791429840692429e-19 -1.0359201840499983e-17 0.04211896287180146" free_energy=-652.407671899583 pbc="T T T"
Si       2.00061248       1.15505416       0.41508498      -0.00000000       0.00000000       0.02488234
Si       2.00061248      -1.15505416       3.71506007      -0.00000000       0.00000000       0.02488234
Si       2.00061248       1.15505416       2.88489010      -0.00000000       0.00000000      -0.02488234
Si       2.00061248      -1.15505416      -0.41508498       0.00000000      -0.00000000      -0.02488234
4
Lattice="2.002190788497128 -3.46789617212342 -9.897167357198863e-35 2.002190788497128 3.46789617212342 9.897167357199091e-35 -3.9770133384641276e-48 1.2749989074605406e-34 6.58954892183998" Properties=species:S:1:pos:R:3:forces:R:3 cutoff=-1.0 nneightol=1.2 n_minim_iter=2 energy=-652.407876733748 stress="0.04018562324904312 5.895673402276727e-18 -4.5497158088309146e-18 5.895673402276727e-18 0.04018562324904413 2.1809465408692075e-16 -4.5497158088309146e-18 2.1809465408692075e-16 0.04014789488462286" free_energy=-652.407876733748 pbc="T T T"
Si       2.00219079       1.15596539       0.41467256       0.00000000      -0.00000000       0.00686809
Si       2.00219079      -1.15596539       3.70944703       0.00000000      -0.00000000       0.00686809
Si       2.00219079       1.15596539       2.88010190      -0.00000000       0.00000000      -0.00686809
Si       2.00219079      -1.15596539      -0.41467256      -0.00000000       0.00000000      -0.00686809
