4
Lattice="1.87288680626502 -3.243935105276423 2.3223459459431842e-18 1.8728868062650201 3.243935105276423 -2.322345945943204e-18 3.383185748404424e-32 4.432895681646723e-18 6.192025759487691" Properties=species:S:1:pos:R:3:forces:R:3 cutoff=-1.0 nneightol=1.2 n_minim_iter=1 energy=-652.51486125739 stress="-0.05441101030833079 -3.8022213259653437e-17 5.82790902381088e-17 -3.8022213259653437e-17 -0.05441101030833197 -1.6595956842282033e-16 5.82790902381088e-17 -1.6595956842282033e-16 -0.05638288943027291" free_energy=-652.51486125739 pbc="T T T"
Si       1.87288681       1.08131170       0.38808873       0.00000000       0.00000000       0.02364494
Si       1.87288681      -1.08131170       3.48410161      -0.00000000      -0.00000000       0.02364494
Si       1.87288681       1.08131170       2.70792415       0.00000000       0.00000000      -0.02364494
Si       1.87288681      -1.08131170      -0.38808873      -0.00000000      -0.00000000      -0.02364494
4
Lattice="1.8715640934588014 -3.2416440994922318 1.6046180868092142e-18 1.8715640934588016 3.2416440994922318 -1.6046180868091643e-18 3.3043068158720345e-32 5.806032496899611e-18 6.200781180690047" Properties=species:S:1:pos:R:3:forces:R:3 cutoff=-1.0 nneightol=1.2 n_minim_iter=2 energy=-652.5149520553354 stress="-0.05531368602044297 5.840039613140511e-16 -2.0706540253785852e-17 5.840039613140511e-16 -0.05531368602044161 1.0051015025630357e-16 -2.0706540253785852e-17 1.0051015025630357e-16 -0.05421421066887866" free_energy=-652.5149520553354 pbc="T T T"
Si       1.87156409       1.08054803       0.38897574       0.00000000      -0.00000000       0.04206480
Si       1.87156409      -1.08054803       3.48936633      -0.00000000       0.00000000       0.04206480
Si       1.87156409       1.08054803       2.71141485       0.00000000      -0.00000000      -0.04206480
Si       1.87156409      -1.08054803      -0.38897574      -0.00000000       0.00000000      -0.04206480
4
Lattice="1.871689042466743 -3.241860517522342 -5.063157640738276e-19 1.8716890424667432 3.241860517522342 5.063157640738463e-19 3.631149183350042e-32 9.835346943289081e-18 6.199953312835689" Properties=species:S:1:pos:R:3:forces:R:3 cutoff=-1.0 nneightol=1.2 n_minim_iter=3 energy=-652.5150700242555 stress="-0.05466924226072247 4.266360065443399e-16 -2.9964139374141204e-16 4.266360065443399e-16 -0.054669242260722645 -4.184323145846243e-16 -2.9964139374141204e-16 -4.184323145846243e-16 -0.055305480721898975" free_energy=-652.5150700242555 pbc="T T T"
Si       1.87168904       1.08062017       0.39026172       0.00000000       0.00000000       0.00109201
Si       1.87168904      -1.08062017       3.49023838      -0.00000000       0.00000000       0.00109201
Si       1.87168904       1.08062017       2.70971493       0.00000000      -0.00000000      -0.00109201
Si       1.87168904      -1.08062017      -0.39026172      -0.00000000      -0.00000000      -0.00109201
