4
Lattice="1.8916198460013636 -3.2763816818799767 -1.4403136476976347e-34 1.8916198460013636 3.2763816818799767 1.4403136476976418e-34 -1.16739083661208e-48 -2.7405173162807424e-34 6.2340454444003415" Properties=species:S:1:pos:R:3:forces:R:3 cutoff=-1.0 nneightol=1.2 n_minim_iter=1 energy=-652.656932941608 stress="-0.01592506179071743 -2.867086536742847e-17 -3.7259089104512505e-17 -2.867086536742847e-17 -0.01592506179072012 -1.8715474635852377e-16 -3.7259089104512505e-17 -1.8715474635852377e-16 -0.017321830947663652" free_energy=-652.656932941608 pbc="T T T"
Si       1.89161985       1.09212723       0.38871245       0.00000000       0.00000000       0.00268395
Si       1.89161985      -1.09212723       3.50573517       0.00000000       0.00000000       0.00268395
Si       1.89161985       1.09212723       2.72831027      -0.00000000      -0.00000000      -0.00268395
Si       1.89161985      -1.09212723      -0.38871245      -0.00000000      -0.00000000      -0.00268395
