4
Lattice="1.7922739993152126 -3.1043096278986146 9.08676159964303e-19 1.7922739993152117 3.1043096278986146 -9.086761599643005e-19 -3.243751739623909e-33 2.4904738136375152e-18 6.030581924948948" Properties=species:S:1:pos:R:3:forces:R:3 cutoff=-1.0 nneightol=1.2 n_minim_iter=4 energy=-651.6493402529824 stress="-0.16807011823669404 -4.722527457592477e-16 -4.045085896723512e-17 -4.722527457592477e-16 -0.16807011823669496 -1.0136967001765638e-16 -4.045085896723512e-17 -1.0136967001765638e-16 -0.16805453154676847" free_energy=-651.6493402529824 pbc="T T T"
Si       1.79227400       1.03476988       0.39290338      -0.00000000      -0.00000000      -0.00040630
Si       1.79227400      -1.03476988       3.40819435       0.00000000       0.00000000      -0.00040630
Si       1.79227400       1.03476988       2.62238758      -0.00000000      -0.00000000       0.00040630
Si       1.79227400      -1.03476988      -0.39290338       0.00000000       0.00000000       0.00040630
