4
Lattice="2.0599033059071896 -3.5678571845103466 3.7188527952091387e-34 2.05990330590719 3.5678571845103466 -3.7188527952091327e-34 2.30188179263026e-48 -1.1072138961650318e-33 6.778857453644606" Properties=species:S:1:pos:R:3:forces:R:3 cutoff=-1.0 nneightol=1.2 n_minim_iter=3 energy=-652.0690952943 stress="0.041192310353480525 1.7459679496612124e-16 -8.452373820870185e-17 1.7459679496612124e-16 0.041192310353480664 -6.719074439262688e-17 -8.452373820870185e-17 -6.719074439262688e-17 0.041512976231031125" free_energy=-652.0690952943 pbc="T T T"
Si       2.05990331       1.18928573       0.43641013       0.00000000      -0.00000000       0.00677676
Si       2.05990331      -1.18928573       3.82583886       0.00000000       0.00000000       0.00677676
Si       2.05990331       1.18928573       2.95301859      -0.00000000      -0.00000000      -0.00677676
Si       2.05990331      -1.18928573      -0.43641013      -0.00000000      -0.00000000      -0.00677676
