4
Lattice="2.0169133083177693 -3.4933963244682102 -9.969943260185578e-35 2.0169133083177693 3.4933963244682102 9.969943260185809e-35 -4.0062571338301235e-48 1.2843742361226376e-34 6.6380032275775935" Properties=species:S:1:pos:R:3:forces:R:3 cutoff=-1.0 nneightol=1.2 n_minim_iter=2 energy=-652.407876733748 stress="0.04018562324904312 5.895673402276727e-18 -4.5497158088309146e-18 5.895673402276727e-18 0.04018562324904413 2.1809465408692075e-16 -4.5497158088309146e-18 2.1809465408692075e-16 0.04014789488462286" free_energy=-652.407876733748 pbc="T T T"
Si       2.01691331       1.16446544       0.41772174       0.00000000      -0.00000000       0.00686809
Si       2.01691331      -1.16446544       3.73672335       0.00000000      -0.00000000       0.00686809
Si       2.01691331       1.16446544       2.90127988      -0.00000000       0.00000000      -0.00686809
Si       2.01691331      -1.16446544      -0.41772174      -0.00000000       0.00000000      -0.00686809
