4
Lattice="1.8896098947526685 -3.2729003441965006 2.3430822748142223e-18 1.8896098947526685 3.2729003441965006 -2.3430822748142423e-18 5.076375726774005e-34 -4.456124486921739e-18 6.247314629240697" Properties=species:S:1:pos:R:3:forces:R:3 cutoff=-1.0 nneightol=1.2 n_minim_iter=3 energy=-652.6055766240944 stress="-0.03455278828248986 9.325140175365551e-17 -8.981904600446854e-17 9.325140175365551e-17 -0.03455278828248957 -1.0162086197087793e-16 -8.981904600446854e-17 -1.0162086197087793e-16 -0.034542008129329956" free_energy=-652.6055766240944 pbc="T T T"
Si       1.88960989       1.09096678       0.39155399       0.00000000       0.00000000      -0.00010776
Si       1.88960989      -1.09096678       3.51521131       0.00000000       0.00000000      -0.00010776
Si       1.88960989       1.09096678       2.73210332      -0.00000000       0.00000000       0.00010776
Si       1.88960989      -1.09096678      -0.39155399      -0.00000000      -0.00000000       0.00010776
