4
Lattice="1.8335070262408817 -3.1757273254837295 1.1912044660741574e-18 1.8335070262408821 3.1757273254837295 -1.1912044660741578e-18 -3.5896556393942626e-33 -6.213319905330464e-19 6.111628929785661" Properties=species:S:1:pos:R:3:forces:R:3 cutoff=-1.0 nneightol=1.2 n_minim_iter=3 energy=-652.1967831149099 stress="-0.10365002055785379 8.952774372136534e-16 -6.162765594680351e-16 8.952774372136534e-16 -0.10365002055785494 5.507583735683592e-17 -6.162765594680351e-16 5.507583735683592e-17 -0.10453729666160583" free_energy=-652.1967831149099 pbc="T T T"
Si       1.83350703       1.05857578       0.39012191       0.00000000      -0.00000000      -0.00228726
Si       1.83350703      -1.05857578       3.44593638      -0.00000000      -0.00000000      -0.00228727
Si       1.83350703       1.05857578       2.66569255       0.00000000       0.00000000       0.00228726
Si       1.83350703      -1.05857578      -0.39012191      -0.00000000       0.00000000       0.00228727
