4
Lattice="3.556893304490063 0.0 0.0 0.0 3.556893304490063 0.0 0.0 0.0 3.556893304490063" Properties=species:S:1:pos:R:3:forces:R:3 n_minim_iter=1 energy=-649.2411187024675 stress="-0.2675642902175703 1.8537406716548665e-17 -6.633580988360162e-18 1.8537406716548665e-17 -0.2675642902175702 1.154197404583622e-17 -6.633580988360162e-18 1.154197404583622e-17 -0.2675642902175703" free_energy=-649.2411187024675 pbc="T T T"
Si       0.00000000       0.00000000       0.00000000      -0.00000001      -0.00000001      -0.00000001
Si       1.77844665       1.77844665       0.00000000       0.00000001       0.00000001      -0.00000001
Si       1.77844665       0.00000000       1.77844665       0.00000001      -0.00000001       0.00000001
Si       0.00000000       1.77844665       1.77844665      -0.00000001       0.00000001       0.00000001
