1
Lattice="2.5616974487674744 7.061641037017672e-17 -6.893752803780979e-50 1.2808487243837372 2.218495067442418 -5.68618106764983e-50 7.614224532473998e-49 -2.0911433993001042e-48 2.4054145059727756" Properties=species:S:1:pos:R:3 cutoff=-1.0 nneightol=1.2 n_minim_iter=1 energy=-162.78011555331213 free_energy=-162.78011555331213 pbc="T T T"
Si       0.00000000       0.00000000       0.00000000
