1
Lattice="2.592534906601421 7.285301499629783e-17 -8.599487434351505e-50 1.2962674533007106 2.2452010893147474 1.9379802557383994e-49 6.570751240276163e-49 -2.1074118500430203e-48 2.4137683887111905" Properties=species:S:1:pos:R:3 cutoff=-1.0 nneightol=1.2 n_minim_iter=1 energy=-162.8062608393965 free_energy=-162.8062608393965 pbc="T T T"
Si       0.00000000       0.00000000       0.00000000
1
Lattice="2.5852005730732794 7.126430353638905e-17 -6.95700177534033e-50 1.2926002865366397 2.238849370159549 -5.738350780557415e-50 6.377569308594392e-49 -2.1593343465182684e-48 2.4274837617188307" Properties=species:S:1:pos:R:3 cutoff=-1.0 nneightol=1.2 n_minim_iter=2 stress="-0.05809161920081576 4.500807091077319e-16 -3.6412012519698175e-17 4.500807091077319e-16 -0.05809161920081336 1.8533037579752817e-16 -3.6412012519698175e-17 1.8533037579752817e-16 -0.058047728656277595" pbc="T T T"
Si       0.00000000       0.00000000       0.00000000
