1
Lattice="2.592534906601421 7.285301499629783e-17 -8.599487434351507e-50 1.2962674533007108 2.245201089314748 1.9379802557383997e-49 4.969448139183681e-49 -1.5982642237695905e-48 2.4137683887111905" Properties=species:S:1:pos:R:3 cutoff=-1.0 nneightol=1.2 n_minim_iter=1 stress="-0.03010531521226141 3.491658299027284e-16 1.397095543342771e-16 3.491658299027284e-16 -0.030105315212260796 2.125318498671919e-16 1.397095543342771e-16 2.125318498671919e-16 -0.04271738230366176" pbc="T T T"
Si       0.00000000       0.00000000       0.00000000
