1
Lattice="2.8988575353428496 5.897962559068542e-17 9.982265686420326e-50 1.4494287676714248 2.5104842675588532 3.434228185280016e-49 4.192213666791439e-49 -3.587304260988277e-48 2.5567333216041526" Properties=species:S:1:pos:R:3 cutoff=-1.0 nneightol=1.2 n_minim_iter=2 stress="0.08412106220503858 9.248517439660625e-17 5.0657941817017664e-17 9.248517439660625e-17 0.0841210622050421 5.8208735530145715e-18 5.0657941817017664e-17 5.8208735530145715e-18 0.08245537999819084" pbc="T T T"
Si       0.00000000       0.00000000       0.00000000
