1
Lattice="2.8060714662282273 6.59955032779776e-17 5.939965945569598e-50 1.403035733114114 2.4301291745882927 1.5499736986924816e-49 1.0488418659070881e-48 -2.2488196579643338e-48 2.5615537475049415" Properties=species:S:1:pos:R:3 cutoff=-1.0 nneightol=1.2 n_minim_iter=1 stress="0.060719980525879326 6.238002819350584e-16 -6.302174258492066e-17 6.238002819350584e-16 0.06071998052587898 2.3579680326403256e-17 -6.302174258492066e-17 2.3579680326403256e-17 0.06516619117210683" pbc="T T T"
Si       0.00000000       0.00000000       0.00000000
