1
Lattice="2.6384299824868123 7.414271591535612e-17 -8.751722271140034e-50 1.3192149912434061 2.284947390940111 1.9722878944417475e-49 1.798119951643606e-49 -5.9023603450417814e-49 2.4564988002044266" Properties=species:S:1:pos:R:3 cutoff=-1.0 nneightol=1.2 n_minim_iter=1 stress="0.0038042347495037703 6.417961136787262e-16 5.1544045165416774e-17 6.417961136787262e-16 0.0038042347495036333 -2.9417796089759573e-17 5.1544045165416774e-17 -2.9417796089759573e-17 -0.0015279727858980192" pbc="T T T"
Si       0.00000000       0.00000000       0.00000000
