1
Lattice="2.7257134031414805 7.659547376933564e-17 -9.041243032166544e-50 1.3628567015707402 2.360537050556257 2.037534285320165e-49 5.2247286486669135e-49 -1.6803670436210806e-48 2.537763650717473" Properties=species:S:1:pos:R:3 cutoff=-1.0 nneightol=1.2 n_minim_iter=1 stress="0.03617646594579612 -2.3618282707824534e-17 -1.851796589537791e-17 -2.3618282707824534e-17 0.03617646594579851 3.55082202599709e-17 -1.851796589537791e-17 3.55082202599709e-17 0.04810902725601179" pbc="T T T"
Si       0.00000000       0.00000000       0.00000000
