1
Lattice="2.704417897233762 7.599704718410498e-17 -8.970605435351443e-50 1.3522089486168811 2.342094601453731 2.0216153984114357e-49 3.513500126188791e-49 -1.1361183260996637e-48 2.5179365622370913" Properties=species:S:1:pos:R:3 cutoff=-1.0 nneightol=1.2 n_minim_iter=1 stress="0.026176704256405083 2.0488655990776995e-16 9.66185919519178e-17 2.0488655990776995e-16 0.026176704256404094 -9.740458434797512e-18 9.66185919519178e-17 -9.740458434797512e-18 0.03151914789467105" pbc="T T T"
Si       0.00000000       0.00000000       0.00000000
