4
Lattice="1.8398765498987828 -3.186759664079227 -2.899912439535781e-18 1.8398765498987832 3.186759664079227 2.8999124395357787e-18 2.530748724232632e-33 -5.500128134339347e-18 6.044177833378235" Properties=species:S:1:pos:R:3:forces:R:3 cutoff=-1.0 nneightol=1.2 n_minim_iter=1 energy=-652.2212232248646 stress="-0.0988004204391921 2.452299615817144e-16 -7.534559663859429e-17 2.452299615817144e-16 -0.09880042043919199 -1.922278585235985e-16 -7.534559663859429e-17 -1.922278585235985e-16 -0.09747871204038255" free_energy=-652.2212232248646 pbc="T T T"
Si       1.83987655       1.06225322       0.37887794       0.00000000       0.00000000       0.05167134
Si       1.83987655      -1.06225322       3.40096685      -0.00000000       0.00000000       0.05167134
Si       1.83987655       1.06225322       2.64321098       0.00000000      -0.00000000      -0.05167134
Si       1.83987655      -1.06225322      -0.37887794      -0.00000000      -0.00000000      -0.05167134
4
Lattice="1.8403665408465402 -3.187608353295992 -2.9022753717425705e-18 1.8403665408465406 3.187608353295992 2.9022753717425682e-18 2.3546878029381126e-33 -5.494179720847418e-18 6.040959780775541" Properties=species:S:1:pos:R:3:forces:R:3 cutoff=-1.0 nneightol=1.2 n_minim_iter=2 energy=-652.2212938671204 stress="-0.0979548428761654 -3.6330364678772504e-17 -5.81839136033299e-17 -3.6330364678772504e-17 -0.0979548428761653 -2.611598521593661e-16 -5.81839136033299e-17 -2.611598521593661e-16 -0.09891144853508602" free_energy=-652.2212938671204 pbc="T T T"
Si       1.84036654       1.06253612       0.37911661       0.00000000       0.00000000       0.02062080
Si       1.84036654      -1.06253612       3.39959650       0.00000000       0.00000000       0.02062080
Si       1.84036654       1.06253612       2.64136328      -0.00000000      -0.00000000      -0.02062080
Si       1.84036654      -1.06253612      -0.37911661      -0.00000000      -0.00000000      -0.02062080
4
Lattice="1.8392775970637858 -3.185722247337674 -2.936030712207644e-18 1.8392775970637862 3.185722247337674 2.936030712207645e-18 1.4585810849178183e-33 -5.43346972139372e-18 6.048114995340002" Properties=species:S:1:pos:R:3:forces:R:3 cutoff=-1.0 nneightol=1.2 n_minim_iter=3 energy=-652.2213975024486 stress="-0.09815236818737348 2.088995969029419e-16 -3.761306416948553e-17 2.088995969029419e-16 -0.09815236818737338 -7.57800452649641e-17 -3.761306416948553e-17 -7.57800452649641e-17 -0.09816552793707119" free_energy=-652.2213975024486 pbc="T T T"
Si       1.83927760       1.06190742       0.38111045       0.00000000       0.00000000      -0.00026158
Si       1.83927760      -1.06190742       3.40516794      -0.00000000       0.00000000      -0.00026158
Si       1.83927760       1.06190742       2.64294705       0.00000000      -0.00000000       0.00026158
Si       1.83927760      -1.06190742      -0.38111045      -0.00000000      -0.00000000       0.00026158
