4
Lattice="1.984258195514506 -3.436836009966063 -3.136554242322147e-18 1.984258195514506 3.436836009966063 3.136554242322143e-18 5.072653042889273e-33 -5.96206712240353e-18 6.532852741274757" Properties=species:S:1:pos:R:3:forces:R:3 cutoff=-1.0 nneightol=1.2 n_minim_iter=1 energy=-652.4781864516758 stress="0.03924198066997915 -4.768360364088891e-17 -3.4198536605301106e-18 -4.768360364088891e-17 0.039241980669978874 -7.406357659389528e-17 -3.4198536605301106e-18 -7.406357659389528e-17 0.03831538766147818" free_energy=-652.4781864516758 pbc="T T T"
Si       1.98425820       1.14561200       0.41366993      -0.00000000       0.00000000       0.03084342
Si       1.98425820      -1.14561200       3.68009630       0.00000000       0.00000000       0.03084342
Si       1.98425820       1.14561200       2.85275644      -0.00000000      -0.00000000      -0.03084342
Si       1.98425820      -1.14561200      -0.41366993       0.00000000      -0.00000000      -0.03084342
4
Lattice="1.9834782353983054 -3.435485079416926 -3.1367877249034526e-18 1.9834782353983054 3.435485079416926 3.1367877249034514e-18 5.3492827003093906e-33 -5.9639696089064036e-18 6.537991558846302" Properties=species:S:1:pos:R:3:forces:R:3 cutoff=-1.0 nneightol=1.2 n_minim_iter=2 energy=-652.4782719610442 stress="0.038891266988368034 -1.6575728884689956e-16 9.400749091700004e-18 -1.6575728884689956e-16 0.0388912669883679 -6.296396667789793e-19 9.400749091700004e-18 -6.296396667789793e-19 0.03891580166121983" free_energy=-652.4782719610442 pbc="T T T"
Si       1.98347824       1.14516169       0.41443630      -0.00000000       0.00000000       0.03030733
Si       1.98347824      -1.14516169       3.68343208       0.00000000      -0.00000000       0.03030733
Si       1.98347824       1.14516169       2.85455948      -0.00000000       0.00000000      -0.03030733
Si       1.98347824      -1.14516169      -0.41443630       0.00000000      -0.00000000      -0.03030733
4
Lattice="1.9828995398982148 -3.434482749408658 -3.393387316618479e-18 1.9828995398982148 3.434482749408658 3.3933873166184784e-18 5.051346604748216e-33 -5.477957237311733e-18 6.541808250830588" Properties=species:S:1:pos:R:3:forces:R:3 cutoff=-1.0 nneightol=1.2 n_minim_iter=3 energy=-652.4783596481769 stress="0.03871463368452378 -2.4977125716656098e-17 4.1844830949052836e-17 -2.4977125716656098e-17 0.038714633684523214 -1.0659363514039895e-18 4.1844830949052836e-17 -1.0659363514039895e-18 0.039051810483934614" free_energy=-652.4783596481769 pbc="T T T"
Si       1.98289954       1.14482758       0.41579263      -0.00000000       0.00000000       0.01325146
Si       1.98289954      -1.14482758       3.68669675      -0.00000000      -0.00000000       0.01325146
Si       1.98289954       1.14482758       2.85511150       0.00000000       0.00000000      -0.01325146
Si       1.98289954      -1.14482758      -0.41579263       0.00000000      -0.00000000      -0.01325146
4
Lattice="1.9828645242533631 -3.4344221005327142 -3.603450691906413e-18 1.9828645242533631 3.4344221005327142 3.6034506919064116e-18 5.5079656147435086e-33 -5.078803460027924e-18 6.5420392980394615" Properties=species:S:1:pos:R:3:forces:R:3 cutoff=-1.0 nneightol=1.2 n_minim_iter=4 energy=-652.478375971293 stress="0.038760093694899626 -6.811943377269844e-18 -7.179133494145525e-18 -6.811943377269844e-18 0.03876009369489906 1.406017838021517e-17 -7.179133494145525e-18 1.406017838021517e-17 0.038852057597668056" free_energy=-652.478375971293 pbc="T T T"
Si       1.98286452       1.14480737       0.41640236       0.00000000       0.00000000       0.00102525
Si       1.98286452      -1.14480737       3.68742200       0.00000000      -0.00000000       0.00102525
Si       1.98286452       1.14480737       2.85461729      -0.00000000       0.00000000      -0.00102525
Si       1.98286452      -1.14480737      -0.41640236      -0.00000000      -0.00000000      -0.00102525
