4
Lattice="2.0640418600710393 -3.575025370592011 -2.5929330036399336e-18 2.0640418600710375 3.575025370592011 2.5929330036399355e-18 -1.7656767116516986e-33 -4.9761301170453356e-18 6.860875846321877" Properties=species:S:1:pos:R:3:forces:R:3 cutoff=-1.0 nneightol=1.2 n_minim_iter=1 energy=-651.7899880696824 stress="0.07148010629178686 -1.3169757196055033e-16 -2.2126547516679138e-18 -1.3169757196055033e-16 0.07148010629178711 2.9097964772121275e-18 -2.2126547516679138e-18 2.9097964772121275e-18 0.07095018348815797" free_energy=-651.7899880696824 pbc="T T T"
Si       2.06404186       1.19167512       0.44617235      -0.00000000       0.00000000       0.02902053
Si       2.06404186      -1.19167512       3.87661027       0.00000000      -0.00000000       0.02902053
Si       2.06404186       1.19167512       2.98426557      -0.00000000       0.00000000      -0.02902053
Si       2.06404186      -1.19167512      -0.44617235       0.00000000      -0.00000000      -0.02902053
4
Lattice="2.062727422926827 -3.5727486986748795 -2.58652839704648e-18 2.0627274229268253 3.5727486986748795 2.5865283970464817e-18 -2.012819503500679e-33 -4.991596818306429e-18 6.869622579696611" Properties=species:S:1:pos:R:3:forces:R:3 cutoff=-1.0 nneightol=1.2 n_minim_iter=2 energy=-651.7900821402218 stress="0.07102289535263638 -1.4986275429993659e-16 2.9942237256032714e-17 -1.4986275429993659e-16 0.07102289535263642 -1.590914596172602e-17 2.9942237256032714e-17 -1.590914596172602e-17 0.07158863323598948" free_energy=-651.7900821402218 pbc="T T T"
Si       2.06272742       1.19091623       0.44777611      -0.00000000       0.00000000       0.01751679
Si       2.06272742      -1.19091623       3.88258740       0.00000000      -0.00000000       0.01751679
Si       2.06272742       1.19091623       2.98703517      -0.00000000       0.00000000      -0.01751679
Si       2.06272742      -1.19091623      -0.44777611       0.00000000      -0.00000000      -0.01751679
4
Lattice="2.062951669866388 -3.5731371057676413 -2.579849411070874e-18 2.0629516698663863 3.5731371057676413 2.5798494110708755e-18 -2.0251812767482e-33 -5.003881626098967e-18 6.868129177660414" Properties=species:S:1:pos:R:3:forces:R:3 cutoff=-1.0 nneightol=1.2 n_minim_iter=3 energy=-651.7901175525756 stress="0.07111305848883959 -1.0899109403631751e-16 4.118946767204296e-18 -1.0899109403631751e-16 0.07111305848883981 -1.4300117435226748e-17 4.118946767204296e-18 -1.4300117435226748e-17 0.07137100609997774" free_energy=-651.7901175525756 pbc="T T T"
Si       2.06295167       1.19104570       0.44819438      -0.00000000       0.00000000       0.00801822
Si       2.06295167      -1.19104570       3.88225897       0.00000000      -0.00000000       0.00801822
Si       2.06295167       1.19104570       2.98587021      -0.00000000       0.00000000      -0.00801822
Si       2.06295167      -1.19104570      -0.44819438       0.00000000      -0.00000000      -0.00801822
