4
Lattice="2.01172144820292 -3.4844037589635004 -3.6926782791899695e-18 2.01172144820292 3.4844037589635004 3.692678279189969e-18 3.0921089055861106e-33 -6.9015560193604156e-18 6.6445977832443255" Properties=species:S:1:pos:R:3:forces:R:3 cutoff=-1.0 nneightol=1.2 n_minim_iter=2 energy=-652.392551996899 stress="0.04582558904264809 2.0662894911051861e-16 -1.41685169252695e-17 2.0662894911051861e-16 0.045825589042648336 -3.785057213063548e-17 -1.41685169252695e-17 -3.785057213063548e-17 0.045805709922604014" free_energy=-652.392551996899 pbc="T T T"
Si       2.01172145       1.16146792       0.42487525       0.00000000       0.00000000      -0.00030885
Si       2.01172145      -1.16146792       3.74717414      -0.00000000       0.00000000      -0.00030885
Si       2.01172145       1.16146792       2.89742364       0.00000000      -0.00000000       0.00030885
Si       2.01172145      -1.16146792      -0.42487525      -0.00000000      -0.00000000       0.00030885
