4
Lattice="2.0513152381319184 -3.552982214784732 -2.4115504428348126e-18 2.0513152381319193 3.552982214784732 2.411550442834812e-18 -1.0413532170180408e-33 -4.54068551824765e-18 6.8073460024909656" Properties=species:S:1:pos:R:3:forces:R:3 cutoff=-1.0 nneightol=1.2 n_minim_iter=3 energy=-652.0609792821147 stress="0.062328975221748205 3.6330364678772504e-17 1.7263772560471557e-17 3.6330364678772504e-17 0.062328975221748094 -2.2223450701516345e-17 1.7263772560471557e-17 -2.2223450701516345e-17 0.06255562036510444" free_energy=-652.0609792821147 pbc="T T T"
Si       2.05131524       1.18432740       0.44093281       0.00000000       0.00000000       0.00618308
Si       2.05131524      -1.18432740       3.84460581       0.00000000       0.00000000       0.00618308
Si       2.05131524       1.18432740       2.96274019       0.00000000      -0.00000000      -0.00618308
Si       2.05131524      -1.18432740      -0.44093281      -0.00000000      -0.00000000      -0.00618308
