4
Lattice="1.9690983812346128 -3.4105784413999785 -3.0822516133566542e-18 1.969098381234613 3.4105784413999785 3.0822516133566546e-18 -1.3196038728916158e-34 -5.8397707285073594e-18 6.483062120363116" Properties=species:S:1:pos:R:3:forces:R:3 cutoff=-1.0 nneightol=1.2 n_minim_iter=2 energy=-652.6024349809583 stress="0.021743969902566187 -3.8601012471195783e-17 -2.4631844406349234e-17 -3.8601012471195783e-17 0.021743969902566475 1.153933993174614e-17 -2.4631844406349234e-17 1.153933993174614e-17 0.021810189387455638" free_energy=-652.6024349809583 pbc="T T T"
Si       1.96909838       1.13685948       0.40917825       0.00000000      -0.00000000       0.00059518
Si       1.96909838      -1.13685948       3.65070931       0.00000000       0.00000000       0.00059518
Si       1.96909838       1.13685948       2.83235281      -0.00000000      -0.00000000      -0.00059518
Si       1.96909838      -1.13685948      -0.40917825      -0.00000000       0.00000000      -0.00059518
