2
Lattice="3.391842871120747 -1.580041853515234e-16 -2.163921759727844e-16 -1.6959214355603731 2.9374220912225497 9.505761401310922e-17 -2.163921759727844e-16 -1.5171002970431583e-17 3.417925426751062" Properties=species:S:1:pos:R:3:forces:R:3 n_minim_iter=2 energy=-325.48134429071604 stress="0.0023027959516430194 0.0023027964844637232 -0.0036750300158810384 -1.4578232437215487e-16 -2.2828091767731416e-16 2.391937062854017e-16" pbc="T T T"
Si      -0.00000000       0.00000000       0.00000000      -0.00000000       0.00000001       0.00000001
Si      -0.00000000       1.95828140       1.70896272       0.00000000      -0.00000001      -0.00000001
