2
Lattice="3.524469176669648 -1.6418239352940163e-16 -2.2485344494644854e-16 -1.7622345883348236 3.0522798410061784 9.877451383420453e-17 -2.2485344494644854e-16 -1.5764212665541927e-17 3.551571600591025" Properties=species:S:1:pos:R:3:forces:R:3 n_minim_iter=1 energy=-325.1904518975347 stress="0.08152042404153897 4.485889388304757e-17 -2.5373931783090194e-16 4.485889388304757e-17 0.08152042448766854 2.6780894120318136e-17 -2.5373931783090194e-16 2.6780894120318136e-17 0.08186154676006709" free_energy=-325.1904518975347 pbc="T T T"
Si      -0.00000000       0.00000000       0.00000000      -0.00000000       0.00000000       0.00000000
Si      -0.00000000       2.03485323       1.77578581       0.00000000      -0.00000000      -0.00000000
