2
Lattice="3.2942707854560482 -2.973273065578624e-16 -1.2757538468185105e-15 -1.647135392728024 2.8529221822098814 -1.2927694640391457e-15 -1.2758431640919699e-15 -2.245779886449328e-15 3.446642147196637" Properties=species:S:1:pos:R:3:forces:R:3 n_minim_iter=2 energy=-325.47663028093837 stress="-0.014863146597075674 1.4296007453951494e-16 -6.551154118156532e-16 1.4296007453951494e-16 -0.014863146955580461 -1.5415803355289295e-15 -6.551154118156532e-16 -1.5415803355289295e-15 -0.012783174533356013" free_energy=-325.47663028093837 pbc="T T T"
Si      -0.00000000       0.00000000       0.00000000       0.00000000      -0.00000000       0.00000001
Si      -0.00000000       1.90194812       1.72332108      -0.00000000       0.00000000      -0.00000001
