2
Lattice="3.4191976239801076 -1.5927846768277047e-16 -2.1813734953162877e-16 -1.7095988119900534 2.9611120021064425 9.582424078136806e-17 -2.1813734953162877e-16 -1.5293355052368578e-17 3.445490531885076" Properties=species:S:1:pos:R:3:forces:R:3 n_minim_iter=1 energy=-325.4700344395666 stress="0.025818053684506844 1.1308853173044375e-16 -3.714601681884666e-16 1.1308853173044375e-16 0.02581805413754305 -5.250975608456821e-16 -3.714601681884666e-16 -5.250975608456821e-16 0.02813931358267338" free_energy=-325.4700344395666 pbc="T T T"
Si      -0.00000000       0.00000000       0.00000000      -0.00000000       0.00000001       0.00000001
Si      -0.00000000       1.97407467       1.72274527       0.00000000      -0.00000001      -0.00000001
