2
Lattice="3.274268705795596 0.0 0.0 -1.637134352897798 2.835599878035382 0.0 0.0 0.0 3.274268705795596" Properties=species:S:1:pos:R:3:forces:R:3 n_minim_iter=1 energy=-325.2548874560905 stress="-0.026453505386248365 -1.6605410968693635e-17 2.0086270312646596e-17 -1.6605410968693635e-17 -0.026453505386248174 -5.1784915649791997e-17 2.0086270312646596e-17 -5.1784915649791997e-17 -0.03483618428755477" free_energy=-325.2548874560905 pbc="T T T"
Si       0.00000000       0.00000000       0.00000000      -0.00000000      -0.00000000      -0.00000000
Si       0.00000000       1.89039992       1.63713435       0.00000000       0.00000000       0.00000000
