2
Lattice="3.302742036762669 0.0 0.0 -1.6513710183813346 2.8602585059832295 0.0 0.0 0.0 3.302742036762669" Properties=species:S:1:pos:R:3:forces:R:3 n_minim_iter=1 energy=-325.2731940430645 stress="0.0033560415404138132 -6.935400912061362e-17 2.7332050689747382e-17 -6.935400912061362e-17 0.0033560415404137456 -1.1993985628805133e-17 2.7332050689747382e-17 -1.1993985628805133e-17 0.004180838623745833" free_energy=-325.2731940430645 pbc="T T T"
Si       0.00000000       0.00000000       0.00000000       0.00000000      -0.00000000       0.00000000
Si       0.00000000       1.90683900       1.65137102      -0.00000000       0.00000000      -0.00000000
