2
Lattice="2.88965841385499 -1.5102761184748399e-16 3.635035712361623e-49 -1.4448292069274948 2.5025175946578684 -5.890565297471876e-49 -4.453264512362267e-49 5.7618062035894376e-49 3.5401064213779243" Properties=species:S:1:pos:R:3:forces:R:3 n_minim_iter=1 energy=-324.8747043815989 stress="-0.19285440600701576 -4.958123423114851e-17 -8.285137628676045e-18 -4.958123423114851e-17 -0.19285440600701528 1.0487191132243384e-16 -8.285137628676045e-18 1.0487191132243384e-16 -0.20740431914006363" free_energy=-324.8747043815989 pbc="T T T"
Si       0.00000000       0.00000000       0.00000000       0.00000000       0.00000000       0.00000000
Si       0.00000000       1.66834506       1.77005321      -0.00000000      -0.00000000      -0.00000000
