2
Lattice="3.5618827613977078 -2.4347082629683318e-17 -1.0588178164138835e-49 -1.7809413806988539 3.084680956672281 -2.0354749684801845e-49 1.017277857837175e-49 2.8454792770467495e-49 3.4221415707321765" Properties=species:S:1:pos:R:3:forces:R:3 n_minim_iter=1 energy=-325.1319292249033 stress="0.0459751595793664 -6.502855583369863e-17 -1.885568853459909e-17 -6.502855583369863e-17 0.04597515957936654 -2.635082472710222e-17 -1.885568853459909e-17 -2.635082472710222e-17 0.06091765481283716" free_energy=-325.1319292249033 pbc="T T T"
Si      -0.00000000       0.00000000      -0.00000000      -0.00000000       0.00000000      -0.00000000
Si       0.00000000       2.05645397       1.71107079       0.00000000      -0.00000000       0.00000000
