2
Lattice="2.5157877986099058 4.510952072350472e-16 3.600835327793887e-44 -1.2578938993049527 2.1787361441271096 7.198611561512739e-44 4.4165336067718344e-44 1.275212975153171e-43 4.524525457511595" Properties=species:S:1:pos:R:3:forces:R:3 n_minim_iter=2 energy=-325.095102132942 stress="-0.08646861534080115 5.1906175094151055e-17 -2.0455844133873176e-17 5.1906175094151055e-17 -0.08646861534079964 1.4511367358240796e-16 -2.0455844133873176e-17 1.4511367358240796e-16 -0.08701080934473233" free_energy=-325.095102132942 pbc="T T T"
Si      -0.00000000       0.00000000       0.00000000       0.00000000       0.00000000       0.00000000
Si       0.00000000       1.45249076       2.26226273      -0.00000000      -0.00000000      -0.00000000
