4
Lattice="4.75187460112814 0.15670524182722717 9.087135671175826e-13 2.1810409035174034 4.224680974327747 2.4923356894429057e-12 -3.4664577523231914 -2.1906931080786887 2.40611785148563" Properties=species:S:1:pos:R:3:tags:I:1 spacegroup="P 1" unit_cell=conventional n_minim_iter=1 energy=-1923.7067814528411 free_energy=-1923.7067814528411 pbc="T T T"
Ti       0.00000000       0.00000000       0.00000000        0
Al       3.46645775       2.19069311       0.00000000        1
Al       2.37593730       0.07835262       1.20305893        2
Al       1.09052045       2.11234049       1.20305893        3
