4
Lattice="5.087887319999521 7.565505387386569e-13 8.949401069404353e-13 2.183719785742836 4.595428737165575 2.682621221191863e-12 -3.635803552871657 -2.297714368584526 2.718094661033344" Properties=species:S:1:pos:R:3:tags:I:1 spacegroup="P 1" unit_cell=conventional n_minim_iter=1 energy=-1924.5057906239815 free_energy=-1924.5057906239815 pbc="T T T"
Ti       0.00000000       0.00000000       0.00000000        0
Al       3.63580355       2.29771437       0.00000000        1
Al       2.54394366      -0.00000000       1.35904733        2
Al       1.09185989       2.29771437       1.35904733        3
4
Lattice="4.9781677389872705 -0.006380395378904243 8.720368696196661e-13 2.1308653384430882 4.4990674207396175 2.6251454195877085e-12 -3.554516538715649 -2.246343512681691 2.6648729324244784" Properties=species:S:1:pos:R:3:tags:I:1 spacegroup="P 1" unit_cell=conventional n_minim_iter=2 stress="-0.007884101260092537 -0.010050678407058242 -8.206354961274483e-15 -0.010050678407058242 0.0016679412381917624 -5.046276486568652e-15 -8.206354961274483e-15 -5.046276486568652e-15 0.008019656300374167" pbc="T T T"
Ti       0.00000000       0.00000000       0.00000000        0
Al       3.55451654       2.24634351       0.00000000        1
Al       2.48908387      -0.00319020       1.33243647        2
Al       1.06543267       2.24953371       1.33243647        3
4
Lattice="5.003614036455818 0.03583710604500604 8.975711009734698e-13 2.179918135176557 4.503931021664929 2.6361370802715534e-12 -3.591766085816653 -2.269884063856291 2.6427789248092504" Properties=species:S:1:pos:R:3:tags:I:1 spacegroup="P 1" unit_cell=conventional n_minim_iter=3 stress="0.0013516098900153333 -0.0014363948822997193 -1.4398084757988586e-15 -0.0014363948822997193 0.0027167421133685006 -1.0974098242099949e-15 -1.4398084757988586e-15 -1.0974098242099949e-15 0.003624498847754804" pbc="T T T"
Ti       0.00000000       0.00000000       0.00000000        0
Al       3.59176609       2.26988406       0.00000000        1
Al       2.50180702       0.01791855       1.32138946        2
Al       1.08995907       2.25196551       1.32138946        3
