4
Lattice="5.044968093925498 0.0361332939068489 9.080743341345723e-13 2.1979348045648157 4.541155280161367 2.6591180885733692e-12 -3.6214514492456265 -2.2886442870354413 2.664621063459422" Properties=species:S:1:pos:R:3:tags:I:1 spacegroup="P 1" unit_cell=conventional n_minim_iter=1 stress="0.026928590030638456 0.004232062013886209 3.3740616184362536e-15 0.004232062013886209 0.022906489772845758 2.0769027951422783e-15 3.3740616184362536e-15 2.0769027951422783e-15 0.02023195866668582" pbc="T T T"
Ti       0.00000000       0.00000000       0.00000000        0
Al       3.62145145       2.28864429       0.00000000        1
Al       2.52248405       0.01806665       1.33231053        2
Al       1.09896740       2.27057764       1.33231053        3
