4
Lattice="5.237071380616588 -0.01281707729089282 9.255064644470864e-13 2.2361730345648487 4.735674300733599 2.7740278004479724e-12 -3.7366222075912177 -2.3614286117227614 2.8086278344801876" Properties=species:S:1:pos:R:3:tags:I:1 spacegroup="P 1" unit_cell=conventional n_minim_iter=1 stress="0.13207715201400158 0.004292109746427336 3.4455866906481213e-15 0.004292109746427336 0.12799798312164296 2.2016112525879107e-15 3.4455866906481213e-15 2.2016112525879107e-15 0.12528550372266314" pbc="T T T"
Ti       0.00000000       0.00000000       0.00000000        0
Al       3.73662221       2.36142861       0.00000000        1
Al       2.61853569      -0.00640854       1.40431392        2
Al       1.11808652       2.36783715       1.40431392        3
