4
Lattice="4.751874601128141 0.156705241827227 9.088952450953946e-13 2.1810409035174034 4.224680974327748 2.4930600104964978e-12 -3.4664577523231923 -2.19069310807869 2.40611785148563" Properties=species:S:1:pos:R:3:tags:I:1 spacegroup="P 1" unit_cell=conventional n_minim_iter=1 stress="-0.17188262867366197 -0.0024065803287982874 -1.500096814359709e-15 -0.0024065803287982874 -0.16959544400361137 -1.2378417008219318e-15 -1.500096814359709e-15 -1.2378417008219318e-15 -0.16807456034743562" pbc="T T T"
Ti       0.00000000       0.00000000       0.00000000        0
Al       3.46645775       2.19069311       0.00000000        1
Al       2.37593730       0.07835262       1.20305893        2
Al       1.09052045       2.11234049       1.20305893        3
