4
Lattice="4.942148743488931 0.16298001925612549 9.496487438763595e-13 2.268373950410529 4.393845276127153 2.5955059920131974e-12 -3.60526134695017 -2.2784126476928903 2.5024634096158285" Properties=species:S:1:pos:R:3:tags:I:1 spacegroup="P 1" unit_cell=conventional n_minim_iter=2 stress="-0.05194589042451418 0.00438668999999752 3.1742900996997837e-15 0.00438668999999752 -0.05611494723935916 1.8242754093396912e-15 3.1742900996997837e-15 1.8242754093396912e-15 -0.05888719840665828" pbc="T T T"
Ti       0.00000000       0.00000000       0.00000000        0
Al       3.60526135       2.27841265       0.00000000        1
Al       2.47107437       0.08149001       1.25123170        2
Al       1.13418698       2.19692264       1.25123170        3
