4
Lattice="4.9615648716675915 0.035535939654746496 8.93147615212588e-13 2.161598629270819 4.466081072339318 2.6173661977757134e-12 -3.5615817504696676 -2.250808505998343 2.6205696485344383" Properties=species:S:1:pos:R:3:tags:I:1 spacegroup="P 1" unit_cell=conventional n_minim_iter=1 stress="0.0013516098900134476 -0.0014363948822998464 -9.61738540601037e-16 -0.0014363948822998464 0.0027167421133680214 -4.696991960361746e-16 -9.61738540601037e-16 -4.696991960361746e-16 0.003624498847752709" pbc="T T T"
Ti       0.00000000       0.00000000       0.00000000        0
Al       3.56158175       2.25080851       0.00000000        1
Al       2.48078244       0.01776797       1.31028482        2
Al       1.08079931       2.23304054       1.31028482        3
