4
Lattice="4.895957735040762 0.1614567523863736 9.407730026901038e-13 2.2471729534868605 4.352778898969459 2.5712475074092475e-12 -3.5715653442642465 -2.2571178256791558 2.479074532733665" Properties=species:S:1:pos:R:3:tags:I:1 spacegroup="P 1" unit_cell=conventional n_minim_iter=2 stress="-0.05194589042451418 0.00438668999999752 3.1742900996997837e-15 0.00438668999999752 -0.05611494723935916 1.8242754093396912e-15 3.1742900996997837e-15 1.8242754093396912e-15 -0.05888719840665828" pbc="T T T"
Ti       0.00000000       0.00000000       0.00000000        0
Al       3.57156534       2.25711783       0.00000000        1
Al       2.44797887       0.08072838       1.23953727        2
Al       1.12358648       2.17638945       1.23953727        3
