4
Lattice="5.003614036455817 0.035837106045007686 9.007170237003704e-13 2.1799181351765555 4.503931021664933 2.639548324868291e-12 -3.5917660858166522 -2.269884063856292 2.642778924809246" Properties=species:S:1:pos:R:3:tags:I:1 spacegroup="P 1" unit_cell=conventional n_minim_iter=1 stress="0.0013516098900134476 -0.0014363948822998464 -9.61738540601037e-16 -0.0014363948822998464 0.0027167421133680214 -4.696991960361746e-16 -9.61738540601037e-16 -4.696991960361746e-16 0.003624498847752709" pbc="T T T"
Ti       0.00000000       0.00000000       0.00000000        0
Al       3.59176609       2.26988406       0.00000000        1
Al       2.50180702       0.01791855       1.32138946        2
Al       1.08995907       2.25196551       1.32138946        3
