4
Lattice="4.800866452764287 0.1583208736783661 9.18743173483257e-13 2.2035274464771275 4.26823745695361 2.5192220467950764e-12 -3.502196949621131 -2.213279165317203 2.430924938939302" Properties=species:S:1:pos:R:3:tags:I:1 spacegroup="P 1" unit_cell=conventional n_minim_iter=1 stress="-0.1291860000246131 -0.006262536749199706 -4.689388730664148e-15 -0.006262536749199706 -0.12323416127774596 -3.077853746811901e-15 -4.689388730664148e-15 -3.077853746811901e-15 -0.11927643351188383" pbc="T T T"
Ti       0.00000000       0.00000000       0.00000000        0
Al       3.50219695       2.21327917       0.00000000        1
Al       2.40043323       0.07916044       1.21546247        2
Al       1.10176372       2.13411873       1.21546247        3
