4
Lattice="5.0856550775613565 0.036424704022934226 9.153978305145717e-13 2.2156608507480784 4.57777908176564 2.680563515410829e-12 -3.6506579641551906 -2.307101892895631 2.6861108710431956" Properties=species:S:1:pos:R:3:tags:I:1 spacegroup="P 1" unit_cell=conventional n_minim_iter=1 stress="0.026928590030638456 0.004232062013886209 3.3740616184362536e-15 0.004232062013886209 0.022906489772845758 2.0769027951422783e-15 3.3740616184362536e-15 2.0769027951422783e-15 0.02023195866668582" pbc="T T T"
Ti       0.00000000       0.00000000       0.00000000        0
Al       3.65065796       2.30710189       0.00000000        1
Al       2.54282754       0.01821235       1.34305544        2
Al       1.10783043       2.28888954       1.34305544        3
