4
Lattice="5.0856550775613565 0.03642470402293445 9.132683375391734e-13 2.2156608507480784 4.577779081765641 2.6802993035325723e-12 -3.6506579641551906 -2.3071018928956315 2.686110871043197" Properties=species:S:1:pos:R:3:tags:I:1 spacegroup="P 1" unit_cell=conventional n_minim_iter=1 stress="0.050672068240753924 0.008169151581891049 6.4068745979808015e-15 0.008169151581891049 0.042908205949592014 3.965724380724402e-15 6.4068745979808015e-15 3.965724380724402e-15 0.03774555711670252" pbc="T T T"
Ti       0.00000000       0.00000000       0.00000000        0
Al       3.65065796       2.30710189       0.00000000        1
Al       2.54282754       0.01821235       1.34305544        2
Al       1.10783043       2.28888954       1.34305544        3
