4
Lattice="5.310326621822591 -0.012996360332934685 9.377942945051091e-13 2.2674522330175755 4.801916087022267 2.8104668321446647e-12 -3.78888942742059 -2.394459863346094 2.8479144308466697" Properties=species:S:1:pos:R:3:tags:I:1 spacegroup="P 1" unit_cell=conventional n_minim_iter=1 stress="0.14261864641768499 0.0029593308248556664 2.1246880934144406e-15 0.0029593308248556664 0.13980613440002332 1.44597295967587e-15 2.1246880934144406e-15 1.44597295967587e-15 0.13793592968219884" pbc="T T T"
Ti       0.00000000       0.00000000       0.00000000        0
Al       3.78888943       2.39445986       0.00000000        1
Al       2.65516331      -0.00649818       1.42395722        2
Al       1.13372612       2.40095804       1.42395722        3
