4
Lattice="5.123185717454412 -0.012538356372081933 9.033847534571629e-13 2.187545083849996 4.632692048046482 2.709939659127218e-12 -3.6553654006526908 -2.310076845838577 2.747551247918967" Properties=species:S:1:pos:R:3:tags:I:1 spacegroup="P 1" unit_cell=conventional n_minim_iter=1 stress="0.08349594771205432 0.003918787941880879 3.0278632879082304e-15 0.003918787941880879 0.07977157932152618 2.2160454451358744e-15 3.0278632879082304e-15 2.2160454451358744e-15 0.07729502765129645" pbc="T T T"
Ti       0.00000000       0.00000000       0.00000000        0
Al       3.65536540       2.31007685       0.00000000        1
Al       2.56159286      -0.00626918       1.37377562        2
Al       1.09377254       2.31634602       1.37377562        3
