2
Lattice="3.3200000000000003 0.0 0.0 0.0 3.3200000000000003 0.0 0.0 -4.930380657631325e-32 3.3200000000000003" Properties=species:S:1:pos:R:3:forces:R:3 n_minim_iter=1 energy=-9.837444053891499 stress="0.1510009578696523 0.0 0.0 0.0 0.1510009578696523 0.0 0.0 0.0 0.1510009578696523" free_energy=-9.837444053891499 pbc="T T T"
V        0.00000000       0.00000000       0.00000000       0.00000000       0.00000000       0.00000000
V        1.66000000       1.66000000       1.66000000       0.00000000       0.00000000       0.00000000
2
Lattice="3.06474627000363 -6.384539053346165e-34 6.12566384135372e-35 -2.906335445773793e-34 3.064746270003631 -3.8186978313934806e-18 1.4767984939684377e-35 -3.818697831393528e-18 3.0647462700036314" Properties=species:S:1:pos:R:3:forces:R:3 n_minim_iter=2 energy=-10.60483164246036 stress="0.029988876159241416 1.536691991906292e-18 8.105296976917503e-18 1.536691991906292e-18 0.02998887615924139 1.0786975158871622e-17 8.105296976917503e-18 1.0786975158871622e-17 0.029988876159241482" free_energy=-10.60483164246036 pbc="T T T"
V        0.00000000       0.00000000       0.00000000       0.00000000      -0.00000000       0.00000000
V        1.53237314       1.53237314       1.53237314       0.00000000      -0.00000000      -0.00000000
2
Lattice="3.0196858611200454 5.226729010600961e-34 -1.235057751366812e-34 2.1864558537172127e-33 3.0196858611200463 4.6222685572743135e-17 1.2691263671317931e-34 4.62226855727431e-17 3.0196858611200463" Properties=species:S:1:pos:R:3:forces:R:3 n_minim_iter=3 energy=-10.6185624907985 stress="-0.010329871975161917 1.0773108577413926e-17 5.4810552411404194e-18 1.0773108577413926e-17 -0.010329871975161442 6.300063495563683e-20 5.4810552411404194e-18 6.300063495563683e-20 -0.010329871975161367" free_energy=-10.6185624907985 pbc="T T T"
V        0.00000000       0.00000000       0.00000000       0.00000000      -0.00000000       0.00000000
V        1.50984293       1.50984293       1.50984293       0.00000000      -0.00000000      -0.00000000
2
Lattice="3.030791024689575 -6.436028594994698e-33 -7.338142797005873e-34 -8.413566866339306e-34 3.030791024689576 1.5434999477913162e-17 9.563693897404058e-35 1.5434999477913144e-17 3.0307910246895755" Properties=species:S:1:pos:R:3:forces:R:3 n_minim_iter=4 energy=-10.61999115157946 stress="0.0008045352652023881 1.8693193450612092e-18 6.231064483537365e-20 1.8693193450612092e-18 0.0008045352652023744 -4.98485158682989e-19 6.231064483537365e-20 -4.98485158682989e-19 0.0008045352652023626" free_energy=-10.61999115157946 pbc="T T T"
V        0.00000000       0.00000000       0.00000000       0.00000000      -0.00000000      -0.00000000
V        1.51539551       1.51539551       1.51539551       0.00000000      -0.00000000       0.00000000
