2
Lattice="3.0053209883703644 -6.381941763956001e-33 -7.276474815930062e-34 6.381941763956e-33 3.0053209883703644 1.5305287467389535e-17 7.276474815930062e-34 -1.5305287467389538e-17 3.0053209883703644" Properties=species:S:1:pos:R:3:forces:R:3 n_minim_iter=1 energy=-10.61151068853513 stress="-0.02599733703984601 6.390835367730627e-19 -8.81935280746826e-18 6.390835367730627e-19 -0.02599733703984601 -6.263018660376011e-18 -8.81935280746826e-18 -6.263018660376011e-18 -0.02599733703984602" free_energy=-10.61151068853513 pbc="T T T"
V        0.00000000       0.00000000       0.00000000      -0.00000000      -0.00000000       0.00000000
V        1.50266049       1.50266049       1.50266049       0.00000000       0.00000000       0.00000000
