2
Lattice="2.813537155442593 -5.9746796918679935e-33 -6.8121283332077055e-34 5.9746796918679935e-33 2.813537155442593 1.432858424470017e-17 6.812128333207705e-34 -1.4328584244700195e-17 2.813537155442593" Properties=species:S:1:pos:R:3:forces:R:3 n_minim_iter=1 energy=-9.993271672679043 stress="-0.30520937021039224 -2.1147855216854067e-17 -1.6918284173483254e-17 -2.1147855216854067e-17 -0.30520937021039224 -3.5045017216501036e-17 -1.6918284173483254e-17 -3.5045017216501036e-17 -0.3052093702103923" free_energy=-9.993271672679043 pbc="T T T"
V        0.00000000       0.00000000       0.00000000      -0.00000000      -0.00000000      -0.00000000
V        1.40676858       1.40676858       1.40676858      -0.00000000      -0.00000000       0.00000000
