2
Lattice="2.7536563917671253 -5.847520048010695e-33 -6.667145194791109e-34 5.847520048010696e-33 2.7536563917671253 1.402362770083468e-17 6.667145194791109e-34 -1.4023627700834595e-17 2.7536563917671253" Properties=species:S:1:pos:R:3:forces:R:3 n_minim_iter=1 energy=-9.473984518434536 stress="-0.44464353365282067 1.4150546440033224e-17 -1.4793753096398367e-17 1.4150546440033224e-17 -0.4446435336528205 -1.9939406347319538e-17 -1.4793753096398367e-17 -1.9939406347319538e-17 -0.44464353365282067" free_energy=-9.473984518434536 pbc="T T T"
V        0.00000000       0.00000000       0.00000000      -0.00000000      -0.00000000      -0.00000000
V        1.37682820       1.37682820       1.37682820      -0.00000000      -0.00000000      -0.00000000
