2
Lattice="3.1753280944136613 -6.74295992288994e-33 -7.688095548104829e-34 6.742959922889943e-33 3.1753280944136604 1.6171087706219455e-17 7.688095548104829e-34 -1.6171087706219458e-17 3.1753280944136613" Properties=species:S:1:pos:R:3:forces:R:3 n_minim_iter=1 energy=-10.39710290944798 stress="0.09182968777710535 4.280047078331943e-18 -1.0282103009858855e-18 4.280047078331943e-18 0.09182968777710529 4.603876176830997e-18 -1.0282103009858855e-18 4.603876176830997e-18 0.09182968777710535" free_energy=-10.39710290944798 pbc="T T T"
V        0.00000000       0.00000000       0.00000000      -0.00000000       0.00000000      -0.00000000
V        1.58766405       1.58766405       1.58766405       0.00000000      -0.00000000       0.00000000
