2
Lattice="3.198172966879159 -6.791472093883982e-33 -7.743407489761506e-34 6.791472093883985e-33 3.198172966879158 1.628743046680753e-17 7.743407489761506e-34 -1.6287430466807534e-17 3.198172966879159" Properties=species:S:1:pos:R:3:forces:R:3 n_minim_iter=1 energy=-10.39710290944798 stress="0.09182968777710535 4.280047078331943e-18 -1.0282103009858855e-18 4.280047078331943e-18 0.09182968777710529 4.603876176830997e-18 -1.0282103009858855e-18 4.603876176830997e-18 0.09182968777710535" free_energy=-10.39710290944798 pbc="T T T"
V        0.00000000       0.00000000       0.00000000      -0.00000000       0.00000000      -0.00000000
V        1.59908648       1.59908648       1.59908648       0.00000000      -0.00000000       0.00000000
