1
Lattice="2.57136051170154 1.4086481534446011e-16 -8.392787639349555e-51 1.2856802558507698 2.226863525421687 -3.55879859075872e-51 8.258399868872051e-50 -2.335553433979075e-50 2.400382120601668" Properties=species:S:1:pos:R:3:forces:R:3 cutoff=-1.0 nneightol=1.2 n_minim_iter=1 energy=-162.7850808834057 stress="-0.07437797504021493 -7.698801155308858e-17 -5.5312439742414125e-34 -7.698801155308858e-17 -0.0743779750402148 1.0096788400405061e-17 -5.5312439742414125e-34 1.0096788400405061e-17 -0.08797025563969883" free_energy=-162.7850808834057 pbc="T T T"
Si       0.00000000       0.00000000       0.00000000       0.00000000      -0.00000000      -0.00000000
