1
Lattice="2.64089016325729 1.4467380342014784e-16 -8.619728823788621e-51 1.3204450816286448 2.287077969985247 -3.6550285922876804e-51 3.6537627311925406e-50 -1.9751902352238002e-50 2.465288512251763" Properties=species:S:1:pos:R:3:forces:R:3 cutoff=-1.0 nneightol=1.2 n_minim_iter=1 energy=-162.834810180748 stress="-0.012681023606551886 1.3013206896060513e-16 -7.456089895683735e-18 1.3013206896060513e-16 -0.01268102360655188 1.4213171363647114e-17 -7.456089895683735e-18 1.4213171363647114e-17 -0.010404841938793836" free_energy=-162.834810180748 pbc="T T T"
Si       0.00000000       0.00000000       0.00000000      -0.00000000       0.00000000       0.00000000
