2
Lattice="4.995124806889127 -4.181780748510661e-17 2.4936255126027877e-15 -4.181780748509795e-17 4.995124806889127 -4.6629153322647665e-15 2.497562403444562 2.4975624034445643 1.4448324084361528" Properties=species:S:1:pos:R:3 cutoff=-1.0 nneightol=1.2 n_minim_iter=1 energy=-325.5429198458386 free_energy=-325.5429198458386 pbc="T T T"
Si      -0.00000000      -1.24878120      -0.36120810
Si      -0.00000000       1.24878120       0.36120810
2
Lattice="4.9144669115826325 3.0077281531339165e-17 2.0763645025129926e-15 3.0077281531348255e-17 4.9144669115826325 -4.893619327712552e-15 2.457233455791315 2.457233455791317 1.4926477531164826" Properties=species:S:1:pos:R:3 cutoff=-1.0 nneightol=1.2 n_minim_iter=2 stress="0.04490641449627849 -2.400259118691497e-16 -2.2055256391211623e-16 -2.400259118691497e-16 0.044906414496278385 -3.32121151825707e-16 -2.2055256391211623e-16 -3.32121151825707e-16 0.044924379643317545" pbc="T T T"
Si      -0.00000000      -1.22861673      -0.37316194
Si      -0.00000000       1.22861673       0.37316194
