2
Lattice="4.537150613122966 4.2959899296472014e-17 -2.8530970182663977e-16 4.295989929647216e-17 4.537150613122966 3.5892275979918685e-16 2.268575306561483 2.268575306561483 1.2295886678240049" Properties=species:S:1:pos:R:3 cutoff=-1.0 nneightol=1.2 n_minim_iter=1 energy=-325.26327058083854 free_energy=-325.26327058083854 pbc="T T T"
Si      -0.00000000      -1.13428765      -0.30739717
Si      -0.00000000       1.13428765       0.30739717
