2
Lattice="4.643605001703586 2.9283492233898504e-17 1.189311430104387e-16 2.9283492233898436e-17 4.643605001703586 -3.1439057001292486e-16 2.321802500851793 2.321802500851793 1.2805727750767184" Properties=species:S:1:pos:R:3 cutoff=-1.0 nneightol=1.2 n_minim_iter=1 energy=-325.58329403376047 free_energy=-325.58329403376047 pbc="T T T"
Si      -0.00000000      -1.16090125      -0.32014319
Si      -0.00000000       1.16090125       0.32014319
