2
Lattice="4.769168195297678 3.0075318585004446e-17 1.2214704404610127e-16 3.007531858500423e-17 4.769168195297678 -3.2289169876789166e-16 2.384584097648839 2.384584097648839 1.3151994944486922" Properties=species:S:1:pos:R:3 cutoff=-1.0 nneightol=1.2 n_minim_iter=1 stress="-0.020104567790445612 1.695367013274997e-17 -9.914864503091216e-17 1.695367013274997e-17 -0.02010456779044573 -9.947096904529868e-18 -9.914864503091216e-17 -9.947096904529868e-18 -0.018491109469584835" pbc="T T T"
Si      -0.00000000      -1.19229205      -0.32879987
Si      -0.00000000       1.19229205       0.32879987
