2
Lattice="4.490849927220532 4.252150238763388e-17 -2.8239817518456963e-16 4.252150238763403e-17 4.490849927220532 3.5526002708834607e-16 2.245424963610266 2.245424963610266 1.2170409691574788" Properties=species:S:1:pos:R:3 cutoff=-1.0 nneightol=1.2 n_minim_iter=1 stress="-0.19699534442505912 -4.703407936952228e-17 1.8640219726847416e-16 -4.703407936952228e-17 -0.19699534442505856 7.559285407750416e-16 1.8640219726847416e-16 7.559285407750416e-16 -0.19505728351276047" pbc="T T T"
Si      -0.00000000      -1.12271248      -0.30426024
Si      -0.00000000       1.12271248       0.30426024
