2
Lattice="4.6002042849311024 2.900979872377298e-17 1.1781957196782629e-16 2.900979872377296e-17 4.6002042849311024 -3.114521684735896e-16 2.3001021424655512 2.3001021424655512 1.2686041049815513" Properties=species:S:1:pos:R:3 cutoff=-1.0 nneightol=1.2 n_minim_iter=1 stress="-0.12672415560368655 -1.1310669902177696e-16 1.7074502850829524e-17 -1.1310669902177696e-16 -0.12672415560368655 1.2125556329896474e-16 1.7074502850829524e-17 1.2125556329896474e-16 -0.11189758089674681" pbc="T T T"
Si      -0.00000000      -1.15005107      -0.31715103
Si      -0.00000000       1.15005107       0.31715103
