1
Lattice="2.662289716893698 1.6939044806709942e-17 3.923927608426653e-52 1.3311448584468488 2.305610527064024 2.6717720231174594e-51 9.08900925009164e-52 2.5603424029355762e-51 2.4858329817425715" Properties=species:S:1:pos:R:3:forces:R:3 cutoff=-1.0 nneightol=1.2 n_minim_iter=3 energy=-162.8360928397009 stress="0.002890015486745014 -1.475678359726833e-16 -6.139185780065408e-18 -1.475678359726833e-16 0.002890015486744906 -7.958203788973675e-18 -6.139185780065408e-18 -7.958203788973675e-18 0.008375151798534765" free_energy=-162.8360928397009 pbc="T T T"
Si       0.00000000       0.00000000       0.00000000      -0.00000000      -0.00000000       0.00000000
