16
Lattice="2.7459625102873706 -2.7459625102873706 0.0 2.7459625102873706 2.7459625102873706 0.0 0.0 0.0 31.674177672568916" Properties=species:S:1:pos:R:3:travel:I:3:map_shift:I:3:n_neighb:I:1:orig_index:I:1:forces:R:3 cutoff=2.0 nneightol=1.2 supercell_a1_in_bulk_lattice_coords="1 0 -1" bulk_struct_test=bulk_Si_diamond n_minim_iter=0 energy=-2606.823826667954 stress="0.008241948253160556 0.001351690429210103 1.4051955392091117e-17 0.001351690429210103 0.008241948253160557 -5.3989091769613255e-17 1.4051955392091117e-17 -5.3989091769613255e-17 -7.325688161961014e-05" free_energy=-2606.823826667954 pbc="T T T"
Si      -0.00000000      -0.00000000       0.00650402        0        0        0        0        0        0       29        1      -0.00000000       0.00000000      -0.00240822
Si       1.37298126       1.37298126       1.36647723        0        0        0       -1        0        0       29        2       0.00000000       0.00000000       0.00240822
Si      -0.00000000       2.74596251       2.72682357        0        0        0       -1        0        0       29        3       0.00000000       0.00000000      -0.00714722
Si      -1.37298126       1.37298126       4.08658559        1        0        0        0        0        0       29        4       0.00000000      -0.00000000      -0.00307570
Si       0.00000000       0.00000000       5.44450809        1       -1        0        0        0        0       29        5      -0.00000000       0.00000000      -0.00407195
Si       1.37298126       1.37298126       6.81232443        1       -1        0        0        0        0       29        6       0.00000000      -0.00000000      -0.00159163
Si      -0.00000000       2.74596251       8.17544673        1       -1        0        0        0        0       29        7      -0.00000000       0.00000000      -0.00235400
Si      -1.37298126       1.37298126       9.54943147        2       -1        0        0        0        0       29        8      -0.00000000      -0.00000000       0.00480060
Si       0.00000000       0.00000000      10.89508146        2       -2        0        0        0        0       29        9       0.00000000      -0.00000000       0.00441834
Si       1.37298126       1.37298126      -9.52210021        2       -2        1        0        0        0       29       10       0.00000000      -0.00000000      -0.00441834
Si      -0.00000000       2.74596251      -8.17645021        2       -2        1        0        0        0       35       11      -0.00000000      -0.00000000      -0.00480060
Si      -1.37298126       1.37298126      -6.80246548        3       -2        1        0        0        0       35       12       0.00000000       0.00000000       0.00235400
Si      -0.00000000      -0.00000000      -5.43934317        3       -3        1        0        0        0       35       13       0.00000000       0.00000000       0.00159163
Si       1.37298126       1.37298126      -4.07152683        3       -3        1        0        0        0       35       14      -0.00000000       0.00000000       0.00407195
Si      -0.00000000       2.74596251      -2.71360434        3       -2        1        0        0        0       29       97      -0.00000000      -0.00000000       0.00307570
Si      -1.37298126       1.37298126      -1.35384231        4       -2        1        0        0        0       29       98       0.00000000      -0.00000000       0.00714722
