2
Lattice="4.809793775640019 -2.3761586165360196e-17 9.009806118517665e-17 -2.3761586165360128e-17 4.809793775640019 -2.61958136283285e-16 2.4048968878200094 2.4048968878200094 1.3264920620033585" Properties=species:S:1:pos:R:3:forces:R:3 cutoff=-1.0 nneightol=1.2 n_minim_iter=2 energy=-325.7133866490132 stress="-0.0015708154468479147 4.1577209012737865e-17 8.58803599905193e-17 4.1577209012737865e-17 -0.0015708154468480277 -5.166011506164425e-17 8.58803599905193e-17 -5.166011506164425e-17 -0.0019551694711950306" free_energy=-325.7133866490132 pbc="T T T"
Si      -0.00000000      -1.20244844      -0.33162302       0.00000000      -0.00000000       0.00000000
Si      -0.00000000       1.20244845       0.33162302      -0.00000000       0.00000000      -0.00000000
