2
Lattice="2.6780267949190772 1.5461642675227362e-16 1.7242987968692144e-50 -1.3390133974595386 2.319239236415339 2.0766381798393236e-49 4.51761455162201e-50 1.5793829377605226e-49 4.641935719870951" Properties=species:S:1:pos:R:3:forces:R:3 n_minim_iter=3 energy=-325.2337450076192 stress="-0.005135698979254108 1.756926059835991e-17 -2.1179382639118785e-17 1.756926059835991e-17 -0.005135698979254303 9.912793436917101e-18 -2.1179382639118785e-17 9.912793436917101e-18 -0.004483430530651416" free_energy=-325.2337450076192 pbc="T T T"
Si      -0.00000000      -0.00000000      -0.00000000       0.00000000      -0.00000000      -0.00000000
Si      -0.00000000       1.54615949       2.32096786      -0.00000000       0.00000000       0.00000000
