2
Lattice="2.7466784421820662 -1.5721967430252622e-16 2.7466784421820662 2.7466784421820662 2.7466784421820662 -5.318345492253545e-18 -1.0351028819826908e-16 2.7466784421820662 2.7466784421820662" Properties=species:S:1:pos:R:3:forces:R:3 n_minim_iter=2 energy=-326.3515900876305 stress="0.009518958349357745 -2.2782543400537705e-17 2.0927426603610463e-17 -2.2782543400537705e-17 0.009518958349357683 1.1335181808781547e-17 2.0927426603610463e-17 1.1335181808781547e-17 0.00951895834935762" free_energy=-326.3515900876305 pbc="T T T"
Si       0.00000000       0.00000000       0.00000000      -0.00000000       0.00000000       0.00000000
Si       1.37333922       1.37333922       1.37333922       0.00000000      -0.00000000      -0.00000000
