18
Lattice="0.0 -2.747349158381004 2.747349158381004 2.747349158381004 -2.747349158381004 0.0 22.090962308462753 22.090962308462753 22.090962308462753" Properties=species:S:1:pos:R:3:travel:I:3:map_shift:I:3:n_neighb:I:1:orig_index:I:1:forces:R:3 cutoff=2.0 nneightol=1.2 bulk_struct_test=bulk_Si_diamond supercell_a1_in_bulk_lattice_coords="1 -1 0" n_minim_iter=0 energy=-2934.767637110026 stress="0.0022206018884182123 -0.0011301033371661294 -0.001130103337166103 -0.0011301033371661294 0.0022206018884182483 -0.0011301033371661265 -0.001130103337166103 -0.0011301033371661265 0.0022206018884183376" free_energy=-2934.767637110026 pbc="T T T"
Si       0.04310326       0.04310326       0.04310326        0        0        0        0        0        0       21        1       0.00090182       0.00090182       0.00090182
Si       1.41059071       1.41059071       1.41059071        0        0        0        0        0        0       21        2      -0.00150453      -0.00150453      -0.00150453
Si       2.77580506       0.02845590       2.77580506        0       -1        0        0        0        0       20        3       0.00071615       0.00071615       0.00071615
Si      -1.21960334      -3.96695250      -1.21960334        0       -1        1        0        0        0       20        4       0.00032872       0.00032872       0.00032872
Si      -2.69141162       0.05593753      -2.69141162        1       -1        1        0        0        0       20        5      -0.00080318      -0.00080318      -0.00080318
Si      -1.31155014       1.43579901      -1.31155014        1       -1        1        0        0        0       20        6      -0.00012814      -0.00012814      -0.00012814
Si       5.49050991       5.49050991       5.49050991        0        0        0        0        0        0       21        1      -0.00112081      -0.00112081      -0.00112081
Si       6.85611619       6.85611619       6.85611619        0        0        0        0        0        0       21        2       0.00171744       0.00171744       0.00171744
Si       8.22146296       5.47411380       8.22146296        0       -1        0        0        0        0       20        3      -0.00087111      -0.00087111      -0.00087111
Si       4.14160825       1.39425909       4.14160825        0       -1        1        0        0        0       20        4       0.00087111       0.00087111       0.00087111
Si       2.75960587       5.50695503       2.75960587        1       -1        1        0        0        0       20        5      -0.00171744      -0.00171744      -0.00171744
Si       4.12521215       6.87256130       4.12521215        1       -1        1        0        0        0       20        6       0.00112081       0.00112081       0.00112081
Si      10.92727220      10.92727220      10.92727220        0        0        0        0        0        0       21        1       0.00012814       0.00012814       0.00012814
Si      12.30713368      12.30713368      12.30713368        0        0        0        0        0        0       21        2       0.00080318       0.00080318       0.00080318
Si      13.58267455      10.83532540      13.58267455        0       -1        0        0        0        0       20        3      -0.00032872      -0.00032872      -0.00032872
Si       9.58726616       6.83991700       9.58726616        0       -1        1        0        0        0       20        4      -0.00071615      -0.00071615      -0.00071615
Si       8.20513134      10.95248050       8.20513134        1       -1        1        0        0        0       20        5       0.00150453       0.00150453       0.00150453
Si       9.57261879      12.31996795       9.57261879        1       -1        1        0        0        0       20        6      -0.00090182      -0.00090182      -0.00090182
