63
Lattice="10.984525986735111 0.0 0.0 0.0 10.984525986735111 0.0 0.0 0.0 10.984525986735111" Properties=species:S:1:pos:R:3:forces:R:3 cutoff=-1.0 nneightol=1.2 vacancies=0 relax_radial_0=0.13 relax_symm_break_0=0.01 bulk_struct_test=bulk_Si_diamond supercell_a1_in_bulk_lattice_coords="2 2 -2" n_minim_iter=0 energy=-10276.43137681007 stress="0.012098669416124475 1.9619655488697304e-06 -3.770827171318673e-05 1.9619655488697304e-06 0.012101998602741713 -7.576940649210171e-05 -3.770827171318673e-05 -7.576940649210171e-05 0.012103128795706998" free_energy=-10276.43137681007 pbc="T T T"
Si       2.71838645       2.71839329       0.01535720      -0.00027639      -0.00047829      -0.00314782
Si       2.71894798       0.01479111       2.71901426      -0.00059736      -0.00198375      -0.00110437
Si       0.01429958       2.71945041       2.71949121      -0.00093587      -0.00112759      -0.00132442
Si       1.29439626       1.29549912       1.29678658      -0.00227960      -0.00358416      -0.00507408
Si       4.11643638       4.11632057       1.37151586      -0.00130600      -0.00124960      -0.00224263
Si       4.11615183       1.37228287       4.11591783      -0.00115398      -0.00273403      -0.00097077
Si       1.37302836       4.11572258       4.11560865      -0.00327883      -0.00087217      -0.00078946
Si       0.00044290       0.00021537       5.49226318       0.00147886       0.00079264       0.00004811
Si       2.74402004       2.74360194       5.49449679      -0.00001902      -0.00045083      -0.00006945
Si       2.71653830      -0.01516329       8.26793934       0.00091168       0.00314932      -0.00040865
Si      -0.01496621       2.71465442       8.26983050       0.00311172       0.00185735      -0.00155736
Si       1.37110997       1.37087905       6.87649018       0.00201375       0.00254150      -0.00428026
Si       4.11836080       4.11767538       6.86752847       0.00026342       0.00090702      -0.00155418
Si       4.10835424       1.37059503       9.61413914       0.00437637       0.00276682      -0.00324341
Si       1.37095093       4.10817876       9.61401452       0.00218576       0.00426462      -0.00319382
Si       0.00044299       5.49243276      -0.00000034       0.00147888       0.00067076       0.00003735
Si       2.71715635       8.26723885      -0.01456404       0.00052693       0.00027672       0.00197458
Si       2.74456825       5.49415375       2.74372004      -0.00051349       0.00043641      -0.00130694
Si      -0.01414086       8.27106099       2.71340092       0.00184365      -0.00209240       0.00238554
Si       1.37156916       6.87592258       1.37111911       0.00131331      -0.00310782       0.00234105
Si       4.10900059       9.61408646       1.37064964       0.00323909      -0.00311174       0.00266005
Si       4.11875984       6.86786385       4.11735384      -0.00011341      -0.00180655       0.00115526
Si       1.37138834       9.61379789       4.10870351       0.00152503      -0.00300242       0.00311440
Si       0.00084137       5.49380713       5.49224606       0.00237368      -0.00127991       0.00009947
Si       2.74429676       8.24153208       5.49087266      -0.00016982       0.00146676      -0.00019998
Si       2.74376117       5.49055120       8.24161210       0.00032947       0.00029402       0.00066297
Si       0.01355826       8.26624587       8.26630875       0.00022300       0.00079389       0.00061416
Si       1.37305721       6.87044151       6.87030827      -0.00364852      -0.00017449      -0.00010621
Si       4.11533300       9.61378747       6.86945118      -0.00072120       0.00197394       0.00037705
Si       4.11507953       6.86984251       9.61299349      -0.00056117       0.00009752       0.00248053
Si       1.28978492       9.69104351       9.69245141       0.00032936       0.00397925       0.00233782
Si       5.49260009       0.00021769      -0.00000254       0.00128231       0.00078757       0.00004844
Si       8.26841893       2.71592226      -0.01378727      -0.00031200       0.00096636       0.00086575
Si       8.27033765      -0.01356125       2.71404824      -0.00145809       0.00079585       0.00194012
Si       5.49383494       2.74468484       2.74425273       0.00077059      -0.00128669      -0.00167684
Si       6.87534703       1.37180221       1.37157958      -0.00174476       0.00102892       0.00150026
Si       9.61391414       4.10945981       1.37104882      -0.00290600       0.00208168       0.00202581
Si       9.61376323       1.37142958       4.10932761      -0.00279616       0.00141067       0.00194187
Si       6.86821461       4.11844773       4.11773259      -0.00205665       0.00010607       0.00075671
Si       5.49533133       0.00042449       5.49224699      -0.00257107       0.00114008       0.00009941
Si       8.24178505       2.74411873       5.49169100       0.00179178      -0.00065725      -0.00038515
Si       8.26790419       0.01327217       8.26804554      -0.00002203       0.00029511      -0.00035854
Si       5.49111305       2.74309012       8.24186518       0.00040942       0.00019390       0.00035931
Si       6.87167294       1.37232409       6.87136461      -0.00091227      -0.00342187      -0.00077937
Si       9.61459808       4.11407131       6.87059720       0.00172593       0.00000471      -0.00029531
Si       9.69419554       1.28629376       9.69704578       0.00308399       0.00166750      -0.00030534
Si       6.87138266       4.11359333       9.61298093      -0.00082399       0.00040808       0.00280049
Si       5.49533186       5.49380759       0.00002599      -0.00257296      -0.00129334      -0.00013152
Si       8.26976753       8.26984229       0.01301236      -0.00110536      -0.00127926       0.00038157
Si       8.24206879       5.49225252       2.74340075       0.00148605      -0.00034616      -0.00072721
Si       5.49197664       8.24209015       2.74289056       0.00009923       0.00074000      -0.00024172
Si       6.87281117       6.87264364       1.37155031      -0.00162256      -0.00152715      -0.00321112
Si       9.69897102       9.70042060       1.28279971       0.00034125      -0.00142021       0.00293255
Si       9.61460570       6.87216175       4.11252580       0.00201565      -0.00124457       0.00095393
Si       6.87255095       9.61378111       4.11230414      -0.00153062       0.00257552       0.00114297
Si       5.49292803       5.49258666       5.49225389      -0.00075315      -0.00030077       0.00011440
Si       8.24156044       8.24107170       5.49197862       0.00198282       0.00172058       0.00102834
Si       8.24126469       5.49251875       8.24031668       0.00227691       0.00107605       0.00169810
Si       5.49301862       8.24047987       8.24002253       0.00122514       0.00232008       0.00198162
Si       6.86785414       6.86712483       6.86639606      -0.00181565      -0.00116409      -0.00050470
Si       9.61352012       9.61329278       6.87460621      -0.00239694      -0.00197194      -0.00116486
Si       9.61334770       6.87469582       9.61288892      -0.00224375      -0.00099518      -0.00133870
Si       6.87474461       9.61292287       9.61269766      -0.00079636      -0.00162302      -0.00116581
