65
Lattice="10.984525986735111 0.0 0.0 0.0 10.984525986735111 0.0 0.0 0.0 10.984525986735111" Properties=species:S:1:pos:R:3:forces:R:3 cutoff=-1.0 nneightol=1.2 Zs=14 interstitial_position="mean 4 5 6 7" bulk_struct_test=bulk_Si_diamond supercell_a1_in_bulk_lattice_coords="2 2 -2" n_minim_iter=0 energy=-10602.76966420921 stress="0.0025421328998134598 -2.520744814186099e-10 -2.5207430029098416e-10 -2.520744814186099e-10 0.002542132899813482 -2.5207428680077953e-10 -2.5207430029098416e-10 -2.5207428680077953e-10 0.0025421328998135348" pbc="T T T"
Si       0.00000000       0.00000000       0.00000000      -0.22504429      -0.22504429      -0.22504429
Si       2.74613150       2.74613150       0.00000000      -0.00000006      -0.00000006      -0.54604515
Si       2.74613150       0.00000000       2.74613150      -0.00000006      -0.54604515      -0.00000006
Si       0.00000000       2.74613150       2.74613150      -0.54604515      -0.00000006      -0.00000006
Si       1.37306575       1.37306575       1.37306575      -0.60470819      -0.60470819      -0.60470819
Si       4.11919724       4.11919724       1.37306575       0.60470824       0.60470824      -0.60470819
Si       4.11919724       1.37306575       4.11919724       0.60470824      -0.60470819       0.60470824
Si       1.37306575       4.11919724       4.11919724      -0.60470819       0.60470824       0.60470824
Si       0.00000000       0.00000000       5.49226299       0.00601532       0.00601532      -0.00601531
Si       2.74613150       2.74613150       5.49226299      -0.00000006      -0.00000006       0.54604516
Si       2.74613150       0.00000000       8.23839449      -0.00000007       0.00855300      -0.00000000
Si       0.00000000       2.74613150       8.23839449       0.00855300      -0.00000007      -0.00000000
Si       1.37306575       1.37306575       6.86532874      -0.12020708      -0.12020708       0.00516492
Si       4.11919724       4.11919724       6.86532874       0.12020714       0.12020714       0.00516492
Si       4.11919724       1.37306575       9.61146024       0.12020714      -0.12020709      -0.00516492
Si       1.37306575       4.11919724       9.61146024      -0.12020709       0.12020714      -0.00516492
Si       0.00000000       5.49226299       0.00000000       0.00601532      -0.00601531       0.00601532
Si       2.74613150       8.23839449       0.00000000      -0.00000007      -0.00000000       0.00855300
Si       2.74613150       5.49226299       2.74613150      -0.00000006       0.54604516      -0.00000006
Si       0.00000000       8.23839449       2.74613150       0.00855300      -0.00000000      -0.00000007
Si       1.37306575       6.86532874       1.37306575      -0.12020708       0.00516492      -0.12020708
Si       4.11919724       9.61146024       1.37306575       0.12020714      -0.00516492      -0.12020709
Si       4.11919724       6.86532874       4.11919724       0.12020714       0.00516492       0.12020714
Si       1.37306575       9.61146024       4.11919724      -0.12020709      -0.00516492       0.12020714
Si       0.00000000       5.49226299       5.49226299      -0.22504429       0.22504430       0.22504430
Si       2.74613150       8.23839449       5.49226299      -0.00000007       0.00000000      -0.00855299
Si       2.74613150       5.49226299       8.23839449      -0.00000007      -0.00855299       0.00000000
Si       0.00000000       8.23839449       8.23839449      -0.01494871       0.00000000       0.00000000
Si       1.37306575       6.86532874       6.86532874       0.05312772      -0.01709722      -0.01709722
Si       4.11919724       9.61146024       6.86532874      -0.05312765       0.01709722      -0.01709722
Si       4.11919724       6.86532874       9.61146024      -0.05312765      -0.01709722       0.01709722
Si       1.37306575       9.61146024       9.61146024       0.05312772       0.01709722       0.01709722
Si       5.49226299       0.00000000       0.00000000      -0.00601531       0.00601532       0.00601532
Si       8.23839449       2.74613150       0.00000000      -0.00000000      -0.00000007       0.00855300
Si       8.23839449       0.00000000       2.74613150      -0.00000000       0.00855300      -0.00000007
Si       5.49226299       2.74613150       2.74613150       0.54604516      -0.00000006      -0.00000006
Si       6.86532874       1.37306575       1.37306575       0.00516492      -0.12020708      -0.12020708
Si       9.61146024       4.11919724       1.37306575      -0.00516492       0.12020714      -0.12020709
Si       9.61146024       1.37306575       4.11919724      -0.00516492      -0.12020709       0.12020714
Si       6.86532874       4.11919724       4.11919724       0.00516492       0.12020714       0.12020714
Si       5.49226299       0.00000000       5.49226299       0.22504430      -0.22504429       0.22504430
Si       8.23839449       2.74613150       5.49226299       0.00000000      -0.00000007      -0.00855299
Si       8.23839449       0.00000000       8.23839449       0.00000000      -0.01494871       0.00000000
Si       5.49226299       2.74613150       8.23839449      -0.00855299      -0.00000007       0.00000000
Si       6.86532874       1.37306575       6.86532874      -0.01709722       0.05312772      -0.01709722
Si       9.61146024       4.11919724       6.86532874       0.01709722      -0.05312765      -0.01709722
Si       9.61146024       1.37306575       9.61146024       0.01709722       0.05312772       0.01709722
Si       6.86532874       4.11919724       9.61146024      -0.01709722      -0.05312765       0.01709722
Si       5.49226299       5.49226299       0.00000000       0.22504430       0.22504430      -0.22504429
Si       8.23839449       8.23839449       0.00000000       0.00000000       0.00000000      -0.01494871
Si       8.23839449       5.49226299       2.74613150       0.00000000      -0.00855299      -0.00000007
Si       5.49226299       8.23839449       2.74613150      -0.00855299       0.00000000      -0.00000007
Si       6.86532874       6.86532874       1.37306575      -0.01709722      -0.01709722       0.05312772
Si       9.61146024       9.61146024       1.37306575       0.01709722       0.01709722       0.05312772
Si       9.61146024       6.86532874       4.11919724       0.01709722      -0.01709722      -0.05312765
Si       6.86532874       9.61146024       4.11919724      -0.01709722       0.01709722      -0.05312765
Si       5.49226299       5.49226299       5.49226299      -0.00601531      -0.00601531      -0.00601531
Si       8.23839449       8.23839449       5.49226299       0.00000000       0.00000000       0.01494871
Si       8.23839449       5.49226299       8.23839449       0.00000000       0.01494871       0.00000000
Si       5.49226299       8.23839449       8.23839449       0.01494871       0.00000000       0.00000000
Si       6.86532874       6.86532874       6.86532874      -0.01571025      -0.01571025      -0.01571025
Si       9.61146024       9.61146024       6.86532874       0.01571025       0.01571025      -0.01571025
Si       9.61146024       6.86532874       9.61146024       0.01571025      -0.01571025       0.01571025
Si       6.86532874       9.61146024       9.61146024      -0.01571025       0.01571025       0.01571025
Si       2.74613149       2.74613149       2.74613149      -0.00000000      -0.00000000      -0.00000000
