65
Lattice="10.9095825548632 0.0 0.0 0.0 10.9095825548632 0.0 0.0 0.0 10.9095825548632" Properties=species:S:1:pos:R:3:forces:R:3 cutoff=-1.0 nneightol=1.2 Zs=14 interstitial_position="mean 1 3 4 5 7 18" interstitial_constraint="plane atoms 4 5 7" bulk_struct_test=bulk_Si_diamond supercell_a1_in_bulk_lattice_coords="2 2 -2" n_minim_iter=0 energy=-10602.28320982551 stress="-0.008348795693812803 -0.0023808172499600864 0.002380816748221958 -0.0023808172499600864 -0.00834879565643901 -0.002380817249960051 0.002380816748221958 -0.002380817249960051 -0.008348795693812755" pbc="T T T"
Si       0.00000000       0.00000000       0.00000000      -0.35099869      -0.21273278      -0.35099869
Si       2.72739564       2.72739564       0.00000000       0.12638993      -0.12639004      -1.56162969
Si       2.72739564       0.00000000       2.72739564       0.09960246      -0.04333070       0.09960246
Si       0.00000000       2.72739564       2.72739564      -1.56162969      -0.12639004       0.12638993
Si       1.36369782       1.36369782       1.36369782      -0.12639000      -1.56162972      -0.12639000
Si       4.09109345       4.09109345       1.36369782       1.56162981       0.12639006      -0.12639001
Si       4.09109345       1.36369782       4.09109345      -0.06889454       0.06889461      -0.06889454
Si       1.36369782       4.09109345       4.09109345      -0.12639001       0.12639006       1.56162981
Si       0.00000000       0.00000000       5.45479127       0.08672165       0.01198137      -0.01198136
Si       2.72739564       2.72739564       5.45479127       0.09960246      -0.09960260       0.04333071
Si       2.72739564       0.00000000       8.18218691      -0.07990983       0.04432598       0.00768217
Si       0.00000000       2.72739564       8.18218691       0.01921771      -0.02445888       0.05372209
Si       1.36369782       1.36369782       6.81848909      -0.02445882       0.01921770      -0.05372209
Si       4.09109345       4.09109345       6.81848909      -0.01921764       0.02445888      -0.05372209
Si       4.09109345       1.36369782       9.54588473       0.35099876      -0.35099870      -0.21273278
Si       1.36369782       4.09109345       9.54588473      -0.09960254       0.09960260      -0.04333070
Si       0.00000000       5.45479127       0.00000000       0.06889462      -0.06889461       0.06889462
Si       2.72739564       8.18218691       0.00000000       0.02445874      -0.05372209       0.01921771
Si       2.72739564       5.45479127       2.72739564       0.12638993       1.56162971       0.12638993
Si       0.00000000       8.18218691       2.72739564       0.01921771      -0.05372209       0.02445874
Si       1.36369782       6.81848909       1.36369782      -0.09960254       0.04333070      -0.09960254
Si       4.09109345       9.54588473       1.36369782      -0.01921764       0.05372209      -0.02445882
Si       4.09109345       6.81848909       4.09109345       0.35099876       0.21273277       0.35099876
Si       1.36369782       9.54588473       4.09109345      -0.02445882       0.05372209      -0.01921764
Si       0.00000000       5.45479127       5.45479127      -0.35099870       0.35099871       0.21273279
Si       2.72739564       8.18218691       5.45479127      -0.07990983      -0.00768217      -0.04432597
Si       2.72739564       5.45479127       8.18218691       0.02445873      -0.01921770       0.05372209
Si       0.00000000       8.18218691       8.18218691      -0.01136454      -0.00223795       0.00223795
Si       1.36369782       6.81848909       6.81848909       0.07990974      -0.04432598      -0.00768217
Si       4.09109345       9.54588473       6.81848909       0.01136461       0.00223795      -0.00223795
Si       4.09109345       6.81848909       9.54588473      -0.08672158      -0.01198136       0.01198136
Si       1.36369782       9.54588473       9.54588473       0.07990974       0.00768217       0.04432598
Si       5.45479127       0.00000000       0.00000000      -0.01198136       0.01198137       0.08672165
Si       8.18218691       2.72739564       0.00000000       0.05372209      -0.02445888       0.01921771
Si       8.18218691       0.00000000       2.72739564       0.00768217       0.04432598      -0.07990983
Si       5.45479127       2.72739564       2.72739564       0.04333071      -0.09960260       0.09960246
Si       6.81848909       1.36369782       1.36369782      -0.05372209       0.01921770      -0.02445882
Si       9.54588473       4.09109345       1.36369782      -0.04333070       0.09960260      -0.09960254
Si       9.54588473       1.36369782       4.09109345      -0.21273278      -0.35099870       0.35099876
Si       6.81848909       4.09109345       4.09109345      -0.05372209       0.02445888      -0.01921764
Si       5.45479127       0.00000000       5.45479127       0.00868150      -0.00868149       0.00868150
Si       8.18218691       2.72739564       5.45479127       0.00768217       0.07990968      -0.04432597
Si       8.18218691       0.00000000       8.18218691       0.00607768      -0.00002365       0.00607768
Si       5.45479127       2.72739564       8.18218691      -0.04432597       0.07990968       0.00768217
Si       6.81848909       1.36369782       6.81848909      -0.00223795      -0.01136455      -0.00223795
Si       9.54588473       4.09109345       6.81848909       0.04432598      -0.07990968      -0.00768217
Si       9.54588473       1.36369782       9.54588473       0.01198136       0.08672164       0.01198136
Si       6.81848909       4.09109345       9.54588473      -0.00768217      -0.07990968       0.04432598
Si       5.45479127       5.45479127       0.00000000       0.21273279       0.35099871      -0.35099870
Si       8.18218691       8.18218691       0.00000000       0.00223795      -0.00223795      -0.01136454
Si       8.18218691       5.45479127       2.72739564       0.05372209      -0.01921770       0.02445873
Si       5.45479127       8.18218691       2.72739564      -0.04432597      -0.00768217      -0.07990983
Si       6.81848909       6.81848909       1.36369782      -0.00768217      -0.04432598       0.07990974
Si       9.54588473       9.54588473       1.36369782       0.04432598       0.00768217       0.07990974
Si       9.54588473       6.81848909       4.09109345       0.01198136      -0.01198136      -0.08672158
Si       6.81848909       9.54588473       4.09109345      -0.00223795       0.00223795       0.01136461
Si       5.45479127       5.45479127       5.45479127      -0.01198136      -0.08672164      -0.01198136
Si       8.18218691       8.18218691       5.45479127       0.00607768      -0.00607768       0.00002366
Si       8.18218691       5.45479127       8.18218691       0.00223795       0.01136455       0.00223795
Si       5.45479127       8.18218691       8.18218691       0.00002366      -0.00607768       0.00607768
Si       6.81848909       6.81848909       6.81848909      -0.00607768       0.00002365      -0.00607768
Si       9.54588473       9.54588473       6.81848909      -0.00002365       0.00607768      -0.00607768
Si       9.54588473       6.81848909       9.54588473      -0.00868149       0.00868149      -0.00868149
Si       6.81848909       9.54588473       9.54588473      -0.00607768       0.00607768      -0.00002365
Si       2.04554673       3.40924455       2.04554673      -0.00000003      -0.00000006      -0.00000003
