16
Lattice="2.747349158381004 -2.747349158381004 0.0 2.747349158381004 2.747349158381004 0.0 0.0 0.0 31.69017240589923" Properties=species:S:1:pos:R:3:travel:I:3:map_shift:I:3:n_neighb:I:1:orig_index:I:1:forces:R:3 cutoff=2.0 nneightol=1.2 supercell_a1_in_bulk_lattice_coords="1 0 -1" bulk_struct_test=bulk_Si_diamond n_minim_iter=0 energy=-2606.825867732682 stress="0.008857377219241142 0.000976474357804437 -3.1076745656342656e-17 0.000976474357804437 0.008857377219241142 -3.712799316038303e-18 -3.1076745656342656e-17 -3.712799316038303e-18 -4.419184572212192e-05" free_energy=-2606.825867732682 pbc="T T T"
Si       0.00000000       0.00000000       0.00737734        0        0        0        0        0        0       29        1      -0.00000000      -0.00000000      -0.00357498
Si       1.37367458       1.37367458       1.36629724        0        0        0       -1        0        0       29        2       0.00000000       0.00000000       0.00357498
Si      -0.00000000       2.74734916       2.72555614        0        0        0       -1        0        0       29        3      -0.00000000      -0.00000000       0.00186894
Si      -1.37367458       1.37367458       4.08542573        1        0        0        0        0        0       29        4       0.00000000       0.00000000      -0.00880694
Si       0.00000000      -0.00000000       5.44261553        1       -1        0        0        0        0       29        5       0.00000000      -0.00000000      -0.00167579
Si       1.37367458       1.37367458       6.81174588        1       -1        0        0        0        0       29        6      -0.00000000      -0.00000000       0.00296475
Si       0.00000000       2.74734916       8.17544146        1       -1        0        0        0        0       29        7      -0.00000000       0.00000000       0.00000668
Si      -1.37367458       1.37367458       9.55022488        2       -1        0        0        0        0       29        8      -0.00000000       0.00000000       0.00037306
Si       0.00000000      -0.00000000      10.90240041        2       -2        0        0        0        0       29        9       0.00000000      -0.00000000       0.00202795
Si       1.37367458       1.37367458      -9.52872583        2       -2        1        0        0        0       29       10      -0.00000000       0.00000000      -0.00202795
Si       0.00000000       2.74734916      -8.17655030        2       -2        1        0        0        0       35       11      -0.00000000      -0.00000000      -0.00037306
Si      -1.37367458       1.37367458      -6.80176688        3       -2        1        0        0        0       35       12       0.00000000       0.00000000      -0.00000668
Si      -0.00000000       0.00000000      -5.43807131        3       -3        1        0        0        0       35       13      -0.00000000      -0.00000000      -0.00296475
Si       1.37367458       1.37367458      -4.06894095        3       -3        1        0        0        0       35       14       0.00000000      -0.00000000       0.00167579
Si      -0.00000000       2.74734916      -2.71175115        3       -2        1        0        0        0       29       97      -0.00000000       0.00000000       0.00880694
Si      -1.37367458       1.37367458      -1.35188156        4       -2        1        0        0        0       29       98       0.00000000      -0.00000000      -0.00186894
