2
Lattice="2.596690700441216 1.1230067512725982e-67 1.2189834941782893e-53 -1.1215981554776591e-67 2.596690700441216 -3.000604699626567e-17 -1.757309441086273e-53 4.3257279469367254e-17 3.7434379589711337" Properties=species:S:1:pos:R:3:tags:I:1 spacegroup="P 1" unit_cell=conventional n_minim_iter=1 energy=-1703.7901805447157 free_energy=-1703.7901805447157 pbc="T T T"
Ti       1.29834535       1.29834535       1.87171898        0
Al       0.00000000       0.00000000       0.00000000        1
