2
Lattice="2.9006913500174165 1.2544797764608972e-67 1.3616927409861213e-53 -1.2529062730639174e-67 2.9006913500174165 -3.351892505160309e-17 -1.963041764734156e-53 4.8321510282591326e-17 4.181690990409213" Properties=species:S:1:pos:R:3:tags:I:1 spacegroup="P 1" unit_cell=conventional n_minim_iter=1 energy=-1704.0760030002468 free_energy=-1704.0760030002468 pbc="T T T"
Ti       1.45034568       1.45034568       2.09084550        0
Al       0.00000000       0.00000000       0.00000001        1
