2
Lattice="2.8362100689852427 1.2265931614252549e-67 1.3314228219509676e-53 -1.2250546364187698e-67 2.8362100689852427 -3.2773811916372135e-17 -1.9194040823902698e-53 4.724734122823395e-17 4.088733567710427" Properties=species:S:1:pos:R:3:tags:I:1 spacegroup="P 1" unit_cell=conventional n_minim_iter=1 energy=-1704.2330877394102 free_energy=-1704.2330877394102 pbc="T T T"
Ti       1.41810503       1.41810503       2.04436679        0
Al       0.00000000       0.00000000       0.00000001        1
