2
Lattice="2.570192007592193 1.1115466990745077e-67 1.2065440191207592e-53 -1.1101524777090349e-67 2.570192007592193 -2.9699841477513554e-17 -1.7393764608079053e-53 4.281584785722017e-17 3.705236946945599" Properties=species:S:1:pos:R:3:tags:I:1 spacegroup="P 1" unit_cell=conventional n_minim_iter=1 energy=-1703.6053766437883 free_energy=-1703.6053766437883 pbc="T T T"
Ti       1.28509600       1.28509600       1.85261848        0
Al       0.00000000       0.00000000       0.00000000        1
