2
Lattice="2.82410522 0.0 0.0 0.0 2.82410522 0.0 0.0 0.0 4.06471199" Properties=species:S:1:pos:R:3:tags:I:1 spacegroup="P 1" unit_cell=conventional n_minim_iter=1 energy=-1704.2546994459753 free_energy=-1704.2546994459753 pbc="T T T"
Ti       1.41205261       1.41205261       2.03235600        0
Al       0.00000000       0.00000000       0.00000000        1
2
Lattice="2.7686554105996555 1.1973773840382763e-67 1.2997101449221282e-53 2.7331770269976953e-52 2.7686554105996555 -3.1993184383801466e-17 -3.4098055744311767e-35 -4.6047533654967207e-17 3.991345506643712" Properties=species:S:1:pos:R:3:tags:I:1 spacegroup="P 1" unit_cell=conventional n_minim_iter=2 stress="0.0008622684130036364 1.1465097265607285e-16 6.27078821829375e-17 1.1465097265607285e-16 0.0008622684130027655 -1.5110204173513592e-17 6.27078821829375e-17 -1.5110204173513592e-17 -0.0007666162067358785" pbc="T T T"
Ti       1.38432771       1.38432771       1.99567276        0
Al      -0.00000000      -0.00000000       0.00000000        1
