2
Lattice="2.543135345529194 1.0998453385087361e-67 1.1938426124970317e-53 -1.0984657942476255e-67 2.543135345529194 -2.938718834817224e-17 -1.7210658750768012e-53 4.2365121248861096e-17 3.6662315560484555" Properties=species:S:1:pos:R:3:tags:I:1 spacegroup="P 1" unit_cell=conventional n_minim_iter=1 stress="-0.32269335552968925 2.543028249452679e-16 1.07910433485118e-16 2.543028249452679e-16 -0.3226933555296913 5.980798601632811e-17 1.07910433485118e-16 5.980798601632811e-17 -0.3212659868517588" pbc="T T T"
Ti       1.27156767       1.27156767       1.83311578        0
Al       0.00000000       0.00000000       0.00000000        1
