2
Lattice="2.9006913500174165 1.2544797764608975e-67 1.3616927409861213e-53 -1.2529062730639175e-67 2.9006913500174165 -3.3518925051603086e-17 -1.963041764734156e-53 4.832151028259132e-17 4.181690990409213" Properties=species:S:1:pos:R:3:tags:I:1 spacegroup="P 1" unit_cell=conventional n_minim_iter=1 stress="0.0752541438285601 -8.31763425350899e-17 -1.172862510858034e-16 -8.31763425350899e-17 0.07525414382856005 -1.244820009866759e-16 -1.172862510858034e-16 -1.244820009866759e-16 0.07316798743181856" pbc="T T T"
Ti       1.45034568       1.45034568       2.09084550        0
Al      -0.00000000      -0.00000000       0.00000001        1
