2
Lattice="2.8362100689852427 1.2265931614252547e-67 1.3314228219509678e-53 -1.2250546364187698e-67 2.8362100689852427 -3.2773811916372135e-17 -1.91940408239027e-53 4.724734122823394e-17 4.088733567710427" Properties=species:S:1:pos:R:3:tags:I:1 spacegroup="P 1" unit_cell=conventional n_minim_iter=1 stress="0.036691320825702575 -5.972237517988288e-17 -1.3788552683116146e-17 -5.972237517988288e-17 0.0366913208257028 4.3475754972572594e-17 -1.3788552683116146e-17 4.3475754972572594e-17 0.03412444811598172" pbc="T T T"
Ti       1.41810503       1.41810503       2.04436679        0
Al       0.00000000      -0.00000000       0.00000001        1
