2
Lattice="2.9824436306701845 1.2898356866158457e-67 1.4000703116032997e-53 -1.2882178360354549e-67 2.9824436306701845 -3.4463613140524135e-17 -2.0183675894837205e-53 4.9683390328934136e-17 4.299546609708047" Properties=species:S:1:pos:R:3:tags:I:1 spacegroup="P 1" unit_cell=conventional n_minim_iter=1 stress="0.1123147592067594 -7.44641113649838e-17 4.4738460454818397e-17 -7.44641113649838e-17 0.1123147592067595 -5.756052261520072e-17 4.4738460454818397e-17 -5.756052261520072e-17 0.11040607372198642" pbc="T T T"
Ti       1.49122182       1.49122182       2.14977331        0
Al       0.00000000       0.00000000       0.00000001        1
