2
Lattice="2.9215603506317165 1.2635051211344806e-67 1.3714894284716603e-53 -1.2619202971799523e-67 2.9215603506317165 -3.3760076688604516e-17 -1.9771648529399685e-53 4.8669159000116973e-17 4.2117761326450935" Properties=species:S:1:pos:R:3:tags:I:1 spacegroup="P 1" unit_cell=conventional n_minim_iter=1 stress="0.08458941457337155 -1.0720180173151295e-17 4.7033512216637175e-18 -1.0720180173151295e-17 0.0845894145733715 1.837469358974255e-17 4.7033512216637175e-18 1.837469358974255e-17 0.08278463142585958" pbc="T T T"
Ti       1.46078018       1.46078018       2.10588807        0
Al       0.00000000      -0.00000000       0.00000001        1
