2
Lattice="2.879517665596735 1.2453226633131128e-67 1.3517530235544822e-53 -1.243760645751867e-67 2.879517665596735 -3.3274252642331124e-17 -1.948712481878588e-53 4.7968785953803933e-17 4.151166610290247" Properties=species:S:1:pos:R:3:tags:I:1 spacegroup="P 1" unit_cell=conventional n_minim_iter=1 stress="0.06422248990284574 8.877652553967006e-18 -1.004622231602865e-16 8.877652553967006e-18 0.0642224899028453 2.042441891098333e-17 -1.004622231602865e-16 2.042441891098333e-17 0.06193373671982178" pbc="T T T"
Ti       1.43975883       1.43975883       2.07558331        0
Al       0.00000000      -0.00000000       0.00000001        1
