2
Lattice="2.8580279269127074 1.2360288642398745e-67 1.341664938460026e-53 -1.2344785039605451e-67 2.8580279269127074 -3.302592806952742e-17 -1.9341693094208507e-53 4.761079659765123e-17 4.120186600424423" Properties=species:S:1:pos:R:3:tags:I:1 spacegroup="P 1" unit_cell=conventional n_minim_iter=1 stress="0.06422248990284574 8.877652553967006e-18 -1.004622231602865e-16 8.877652553967006e-18 0.0642224899028453 2.042441891098333e-17 -1.004622231602865e-16 2.042441891098333e-17 0.06193373671982178" pbc="T T T"
Ti       1.42901396       1.42901396       2.06009331        0
Al       0.00000000       0.00000000       0.00000001        1
