24
Lattice="8.854604335917477 0.17293249359717638 -0.01399066828913667 -2.8513761002731215 5.014176864916075 0.010868168125378361 -0.014885831724667554 0.011451035965715037 9.260937830902561" Properties=species:S:1:pos:R:3 n_minim_iter=1 energy=-34156.827731629935 free_energy=-34156.827731629935 pbc="T T T"
Ti      -0.09591974      -0.02689961       0.00770174
Ti       0.09203683       1.71285836       2.31438662
Ti      -0.03079144      -0.02448345       4.62301999
Ti       0.04254773       1.68804309       6.93392012
Ti      -1.49505459       2.48022328       0.05819664
Al      -1.36491783       4.20926749       2.30073871
Ti      -1.48471624       2.52195853       4.59419965
Ti      -1.37779223       4.17152376       6.94742138
Ti       2.90682435       0.08859227       0.00325432
Ti       3.03669515       1.77990736       2.32904064
Ti       2.87209977       0.03220608       4.61778658
Ti       3.03724914       1.76591703       6.91388146
Ti       1.48938917       2.55136162       0.00666251
V        1.58104776       4.29670898       2.30779460
Ti       1.47784892       2.56820921       4.62811141
Ti       1.64327593       4.29919524       6.95064459
Al       5.82819194       0.11102978       0.04500675
Ti       5.95765213       1.84513232       2.29883884
Ti       5.84518182       0.09408251       4.63512401
Ti       6.00089446       1.77961142       6.94987783
Ti       4.42125933       2.62722166      -0.04639602
Ti       4.55934007       4.29945666       2.31189388
Ti       4.46213560       2.65388241       4.67128839
Al       4.59074476       4.33386833       6.92414793
24
Lattice="8.895964980159649 0.18204847900744656 -0.009831545428370038 -2.8600405333957504 5.040502852539197 0.011788701895046645 -0.010828925673292482 0.0157516794137739 9.165155471184384" Properties=species:S:1:pos:R:3 n_minim_iter=2 stress="0.019790117232523764 -0.0009857155934445139 0.00021642175047678896 -0.0009857155934445139 0.017268356894142307 0.0006916529747767363 0.00021642175047678896 0.0006916529747767363 0.01930161384355933" pbc="T T T"
Ti      -0.09633420      -0.02712131       0.00768056
Ti       0.09505826       1.72383907       2.29131208
Ti      -0.02878012      -0.02230384       4.57514960
Ti       0.04737672       1.70100667       6.86296277
Ti      -1.49969958       2.49320088       0.05819502
Al      -1.36629805       4.23341588       2.27815192
Ti      -1.48725258       2.53726822       4.54705648
Ti      -1.37722154       4.19753858       6.87683760
Ti       2.92045221       0.09179167       0.00460818
Ti       3.05353706       1.79406667       2.30717700
Ti       2.88758853       0.03715880       4.57122583
Ti       3.05603636       1.78203826       6.84450691
Ti       1.49868739       2.56747503       0.00853823
V        1.59330737       4.32386788       2.28658749
Ti       1.48917816       2.58655899       4.58190016
Ti       1.65787157       4.32869487       6.88149751
Al       5.85543547       0.11706000       0.04748220
Ti       5.98804318       1.86225591       2.27861823
Ti       5.87446899       0.10206531       4.58961641
Ti       6.03350301       1.79853194       6.88145254
Ti       4.44418479       2.64640207      -0.04261402
Ti       4.58544927       4.32941184       2.29204103
Ti       4.48739554       2.67542910       4.62604208
Al       4.61913544       4.36627008       6.85649930
24
Lattice="8.87830080193903 0.19807042267523356 -0.013698001668844422 -2.845441228174504 5.0481245182900025 0.00657461174756046 -0.014599027225695413 0.003961129523549372 9.160786150599966" Properties=species:S:1:pos:R:3 n_minim_iter=3 stress="0.018503659848762496 -0.0001626540621787411 -0.00036401182392489524 -0.0001626540621787411 0.01825036236880679 -0.0009236179641484605 -0.00036401182392489524 -0.0009236179641484605 0.018180146800376062" pbc="T T T"
Ti      -0.09592794      -0.02672712       0.00768942
Ti       0.09696231       1.72525778       2.28806733
Ti      -0.03035680      -0.02770992       4.57314883
Ti       0.04742027       1.69647768       6.85747302
Ti      -1.49232876       2.49670616       0.05568480
Al      -1.35694898       4.23889042       2.27210053
Ti      -1.48168185       2.53521307       4.54222399
Ti      -1.36990131       4.19684505       6.86874205
Ti       2.91476471       0.09716562       0.00335577
Ti       3.04970559       1.80092282       2.30267494
Ti       2.87992708       0.03638280       4.56776575
Ti       3.05009714       1.78302377       6.83771036
Ti       1.50023792       2.57665970       0.00477636
V        1.59649648       4.33365365       2.27951779
Ti       1.48878951       2.58986825       4.57562504
Ti       1.65898110       4.33344941       6.87202843
Al       5.84383473       0.12756041       0.04521733
Ti       5.97816476       1.87441594       2.27288192
Ti       5.86063485       0.10655699       4.58450688
Ti       6.02157001       1.80457408       6.87327357
Ti       4.43970695       2.66083618      -0.04757174
Ti       4.58267871       4.34500132       2.28371800
Ti       4.48102843       2.68397523       4.61844137
Al       4.61446489       4.37656312       6.84592170
24
Lattice="8.869552685161851 0.20589140202643044 -0.009953597562140062 -2.8382331445072144 5.050589065304479 0.010169116015292797 -0.010828686967674847 0.012727601463090462 9.161100938497265" Properties=species:S:1:pos:R:3 n_minim_iter=4 stress="0.017978468753193578 0.0002459654024315381 0.00014379301768659174 0.0002459654024315381 0.01873614361276862 0.00035980334935996284 0.00014379301768659174 0.00035980334935996284 0.018213985546329352" pbc="T T T"
Ti      -0.09557921      -0.02602643       0.00756863
Ti       0.09938839       1.72898949       2.28989106
Ti      -0.02817943      -0.02265410       4.57345517
Ti       0.05168729       1.70462885       6.85926695
Ti      -1.48870732       2.49788091       0.05748796
Al      -1.35080980       4.24423112       2.27539502
Ti      -1.47612844       2.54088479       4.54406328
Ti      -1.36198962       4.20637246       6.87227394
Ti       2.91193936       0.09985597       0.00468400
Ti       3.04937444       1.80745667       2.30581476
Ti       2.87892907       0.04327104       4.56906614
Ti       3.05141448       1.79386750       6.84080966
Ti       1.50102418       2.58069441       0.00790061
V        1.59926509       4.34037907       2.28444421
Ti       1.49138948       2.59827559       4.57853761
Ti       1.66359086       4.34546849       6.87692204
Al       5.83814371       0.13280959       0.04801374
Ti       5.97469095       1.88345248       2.27730725
Ti       5.85641930       0.11598581       4.58663951
Ti       6.01989745       1.81783157       6.87746509
Ti       4.43734370       2.66721844      -0.04313276
Ti       4.58264333       4.35488985       2.28987758
Ti       4.48065171       2.69488178       4.62272268
Al       4.61628562       4.39145660       6.85222522
24
Lattice="8.879908540991462 0.22344642546311055 -0.008004745062120434 -2.831477337024674 5.042860352277133 0.007790643925410563 -0.008732349280303038 0.009503096290631815 9.154635881657201" Properties=species:S:1:pos:R:3 n_minim_iter=5 stress="0.018304925769893832 0.0010785474303999312 0.0006895425487359497 0.0010785474303999312 0.016322536067510936 2.7740161731361704e-06 0.0006895425487359497 2.7740161731361704e-06 0.015726681174056307" pbc="T T T"
Ti      -0.09005382      -0.00673742       0.00570533
Ti       0.10654043       1.72112632       2.28963431
Ti      -0.02094949      -0.00636784       4.57494142
Ti       0.05801482       1.69804570       6.85215293
Ti      -1.48733908       2.49418883       0.05773411
Al      -1.33857484       4.24386036       2.26747962
Ti      -1.47137944       2.53931168       4.53721811
Ti      -1.35069507       4.20018359       6.86354474
Ti       2.91536318       0.10838184       0.00660406
Ti       3.06320097       1.81028601       2.30801272
Ti       2.88236509       0.04718154       4.56548391
Ti       3.06208099       1.79465696       6.83527972
Ti       1.50913792       2.58934624       0.01001542
V        1.60235514       4.31661652       2.28503512
Ti       1.49829328       2.60462512       4.56854742
Ti       1.66982581       4.33937273       6.86948142
Al       5.84616236       0.14637055       0.05694379
Ti       5.98633367       1.89008988       2.28032911
Ti       5.85669872       0.12338811       4.57314246
Ti       6.03215455       1.81926587       6.86978843
Ti       4.44312397       2.67609008      -0.03966796
Ti       4.59464824       4.34929982       2.29191733
Ti       4.48964930       2.70247793       4.61589576
Al       4.62880763       4.39858066       6.84969910
24
Lattice="8.86289312934238 0.20611985456221163 -0.01911226954271164 -2.8361129404665246 5.058147912225137 0.01344818765454734 -0.02041906910108494 0.013355763535782657 9.154363103976461" Properties=species:S:1:pos:R:3 n_minim_iter=6 stress="0.017059738903482485 0.00011816720987831245 -0.0007984893344688126 0.00011816720987831245 0.01566957314726464 -7.501365723199792e-05 -0.0007984893344688126 -7.501365723199792e-05 0.01512813876683986" pbc="T T T"
Ti      -0.08854586      -0.00142673       0.00532145
Ti       0.10075940       1.72331684       2.29057783
Ti      -0.02519020       0.00038526       4.57609500
Ti       0.04623971       1.70309877       6.85220916
Ti      -1.49022876       2.50220355       0.06100011
Al      -1.34600470       4.25669751       2.26974523
Ti      -1.47942001       2.55028918       4.53934447
Ti      -1.36445950       4.21386555       6.86627411
Ti       2.90968618       0.10365120       0.00325450
Ti       3.05297286       1.80773780       2.30573332
Ti       2.87064199       0.04344505       4.56150439
Ti       3.04491762       1.79422136       6.83175596
Ti       1.50149212       2.59308338       0.00970077
V        1.58577740       4.31660151       2.28522857
Ti       1.48418371       2.61003470       4.56621589
Ti       1.64819082       4.34587923       6.86870242
Al       5.83512051       0.13555916       0.05155601
Ti       5.96887983       1.88154013       2.27444376
Ti       5.83753678       0.11308117       4.56282812
Ti       6.00856417       1.81150993       6.86186540
Ti       4.42854732       2.67254247      -0.04346745
Ti       4.57425155       4.34612964       2.28884729
Ti       4.46946735       2.70103746       4.61055862
Al       4.60203709       4.40099198       6.84607372
24
Lattice="8.851186458732535 0.19780547020662093 -0.01277817100134061 -2.837218402428131 5.066842442340351 0.010301185612317803 -0.013744646470974843 0.011359649134827605 9.155466017591639" Properties=species:S:1:pos:R:3 n_minim_iter=7 stress="0.016380801493153685 -0.0005715065857062864 0.0001689521462073911 -0.0005715065857062864 0.016300123957544443 -0.00039234661097860296 0.0001689521462073911 -0.00039234661097860296 0.015278859774846278" pbc="T T T"
Ti      -0.08783446       0.00126573       0.00500584
Ti       0.10090058       1.72371202       2.29073068
Ti      -0.02111228       0.00183121       4.57727133
Ti       0.04977476       1.70308520       6.85257704
Ti      -1.49102987       2.50686844       0.05954263
Al      -1.34600334       4.26293409       2.26762006
Ti      -1.47663221       2.55457494       4.53799836
Ti      -1.36136452       4.21860308       6.86500879
Ti       2.90583890       0.10153067       0.00538689
Ti       3.05010528       1.80566393       2.30820937
Ti       2.86996047       0.03978150       4.56406559
Ti       3.04470674       1.79151914       6.83431612
Ti       1.49718700       2.59565014       0.01036639
V        1.58020370       4.31654045       2.28555775
Ti       1.48289688       2.61142977       4.56677959
Ti       1.64647867       4.34722005       6.86974166
Al       5.82750949       0.13041184       0.05658837
Ti       5.96127212       1.87673891       2.27899526
Ti       5.83197160       0.10658076       4.56645339
Ti       6.00396774       1.80516492       6.86628398
Ti       4.41979409       2.67158062      -0.04066807
Ti       4.56582653       4.34466742       2.29192734
Ti       4.46423717       2.69919280       4.61369180
Al       4.59651526       4.40030784       6.84949289
24
Lattice="8.834484280851624 0.204567265673366 -0.01843393504636398 -2.828080830927506 5.0704374770611835 0.014855443813816075 -0.01970909709850436 0.01634483353263109 9.162676096034389" Properties=species:S:1:pos:R:3 n_minim_iter=8 stress="0.015874817697282592 -0.00032629027157576624 -0.0006720412261375252 -0.00032629027157576624 0.01680977911250303 0.0003644589110651231 -0.0006720412261375252 0.0003644589110651231 0.017005789376836427" pbc="T T T"
Ti      -0.08683464       0.00650810       0.00456798
Ti       0.10031104       1.72444901       2.29354418
Ti      -0.02289637       0.00917070       4.58211867
Ti       0.04695663       1.70794057       6.85883046
Ti      -1.48736326       2.50997222       0.06202834
Al      -1.34062865       4.26810110       2.27196127
Ti      -1.47500602       2.56149912       4.54352086
Ti      -1.35977699       4.22568252       6.87341239
Ti       2.90063494       0.10552109       0.00330748
Ti       3.04686363       1.80822476       2.30946153
Ti       2.86089587       0.04487291       4.56597838
Ti       3.03691495       1.79846314       6.83857273
Ti       1.49626114       2.60181618       0.01056036
V        1.57665691       4.31788332       2.28669096
Ti       1.47845314       2.61947463       4.57074360
Ti       1.64186681       4.35568390       6.87669354
Al       5.81636996       0.13578679       0.05405927
Ti       5.95072098       1.88220188       2.27829119
Ti       5.81515558       0.11481441       4.56535240
Ti       5.98875860       1.81245996       6.86837811
Ti       4.41304746       2.67829786      -0.04246676
Ti       4.55932531       4.35078188       2.29369637
Ti       4.45451375       2.70909611       4.61690771
Al       4.58577824       4.41208039       6.85437820
24
Lattice="8.81439017235874 0.22779296305784985 -0.011105311469865792 -2.8083838227786693 5.066786003046247 0.010887894226212969 -0.011898816145918251 0.013359696413965946 9.177379985497826" Properties=species:S:1:pos:R:3 n_minim_iter=9 stress="0.01621171954690084 0.0006960982532987476 0.00032633496290665774 0.0006960982532987476 0.01662925269690749 -8.663547235421167e-05 0.00032633496290665774 -8.663547235421167e-05 0.020694738484453287" pbc="T T T"
Ti      -0.08677315       0.01712328       0.00351484
Ti       0.10393761       1.71840461       2.29611727
Ti      -0.01820159       0.01724974       4.59181304
Ti       0.05850772       1.70583097       6.87038379
Ti      -1.48053917       2.51386367       0.05960909
Al      -1.32252779       4.26418193       2.27333714
Ti      -1.46176656       2.56737367       4.54892854
Ti      -1.34021217       4.22085651       6.88273704
Ti       2.89507378       0.11910085       0.00360047
Ti       3.05410647       1.80502372       2.31475957
Ti       2.85596420       0.05318557       4.57729909
Ti       3.04394415       1.80218322       6.85163778
Ti       1.49864217       2.61249329       0.00845363
V        1.58111305       4.31565463       2.28136084
Ti       1.48385543       2.62677604       4.58182992
Ti       1.65801264       4.35813457       6.88985716
Al       5.80212803       0.15361988       0.05901487
Ti       5.94732523       1.89056579       2.28548181
Ti       5.79873116       0.13455002       4.57995516
Ti       5.98244598       1.81916933       6.88462976
Ti       4.41095729       2.69333913      -0.04303686
Ti       4.56534321       4.35793729       2.29996235
Ti       4.45558380       2.72511568       4.63367987
Al       4.59104518       4.42244132       6.86672305
24
Lattice="8.810751937540237 0.22667937053227416 -0.01470471323582136 -2.8080303318414765 5.076411243355222 0.01399226108039701 -0.0157490370545168 0.016952410725681724 9.164624620036355" Properties=species:S:1:pos:R:3 n_minim_iter=10 stress="0.01588360427930441 0.00030471778098217095 -0.00024406548157029613 0.00030471778098217095 0.016454420454372117 0.0003747096954590903 -0.00024406548157029613 0.0003747096954590903 0.01773782514645705" pbc="T T T"
Ti      -0.08717512       0.02396518       0.00295059
Ti       0.10153053       1.71806511       2.29318119
Ti      -0.02015586       0.02496348       4.58680230
Ti       0.05633383       1.71070094       6.86185302
Ti      -1.48238627       2.52250987       0.06072859
Al      -1.32227483       4.27113739       2.27243575
Ti      -1.46394091       2.57986305       4.54456713
Ti      -1.34348004       4.22995476       6.87572041
Ti       2.89411310       0.12263478       0.00094219
Ti       3.05599336       1.80215149       2.31082774
Ti       2.85148035       0.05590629       4.57086246
Ti       3.04182537       1.80538088       6.84145180
Ti       1.49706388       2.61985751       0.00764449
V        1.57629509       4.31748429       2.27497621
Ti       1.47989252       2.63516985       4.57715699
Ti       1.65563383       4.36641038       6.88219819
Al       5.79930505       0.15448043       0.05670323
Ti       5.94617554       1.88879817       2.28005462
Ti       5.79003857       0.13968963       4.57227511
Ti       5.97545427       1.81925831       6.87382163
Ti       4.40940344       2.69861670      -0.04543939
Ti       4.56380848       4.36114242       2.29672821
Ti       4.45152848       2.73355350       4.62943180
Al       4.58516006       4.43067364       6.85642591
24
Lattice="8.814370635070315 0.22435060574496293 -0.013173904549085638 -2.8105895215937426 5.080247830069866 0.012657579750799036 -0.014142247867014776 0.015437643012094429 9.155285535176118" Properties=species:S:1:pos:R:3 n_minim_iter=11 stress="0.01608752575133243 -2.1018939902133104e-05 -6.633697672393476e-05 -2.1018939902133104e-05 0.01605835371145696 0.00011316630849911064 -6.633697672393476e-05 0.00011316630849911064 0.015630260792584203" pbc="T T T"
Ti      -0.08910581       0.02626326       0.00294571
Ti       0.10072211       1.71616049       2.29013997
Ti      -0.02107258       0.02625243       4.58226092
Ti       0.05772578       1.71016962       6.85477283
Ti      -1.48518105       2.52775119       0.05936773
Al      -1.32318088       4.27120078       2.26978150
Ti      -1.46504159       2.58527051       4.54028408
Ti      -1.34476870       4.23039841       6.86826227
Ti       2.89499341       0.12483609      -0.00018607
Ti       3.05930474       1.79813598       2.30831564
Ti       2.85245444       0.05545347       4.56787034
Ti       3.04538296       1.80292035       6.83440398
Ti       1.49628191       2.62210574       0.00677536
V        1.57602950       4.31771777       2.27078443
Ti       1.48001375       2.63680641       4.57323645
Ti       1.65887910       4.36627798       6.87525910
Al       5.80153630       0.15384082       0.05700208
Ti       5.95085023       1.88410878       2.27770845
Ti       5.79095504       0.14064262       4.57011057
Ti       5.97809149       1.81494293       6.86861662
Ti       4.41145164       2.70011770      -0.04615089
Ti       4.56660146       4.35966223       2.29424601
Ti       4.45365422       2.73506187       4.62649350
Al       4.58768897       4.42926845       6.84888857
24
Lattice="8.81014632351514 0.22610666863061324 -0.010317818809440334 -2.8083809640325508 5.087692459796934 0.009939369146007362 -0.011097590984425983 0.012180308571983028 9.145486822546342" Properties=species:S:1:pos:R:3 n_minim_iter=12 stress="0.016356107017441928 -0.0004765044966078529 0.0003001416355613884 -0.0004765044966078529 0.01570207599596201 -0.0003580185008389813 0.0003001416355613884 -0.0003580185008389813 0.013562804735127243" pbc="T T T"
Ti      -0.09530955       0.03153439       0.00354534
Ti       0.10109868       1.71150522       2.28639526
Ti      -0.02541876       0.03013220       4.57714475
Ti       0.06189665       1.70871332       6.84646276
Ti      -1.48807352       2.54049508       0.05608574
Al      -1.31973334       4.27015508       2.26642278
Ti      -1.46427311       2.59827588       4.53732044
Ti      -1.34323588       4.23074605       6.85989405
Ti       2.89185313       0.13345525      -0.00358008
Ti       3.06343014       1.79317506       2.30578145
Ti       2.84971789       0.05692427       4.56692723
Ti       3.05065531       1.79969616       6.82596283
Ti       1.49412592       2.62897993       0.00605162
V        1.57786527       4.31987961       2.26828868
Ti       1.47992866       2.64357765       4.56793486
Ti       1.66764198       4.36706500       6.86719713
Al       5.79897621       0.15713564       0.05834463
Ti       5.95573511       1.87691967       2.27528270
Ti       5.78415512       0.14766584       4.56861858
Ti       5.97759954       1.80982562       6.86487820
Ti       4.41154843       2.70842484      -0.04678897
Ti       4.56957968       4.35903402       2.29168516
Ti       4.45339842       2.74339878       4.62237278
Al       4.59116506       4.43017153       6.84024750
24
Lattice="8.790538903307297 0.2433903038409226 -0.013034796810952959 -2.792271548394424 5.087212519013774 0.011204469112841403 -0.013878315769809996 0.01286073196584528 9.15745377386336" Properties=species:S:1:pos:R:3 n_minim_iter=13 stress="0.01619773396955805 3.249680215134025e-05 1.0679866566687743e-05 3.249680215134025e-05 0.016047265335900784 1.3409032578667916e-05 1.0679866566687743e-05 1.3409032578667916e-05 0.016335288965222607" pbc="T T T"
Ti      -0.10314859       0.03298818       0.00543850
Ti       0.10651406       1.70920080       2.28983458
Ti      -0.03534393       0.03396591       4.58128752
Ti       0.06445854       1.70845721       6.85354468
Ti      -1.48297435       2.54763339       0.05472089
Al      -1.30742455       4.26650165       2.26966350
Ti      -1.45971170       2.60598098       4.54800767
Ti      -1.33571112       4.22987639       6.86976162
Ti       2.88185533       0.14548374      -0.00753358
Ti       3.05988123       1.80159607       2.30861801
Ti       2.83864865       0.06432091       4.57449758
Ti       3.04836827       1.80495070       6.83191857
Ti       1.49375161       2.63573044       0.00920287
V        1.58626203       4.32622355       2.28100761
Ti       1.47961189       2.65406024       4.56858880
Ti       1.67506398       4.37044688       6.87403421
Al       5.78690641       0.16946116       0.05841719
Ti       5.95204772       1.88246921       2.27692035
Ti       5.76744506       0.16280569       4.56953420
Ti       5.96865681       1.81995803       6.87308961
Ti       4.40643079       2.72305800      -0.04538499
Ti       4.56828036       4.36507434       2.29447687
Ti       4.44552635       2.75901776       4.61998776
Al       4.59199730       4.44026315       6.84783649
24
Lattice="8.773802629909932 0.25337783811458725 -0.013754350446282192 -2.7813559797142555 5.09379451217859 0.01109219568974457 -0.014576945118492415 0.012237716111698512 9.15791224902219" Properties=species:S:1:pos:R:3 n_minim_iter=14 stress="0.015542952694772858 4.6303643220949384e-05 -9.376043804040176e-05 4.6303643220949384e-05 0.01636315209747335 -5.283143978203763e-05 -9.376043804040176e-05 -5.283143978203763e-05 0.016322644797825487" pbc="T T T"
Ti      -0.10600394       0.03852333       0.00602955
Ti       0.11107039       1.70873870       2.29040044
Ti      -0.04074802       0.03933857       4.58103670
Ti       0.06832389       1.70898375       6.85392924
Ti      -1.47918013       2.55528962       0.05304109
Al      -1.29667165       4.27128778       2.26834582
Ti      -1.45603429       2.61472139       4.54944478
Ti      -1.32741121       4.23426725       6.87057159
Ti       2.87465289       0.15195969      -0.00697834
Ti       3.05831979       1.80543255       2.30815340
Ti       2.82795076       0.06854140       4.57604159
Ti       3.04728306       1.80980104       6.83256954
Ti       1.49117901       2.64685200       0.01108767
V        1.58636078       4.33412601       2.27641829
Ti       1.47788203       2.66353690       4.56681211
Ti       1.67724082       4.37604473       6.87408449
Al       5.77304806       0.17682943       0.05912789
Ti       5.94818349       1.88779920       2.27737276
Ti       5.75463892       0.17052445       4.56875452
Ti       5.96127880       1.82457339       6.87260317
Ti       4.39917759       2.73369182      -0.04570326
Ti       4.56566206       4.37116934       2.29467105
Ti       4.43793513       2.77153061       4.61881537
Al       4.58991677       4.44939125       6.84712875
24
Lattice="8.772095537938203 0.2593116937693657 -0.01350367850639825 -2.7774417245537544 5.093593131909262 0.011139955100345822 -0.014310319654900224 0.01246766329453043 9.156898058451771" Properties=species:S:1:pos:R:3 n_minim_iter=15 stress="0.01563129179373314 3.42236525360078e-05 -3.833895364313216e-05 3.42236525360078e-05 0.016145761127805764 -1.4024748527589844e-05 -3.833895364313216e-05 -1.4024748527589844e-05 0.015980728968641524" pbc="T T T"
Ti      -0.10924878       0.03947495       0.00700829
Ti       0.11618138       1.70856492       2.29083936
Ti      -0.04667155       0.04086934       4.57899293
Ti       0.07222755       1.70802814       6.85328526
Ti      -1.47793426       2.55750810       0.05138674
Al      -1.29041514       4.27075774       2.26718300
Ti      -1.45539196       2.61730544       4.55011058
Ti      -1.32194489       4.23395227       6.87056891
Ti       2.87184082       0.15479232      -0.00534005
Ti       3.05893220       1.80894012       2.30757871
Ti       2.82272989       0.07127283       4.57671399
Ti       3.05036657       1.81264497       6.83292689
Ti       1.48977884       2.65163621       0.01371680
V        1.58913205       4.34018262       2.27360005
Ti       1.47842058       2.66737511       4.56448037
Ti       1.68041217       4.37609095       6.87328076
Al       5.76867669       0.18068073       0.05966225
Ti       5.95315286       1.89093349       2.27824530
Ti       5.75504151       0.17379524       4.56825604
Ti       5.96531390       1.82724915       6.87179693
Ti       4.39801810       2.73725267      -0.04487000
Ti       4.56855913       4.37180321       2.29493062
Ti       4.43721052       2.77677864       4.61673048
Al       4.59527614       4.45050340       6.84636350
24
Lattice="8.773828602321355 0.26209594514142215 -0.01314681609532097 -2.7763928381267893 5.092064917354344 0.01115478328276185 -0.01394183446916008 0.012699249026387435 9.156317254207082" Properties=species:S:1:pos:R:3 n_minim_iter=16 stress="0.015868539686199258 1.3176812260787018e-05 3.450592837431606e-05 1.3176812260787018e-05 0.015890276262218977 2.6115595332000016e-05 3.450592837431606e-05 2.6115595332000016e-05 0.015827286739575664" pbc="T T T"
Ti      -0.11116403       0.03960719       0.00751325
Ti       0.11909963       1.70834395       2.29103672
Ti      -0.05004440       0.04125504       4.57784426
Ti       0.07479901       1.70706085       6.85280222
Ti      -1.47796418       2.55775400       0.05051827
Al      -1.28765327       4.26907242       2.26680687
Ti      -1.45552784       2.61801493       4.55033274
Ti      -1.31900928       4.23268853       6.87057011
Ti       2.87071408       0.15621158      -0.00479563
Ti       3.06020747       1.81050081       2.30744913
Ti       2.82065646       0.07266325       4.57710585
Ti       3.05316535       1.81377241       6.83311987
Ti       1.48907827       2.65324135       0.01476670
V        1.59103857       4.34274448       2.27311467
Ti       1.47900515       2.66878946       4.56348040
Ti       1.68263856       4.37514315       6.87292633
Al       5.76795018       0.18264740       0.05976162
Ti       5.95779361       1.89208188       2.27867441
Ti       5.75703027       0.17501767       4.56822075
Ti       5.96967150       1.82797808       6.87158695
Ti       4.39865133       2.73797891      -0.04453084
Ti       4.57153859       4.37098449       2.29501266
Ti       4.43819439       2.77828882       4.61621472
Al       4.59977541       4.44934035       6.84616744
24
Lattice="8.774773467337589 0.26861532025850204 -0.0130723102223222 -2.7729656026143235 5.090033358625471 0.011122462399570083 -0.013857906731615351 0.012674287148157862 9.155477225266202" Properties=species:S:1:pos:R:3 n_minim_iter=17 stress="0.016190833500388517 -3.539508237373342e-05 9.934625661413767e-05 -3.539508237373342e-05 0.015484869522712911 4.594902542290767e-05 9.934625661413767e-05 4.594902542290767e-05 0.015656254223766587" pbc="T T T"
Ti      -0.11437719       0.04082459       0.00810176
Ti       0.12485998       1.70847933       2.29125456
Ti      -0.05649868       0.04212004       4.57633552
Ti       0.08047288       1.70499459       6.85167437
Ti      -1.47797647       2.55802618       0.04919842
Al      -1.28166995       4.26647692       2.26642386
Ti      -1.45536683       2.62010178       4.55020135
Ti      -1.31171819       4.23092603       6.87052523
Ti       2.86667013       0.15988481      -0.00513780
Ti       3.06299383       1.81417254       2.30747258
Ti       2.81507861       0.07556453       4.57764209
Ti       3.05797595       1.81662815       6.83315415
Ti       1.48712597       2.65750241       0.01515375
V        1.59381316       4.34793601       2.27391538
Ti       1.47917950       2.67293040       4.56215927
Ti       1.68627382       4.37498167       6.87226234
Al       5.76483291       0.18788272       0.05921661
Ti       5.96543510       1.89552668       2.27866576
Ti       5.75759801       0.17715744       4.56767252
Ti       5.97648205       1.82925663       6.87082947
Ti       4.39902675       2.74016151      -0.04509743
Ti       4.57685718       4.37088736       2.29434933
Ti       4.43905973       2.78126346       4.61668043
Al       4.60736304       4.44780246       6.84585788
24