24
Lattice="7.942190309483926 0.05720573197507403 -0.06625784727044695 -2.6142852512441412 4.571635035986277 0.04940848058756857 -0.07500824605316364 0.05185233403087435 8.68899308889389" Properties=species:S:1:pos:R:3 n_minim_iter=1 energy=-34151.10063891516 free_energy=-34151.10063891516 pbc="T T T"
Ti      -0.05245323       0.00241048      -0.07807622
Ti       0.06435967       1.60497012       2.09574504
Ti      -0.08855786       0.04066511       4.42092448
Ti      -0.14441461       1.57053973       6.44870291
Ti      -1.32149812       2.31548245      -0.07828998
Al      -1.28542188       3.82774541       2.22916539
Ti      -1.45205830       2.37945159       4.37378559
Ti      -1.39500548       3.88542094       6.62070008
Ti       2.71708872      -0.03192283       0.09272389
Ti       2.72185462       1.47109720       2.16878590
Ti       2.55859690       0.00333072       4.49186253
Ti       2.62100377       1.56962389       6.49964140
Ti       1.34225733       2.24656070      -0.13725182
V        1.58829179       3.66306304       2.33924232
Ti       1.23308627       2.31500156       4.43696553
Ti       1.38711159       3.87077619       6.58257703
Al       5.27499100       0.03202485      -0.07319750
Ti       5.28140180       1.55535761       2.01888962
Ti       5.19208492       0.16872527       4.37590634
Ti       5.29430922       1.63565111       6.48589744
Ti       3.93966010       2.33558232      -0.16167331
Ti       4.02520871       3.85091257       2.09945950
Ti       3.85990005       2.48189035       4.34336320
Al       3.94737005       3.92259016       6.48076678
24
Lattice="7.9537216815089655 0.06274455895601326 -0.07338487833376543 -2.6150388048740116 4.584375373588158 0.048214510383430234 -0.0831654950451493 0.045506620698917026 8.649073824319501" Properties=species:S:1:pos:R:3 n_minim_iter=2 stress="-0.18184186002469185 6.840068099615219e-05 0.0005308936894530324 6.840068099615219e-05 -0.18193048580700197 0.0004345257252873595 0.0005308936894530324 0.0004345257252873595 -0.18290258161337417" pbc="T T T"
Ti      -0.05238350       0.00249026      -0.07790781
Ti       0.06380119       1.60878283       2.08465038
Ti      -0.09277912       0.03751343       4.40105770
Ti      -0.14955741       1.57065683       6.41800766
Ti      -1.32151302       2.32212531      -0.07873770
Al      -1.28676161       3.83752588       2.21720470
Ti      -1.45627729       2.38282160       4.35362562
Ti      -1.40072267       3.89189646       6.58868517
Ti       2.72093927      -0.03041189       0.08978111
Ti       2.72473289       1.47587568       2.15517790
Ti       2.55800694       0.00159642       4.46913246
Ti       2.61951670       1.57143436       6.46623813
Ti       1.34575113       2.25462365      -0.13979575
V        1.59039082       3.67419779       2.32425465
Ti       1.23234865       2.31989967       4.41376831
Ti       1.38555771       3.87893043       6.54825481
Al       5.28263218       0.03579984      -0.07794021
Ti       5.28803512       1.56196212       2.00348422
Ti       5.19567416       0.16940791       4.35082856
Ti       5.29737168       1.63986336       6.45000832
Ti       3.94683390       2.34578856      -0.16649858
Ti       4.03175062       3.86426696       2.08329766
Ti       3.86291682       2.48898042       4.31793511
Al       3.94957721       3.93291036       6.44437170
24
Lattice="7.945420059760468 0.0629026113186335 -0.09594999865184349 -2.612384671971115 4.584810920047189 0.04510676781697544 -0.1075582262663137 0.025520666277808444 8.657559828134616" Properties=species:S:1:pos:R:3 n_minim_iter=3 stress="-0.18166536434413325 0.00024926446002334127 -0.001109460043478851 0.00024926446002334127 -0.18134373158277378 -0.0024144583595451167 -0.001109460043478851 -0.0024144583595451167 -0.17983780512666936" pbc="T T T"
Ti      -0.05185044       0.00314014      -0.07928275
Ti       0.05963904       1.60585107       2.08144444
Ti      -0.10528722       0.02783143       4.40839545
Ti      -0.16755160       1.55554601       6.42108407
Ti      -1.31812516       2.32324900      -0.08265566
Al      -1.29168939       3.83368174       2.21353092
Ti      -1.46448474       2.37344014       4.35951512
Ti      -1.41916281       3.87707952       6.59006384
Ti       2.71832789      -0.03167819       0.08165050
Ti       2.71533820       1.47044895       2.14640540
Ti       2.54175447      -0.00951941       4.46834409
Ti       2.59668652       1.55626226       6.46214977
Ti       1.34422287       2.25504331      -0.15101255
V        1.57977639       3.66965650       2.31361788
Ti       1.21895832       2.31018413       4.40995409
Ti       1.36567680       3.86268589       6.54203856
Al       5.27719728       0.03682386      -0.09391062
Ti       5.27614448       1.55515725       1.98696732
Ti       5.17816182       0.15906172       4.33946391
Ti       5.27615260       1.62701871       6.43795001
Ti       3.94143294       2.34689504      -0.18427710
Ti       4.02232462       3.85980384       2.06655562
Ti       3.84522492       2.47826543       4.30525099
Al       3.92649952       3.91896695       6.43032967
24
Lattice="7.940281905473972 0.0518221949058921 -0.12095985221120382 -2.617061288717874 4.591985727421389 0.07116523110135922 -0.1351878178714687 0.05940658375951211 8.657538400563993" Properties=species:S:1:pos:R:3 n_minim_iter=4 stress="-0.18087442923601724 -0.001806300478794976 -0.0036079022469752637 -0.001806300478794976 -0.17790589868459764 0.001230268033598419 -0.0036079022469752637 0.001230268033598419 -0.17839611234037783" pbc="T T T"
Ti      -0.05032933       0.00483959      -0.08396932
Ti       0.05734994       1.62105667       2.08254897
Ti      -0.12010055       0.04705772       4.41946411
Ti      -0.18992932       1.58013147       6.42743477
Ti      -1.31354221       2.32908375      -0.07766715
Al      -1.30309117       3.84963314       2.23018010
Ti      -1.47113433       2.39590695       4.38425837
Ti      -1.45026491       3.90734665       6.60823421
Ti       2.71818412      -0.03893704       0.07067728
Ti       2.70330565       1.47396135       2.14380873
Ti       2.52254441       0.00186181       4.46745314
Ti       2.56569266       1.57747039       6.46175869
Ti       1.33881801       2.25374634      -0.15457032
V        1.55875924       3.68091536       2.32406702
Ti       1.20250862       2.32844884       4.41721000
Ti       1.33900590       3.88341683       6.55271955
Al       5.27425450       0.03277981      -0.11412515
Ti       5.26206973       1.54841709       1.97614542
Ti       5.16181062       0.16815631       4.32137710
Ti       5.25934527       1.65261614       6.42858116
Ti       3.92992212       2.34440049      -0.19216098
Ti       4.01049593       3.86484850       2.07399353
Ti       3.82070004       2.48789520       4.30119990
Al       3.89560380       3.94314604       6.43192042
24
Lattice="7.9557502338148405 0.06670858259296152 -0.09668644399574583 -2.6134217537051154 4.580228782242679 0.062373728591798794 -0.10870685984576008 0.057696830844280234 8.652948492220132" Properties=species:S:1:pos:R:3 n_minim_iter=5 stress="-0.1752502102595812 0.0012158471699417095 -0.0007043579098616196 0.0012158471699417095 -0.17908751401108886 0.001272305099216766 -0.0007043579098616196 0.001272305099216766 -0.178153677623637" pbc="T T T"
Ti      -0.04979993       0.00609086      -0.08704424
Ti       0.07078244       1.62208259       2.07853707
Ti      -0.10705267       0.04731268       4.42362663
Ti      -0.16727538       1.57527649       6.42364170
Ti      -1.30768615       2.32486249      -0.08701492
Al      -1.29153407       3.84247025       2.22322618
Ti      -1.44986827       2.39007740       4.38417546
Ti      -1.42916090       3.89777716       6.59908168
Ti       2.72494541      -0.03609475       0.07754133
Ti       2.71720463       1.47529591       2.15089163
Ti       2.53921435       0.00436607       4.47773490
Ti       2.58938607       1.57767370       6.46749545
Ti       1.34390045       2.25254202      -0.15584718
V        1.57156484       3.67905507       2.32826133
Ti       1.22392659       2.32724749       4.41993509
Ti       1.36941970       3.87552430       6.55298481
Al       5.28483855       0.04498662      -0.10014448
Ti       5.28029413       1.55034471       1.99096194
Ti       5.18634909       0.17649271       4.33377176
Ti       5.29823623       1.66285212       6.44189905
Ti       3.93766810       2.34942998      -0.18315327
Ti       4.03361934       3.86587310       2.08798848
Ti       3.84327341       2.48840379       4.30995163
Al       3.92882779       3.94423898       6.43936507
24
Lattice="7.945043802202842 0.06143650604369827 -0.08429935831854646 -2.6129719262556494 4.587933660206936 0.05503414392174385 -0.09504475801481047 0.051639735778267706 8.65294108462806" Properties=species:S:1:pos:R:3 n_minim_iter=6 stress="-0.17634481643462613 -0.0005632849789691859 -0.00034160562208019566 -0.0005632849789691859 -0.17623214838198287 0.001289048230832536 -0.00034160562208019566 0.001289048230832536 -0.17674654863569245" pbc="T T T"
Ti      -0.04974038       0.00651266      -0.08774799
Ti       0.07346882       1.62334623       2.07694625
Ti      -0.10007431       0.04455641       4.42475241
Ti      -0.15779319       1.57273173       6.42251929
Ti      -1.30670100       2.32914692      -0.09165785
Al      -1.28899626       3.84682886       2.21840685
Ti      -1.44138924       2.39132849       4.38163411
Ti      -1.42042885       3.89923128       6.59382477
Ti       2.72169924      -0.03846184       0.08153227
Ti       2.71585165       1.47374572       2.15406683
Ti       2.54235795      -0.00080781       4.48280840
Ti       2.59411421       1.57286953       6.47081637
Ti       1.34000958       2.25444621      -0.15641463
V        1.57031873       3.68144203       2.32864491
Ti       1.22787197       2.32638938       4.42066776
Ti       1.37543302       3.87436884       6.55238573
Al       5.27782516       0.04203546      -0.09236151
Ti       5.27525410       1.54639246       1.99816768
Ti       5.18625234       0.17005588       4.34165478
Ti       5.30102206       1.65742062       6.44907386
Ti       3.92987556       2.35003205      -0.17908867
Ti       4.02906307       3.86649162       2.09226765
Ti       3.84274747       2.48537885       4.31444441
Al       3.93056255       3.94202909       6.44267368
24
Lattice="7.936581487256586 0.06530764557549608 -0.07517923677562012 -2.607996847296249 4.590545268561131 0.04584986200462796 -0.0848639416697232 0.039936017162243695 8.654575865331953" Properties=species:S:1:pos:R:3 n_minim_iter=7 stress="-0.17789630004645413 0.0002799933444883922 0.0005429941591545839 0.0002799933444883922 -0.1745820248033416 -6.82322699499872e-05 0.0005429941591545839 -6.82322699499872e-05 -0.17595034491282963" pbc="T T T"
Ti      -0.04966477       0.00714920      -0.08858381
Ti       0.07666328       1.62233828       2.07450073
Ti      -0.09464376       0.03899655       4.42625309
Ti      -0.14754783       1.56484196       6.42111414
Ti      -1.30300018       2.33099448      -0.09721141
Al      -1.28349768       3.84581173       2.21259145
Ti      -1.43211974       2.38741859       4.37867647
Ti      -1.41066567       3.89339614       6.58739135
Ti       2.71889674      -0.03745052       0.08427436
Ti       2.71581736       1.47390035       2.15548859
Ti       2.54424603      -0.00556492       4.48782578
Ti       2.59843919       1.56550717       6.47325238
Ti       1.33896286       2.25665604      -0.15923968
V        1.57376330       3.68298244       2.32811495
Ti       1.23307879       2.32311853       4.42047330
Ti       1.38368103       3.86932989       6.54970806
Al       5.27254381       0.04541092      -0.08682147
Ti       5.27292217       1.54698997       2.00267916
Ti       5.18587912       0.16698848       4.34840718
Ti       5.30361116       1.65258305       6.45370126
Ti       3.92617138       2.35403789      -0.17784466
Ti       4.02833048       3.86846552       2.09272261
Ti       3.84447410       2.48272693       4.31732713
Al       3.93465965       3.93779524       6.44320771
24
Lattice="7.942239550319501 0.058810101367996644 -0.07320067674116817 -2.6136247108769766 4.590354517298964 0.04117054092053735 -0.08275696184062839 0.03235857690979246 8.652616573159612" Properties=species:S:1:pos:R:3 n_minim_iter=8 stress="-0.17637623112603165 -0.0010490671904962035 0.0007440222773477683 -0.0010490671904962035 -0.17548684017779478 -0.0010600332448370427 0.0007440222773477683 -0.0010600332448370427 -0.1762675453524844" pbc="T T T"
Ti      -0.04971321       0.00760298      -0.08896095
Ti       0.07570367       1.61960349       2.07224083
Ti      -0.09347917       0.03542085       4.42527160
Ti      -0.14592983       1.55829189       6.41806395
Ti      -1.30514633       2.33115639      -0.09991313
Al      -1.28717668       3.84233278       2.20884124
Ti      -1.43322537       2.38399236       4.37553430
Ti      -1.41378711       3.88712681       6.58158408
Ti       2.72077039      -0.03962068       0.08470567
Ti       2.71687919       1.46953678       2.15425069
Ti       2.54686934      -0.01135531       4.48801026
Ti       2.60003799       1.55601920       6.47118551
Ti       1.33774100       2.25418790      -0.16149784
V        1.57336833       3.67829025       2.32615839
Ti       1.23333262       2.31713594       4.41812938
Ti       1.38336722       3.86067185       6.54490791
Al       5.27653095       0.04156096      -0.08573808
Ti       5.27624037       1.54016412       2.00226410
Ti       5.19052113       0.15904806       4.34878759
Ti       5.30724984       1.64134757       6.45160445
Ti       3.92697028       2.34967482      -0.17873784
Ti       4.02792540       3.86109798       2.09006055
Ti       3.84623984       2.47412986       4.31594644
Al       3.93520373       3.92625886       6.43934925
24
Lattice="7.943460701188116 0.06313576542641915 -0.08254632081629316 -2.611540126626025 4.586274917368225 0.04421352769342294 -0.09293102346639287 0.03220155181704971 8.656513787002114" Properties=species:S:1:pos:R:3 n_minim_iter=9 stress="-0.176251582548818 0.00023500935351859835 -0.00044316384156709623 0.00023500935351859835 -0.17660870400684384 -0.0012041131680870939 -0.00044316384156709623 -0.0012041131680870939 -0.17548919221118442" pbc="T T T"
Ti      -0.04955669       0.00856772      -0.08981454
Ti       0.07278155       1.61808018       2.07199659
Ti      -0.09804191       0.03600553       4.42650670
Ti      -0.14844792       1.55692948       6.42068675
Ti      -1.30193514       2.32954102      -0.09914629
Al      -1.28853656       3.83700629       2.21286497
Ti      -1.43537942       2.38315395       4.37915942
Ti      -1.42101225       3.88517420       6.58446681
Ti       2.72045687      -0.03740013       0.08076917
Ti       2.71468376       1.47211451       2.15136459
Ti       2.54108693      -0.00889626       4.48805873
Ti       2.59178638       1.55359190       6.47110632
Ti       1.33846938       2.25234983      -0.16475086
V        1.57647408       3.67839890       2.32909698
Ti       1.22999133       2.31662966       4.41955841
Ti       1.37838612       3.86025395       6.54495562
Al       5.27820795       0.04546873      -0.09244618
Ti       5.27637012       1.54307553       1.99715626
Ti       5.18598888       0.16272889       4.34543961
Ti       5.29892685       1.64157372       6.44608512
Ti       3.92951787       2.34982280      -0.18260319
Ti       4.02570683       3.86024493       2.08624009
Ti       3.84324481       2.47359035       4.31597992
Al       3.92800041       3.92383365       6.43759617
24
Lattice="7.94387317818733 0.0619528622255786 -0.07905331475480873 -2.6123150098500725 4.58694388064016 0.04719504066460037 -0.08918597832338704 0.04004099396907322 8.655516051755104" Properties=species:S:1:pos:R:3 n_minim_iter=10 stress="-0.17557006705944558 0.00020500072085466624 0.00012432487716153146 0.00020500072085466624 -0.1762378974221972 -0.00012905196644729652 0.00012432487716153146 -0.00012905196644729652 -0.1754124029373515" pbc="T T T"
Ti      -0.04923669       0.00973402      -0.09170541
Ti       0.07335496       1.62019614       2.07131661
Ti      -0.09572947       0.04104920       4.42696408
Ti      -0.14117765       1.56167246       6.42047259
Ti      -1.29935836       2.33075762      -0.10024800
Al      -1.28876404       3.83794360       2.21657598
Ti      -1.43010881       2.38902214       4.38236392
Ti      -1.42088585       3.89241205       6.58542532
Ti       2.72033175      -0.03768522       0.08075555
Ti       2.71434737       1.47495609       2.15313008
Ti       2.54188968      -0.00438192       4.49071474
Ti       2.59123186       1.55590824       6.47376868
Ti       1.33699382       2.25094041      -0.16516749
V        1.57736764       3.68278965       2.33656354
Ti       1.23241498       2.32099906       4.42305095
Ti       1.38103249       3.86622036       6.54735600
Al       5.27917096       0.04612076      -0.09128803
Ti       5.27778456       1.54386537       2.00087693
Ti       5.18834833       0.16680363       4.34800247
Ti       5.30155638       1.64618448       6.44735607
Ti       3.92889539       2.34886959      -0.17866904
Ti       4.02513387       3.86097993       2.09213696
Ti       3.84432329       2.47513460       4.32191822
Al       3.92806017       3.92755125       6.44209334
24
Lattice="7.942860449522284 0.06070382378941072 -0.0802684680294063 -2.612707792307938 4.58880277213971 0.048846337277820215 -0.0905444662053142 0.042447217231594024 8.653939505422535" Properties=species:S:1:pos:R:3 n_minim_iter=11 stress="-0.17533581832539874 6.957017803007537e-05 1.1273165900036393e-05 6.957017803007537e-05 -0.1753962615569821 0.0001676129850629617 1.1273165900036393e-05 0.0001676129850629617 -0.17552995148784592" pbc="T T T"
Ti      -0.04881992       0.01031973      -0.09293577
Ti       0.07279743       1.62104114       2.07022174
Ti      -0.09628836       0.04281705       4.42652496
Ti      -0.13967317       1.56290058       6.41919492
Ti      -1.29794139       2.33229970      -0.10149077
Al      -1.28968580       3.83965196       2.21785717
Ti      -1.42852916       2.39203345       4.38381266
Ti      -1.42377111       3.89589480       6.58508630
Ti       2.71967949      -0.03806640       0.07968236
Ti       2.71243708       1.47599772       2.15252670
Ti       2.54030117      -0.00279485       4.49033793
Ti       2.58725528       1.55577072       6.47360509
Ti       1.33585154       2.25102539      -0.16640179
V        1.57498844       3.68598508       2.33867047
Ti       1.23174773       2.32314094       4.42338046
Ti       1.37895449       3.86886334       6.54663089
Al       5.27875727       0.04578774      -0.09268975
Ti       5.27665894       1.54402501       2.00036941
Ti       5.18730227       0.16780811       4.34696962
Ti       5.30004301       1.64725371       6.44493384
Ti       3.92807778       2.34873394      -0.17847914
Ti       4.02382896       3.86177462       2.09269917
Ti       3.84241162       2.47524229       4.32282517
Al       3.92498668       3.92912498       6.44141505
24
Lattice="7.939938791453618 0.057933162090023665 -0.08053647276405718 -2.6133521877374526 4.591330918639979 0.04987808739538288 -0.09084008850516266 0.044276762182426925 8.6540901292235" Properties=species:S:1:pos:R:3 n_minim_iter=12 stress="-0.17551983389616366 -0.00036471723954327034 9.889853995159704e-06 -0.00036471723954327034 -0.17473067649128374 0.00043221901279923744 9.889853995159704e-06 0.00043221901279923744 -0.17563013525790733" pbc="T T T"
Ti      -0.04788768       0.01083897      -0.09457541
Ti       0.07129216       1.62023032       2.06931663
Ti      -0.09626523       0.04411444       4.42507742
Ti      -0.13595680       1.56252199       6.41877590
Ti      -1.29699567       2.33417641      -0.10433302
Al      -1.29033923       3.84201890       2.21936194
Ti      -1.42582988       2.39529875       4.38514477
Ti      -1.42641190       3.89900547       6.58608074
Ti       2.71762646      -0.03827888       0.07890444
Ti       2.70869270       1.47690105       2.15261236
Ti       2.53916286      -0.00049170       4.48993648
Ti       2.58144465       1.55344098       6.47644101
Ti       1.33381512       2.25152994      -0.16717782
V        1.56981070       3.69004467       2.34117837
Ti       1.23126967       2.32535697       4.42434286
Ti       1.37540195       3.87138500       6.54719373
Al       5.27693402       0.04351508      -0.09311127
Ti       5.27428410       1.54467078       2.00121266
Ti       5.18598130       0.16816257       4.34829873
Ti       5.29781688       1.64552938       6.44404444
Ti       3.92755722       2.34751243      -0.17719829
Ti       4.02176332       3.86190053       2.09340905
Ti       3.84020070       2.47390165       4.32644795
Al       3.92162948       3.92923291       6.44253476
24
Lattice="7.93978006938623 0.0597701920759506 -0.08076700201873781 -2.6122509321600553 4.589319457892094 0.047305244753924704 -0.09101909619199275 0.039213387112131876 8.65687531104213" Properties=species:S:1:pos:R:3 n_minim_iter=13 stress="-0.1756140593893476 1.07567046910975e-05 -0.0001331544689689266 1.07567046910975e-05 -0.17562337556872176 -0.0002767165902598309 -0.0001331544689689266 -0.0002767165902598309 -0.175249383582485" pbc="T T T"
Ti      -0.04721276       0.01041147      -0.09449283
Ti       0.07092959       1.61743590       2.06935538
Ti      -0.09643339       0.04071691       4.42469837
Ti      -0.13630414       1.55702539       6.42020664
Ti      -1.29786443       2.33256294      -0.10612827
Al      -1.28839429       3.84050809       2.21709264
Ti      -1.42560912       2.39144179       4.38398094
Ti      -1.42494384       3.89284003       6.58640455
Ti       2.71680803      -0.03701160       0.07911282
Ti       2.70781206       1.47656922       2.15273304
Ti       2.53995540      -0.00115696       4.48973454
Ti       2.58034374       1.54975822       6.47928391
Ti       1.33441694       2.25270657      -0.16674025
V        1.56897795       3.68769678       2.33814514
Ti       1.23199682       2.32315430       4.42335169
Ti       1.37438209       3.86674339       6.54757895
Al       5.27650138       0.04305650      -0.09233549
Ti       5.27417880       1.54551842       2.00119964
Ti       5.18630870       0.16688986       4.34977117
Ti       5.29908119       1.64153381       6.44601804
Ti       3.93012068       2.34757449      -0.17841057
Ti       4.02267076       3.86098987       2.09115533
Ti       3.84127560       2.47164824       4.32682610
Al       3.92391923       3.92536561       6.44256356
24
Lattice="7.940410462825757 0.05975338761419327 -0.07778986396279913 -2.612449857809888 4.589814567152881 0.04770027704152616 -0.08780068450205514 0.04183133132850827 8.655227560782807" Properties=species:S:1:pos:R:3 n_minim_iter=14 stress="-0.1751291022485319 0.00017511836836886017 0.00022870841637387274 0.00017511836836886017 -0.17550564651162961 0.00016629681276129522 0.00022870841637387274 0.00016629681276129522 -0.17566266405895323" pbc="T T T"
Ti      -0.04652956       0.01055568      -0.09525875
Ti       0.07109394       1.61815606       2.06859979
Ti      -0.09451109       0.04163604       4.42329937
Ti      -0.13262026       1.55728602       6.41900219
Ti      -1.29788297       2.33231676      -0.10704660
Al      -1.28691778       3.84167451       2.21699117
Ti      -1.42272548       2.39359202       4.38316634
Ti      -1.42230301       3.89478642       6.58500384
Ti       2.71630541      -0.03625599       0.07955642
Ti       2.70746821       1.47936427       2.15392938
Ti       2.54188593       0.00167698       4.49010122
Ti       2.58033465       1.55084412       6.48126047
Ti       1.33390651       2.25380133      -0.16495198
V        1.56993424       3.68898108       2.33991190
Ti       1.23432457       2.32576283       4.42331781
Ti       1.37567754       3.86897857       6.54808584
Al       5.27704063       0.04219841      -0.08996978
Ti       5.27520392       1.54679379       2.00359210
Ti       5.18887072       0.16831225       4.35101511
Ti       5.30326496       1.64280435       6.44778156
Ti       3.93198396       2.34746993      -0.17643270
Ti       4.02195375       3.86229122       2.09350428
Ti       3.84345633       2.47256791       4.32928564
Al       3.92656196       3.92674045       6.44426758
24
Lattice="7.938859156974907 0.05860598771588441 -0.08002695904507263 -2.6126185205377896 4.590503349564931 0.047705104503290074 -0.0902216012238958 0.04045443876365364 8.656360873570875" Properties=species:S:1:pos:R:3 n_minim_iter=15 stress="-0.1753552908068882 2.4808894974565984e-05 -9.974919740921058e-05 2.4808894974565984e-05 -0.17538102545263679 -8.036290634286864e-05 -9.974919740921058e-05 -8.036290634286864e-05 -0.17527520760443" pbc="T T T"
Ti      -0.04610142       0.01067918      -0.09578741
Ti       0.07027581       1.61854255       2.06784325
Ti      -0.09552471       0.04070194       4.42441121
Ti      -0.13436044       1.55531516       6.41922049
Ti      -1.29764209       2.33238570      -0.10732585
Al      -1.28762701       3.84195375       2.21644123
Ti      -1.42313924       2.39354864       4.38398823
Ti      -1.42424128       3.89371791       6.58476923
Ti       2.71555916      -0.03630185       0.07838608
Ti       2.70574183       1.47960612       2.15335889
Ti       2.53996633       0.00110543       4.49071553
Ti       2.57633099       1.54944093       6.48188201
Ti       1.33301147       2.25440716      -0.16536517
V        1.56821753       3.68863300       2.33960965
Ti       1.23274212       2.32557674       4.42320919
Ti       1.37255614       3.86755396       6.54802680
Al       5.27612724       0.04120614      -0.09142696
Ti       5.27297165       1.54545894       2.00223466
Ti       5.18699671       0.16658119       4.34987287
Ti       5.30141938       1.64109121       6.44744918
Ti       3.93128009       2.34706665      -0.17846427
Ti       4.01919069       3.86187797       2.09248309
Ti       3.84103485       2.47118369       4.32844521
Al       3.92303759       3.92478963       6.44340364
24
Lattice="7.9383443281673065 0.0578783716859996 -0.07887866950332237 -2.6128640767225404 4.591125735504302 0.047842453171450035 -0.08897383805599937 0.04144204906695462 8.656181299402087" Properties=species:S:1:pos:R:3 n_minim_iter=16 stress="-0.17556543436318828 -0.00012327852216585149 6.591959272889548e-05 -0.00012327852216585149 -0.1753304484333047 7.524035338593897e-05 6.591959272889548e-05 7.524035338593897e-05 -0.17541339746710136" pbc="T T T"
Ti      -0.04607523       0.01046994      -0.09577281
Ti       0.07000571       1.61881849       2.06793506
Ti      -0.09465313       0.04098587       4.42384566
Ti      -0.13361072       1.55596030       6.41898827
Ti      -1.29801495       2.33251067      -0.10649947
Al      -1.28786650       3.84262859       2.21657029
Ti      -1.42300198       2.39425650       4.38316230
Ti      -1.42283520       3.89442339       6.58475883
Ti       2.71532321      -0.03591440       0.07867536
Ti       2.70602949       1.47985176       2.15391672
Ti       2.54060519       0.00173717       4.49084275
Ti       2.57689628       1.55038218       6.48226735
Ti       1.33276700       2.25480457      -0.16400855
V        1.56795018       3.68920145       2.34008368
Ti       1.23292600       2.32618122       4.42371193
Ti       1.37305315       3.86874766       6.54857971
Al       5.27581941       0.04045776      -0.09051381
Ti       5.27250644       1.54575519       2.00313129
Ti       5.18753491       0.16647630       4.35068052
Ti       5.30161101       1.64103475       6.44831369
Ti       3.93114327       2.34670142      -0.17750630
Ti       4.01894494       3.86230117       2.09338214
Ti       3.84154716       2.47166859       4.32906053
Al       3.92318697       3.92500245       6.44425032
24
Lattice="7.938747136385251 0.05809628910746726 -0.07964834153943612 -2.612874101877375 4.5909249735977555 0.04789887774485953 -0.08981707764314412 0.04106693665972022 8.655999608562196" Properties=species:S:1:pos:R:3 n_minim_iter=17 stress="-0.17532484811629853 -1.3586905319183916e-05 -3.5342228100208136e-05 -1.3586905319183916e-05 -0.17531906818421403 -3.552981151885016e-06 -3.5342228100208136e-05 -3.552981151885016e-06 -0.1754280876635863" pbc="T T T"
Ti      -0.04579499       0.01036319      -0.09649408
Ti       0.06974410       1.61907820       2.06712771
Ti      -0.09465966       0.04059567       4.42401922
Ti      -0.13408531       1.55491628       6.41847701
Ti      -1.29751847       2.33247695      -0.10620286
Al      -1.28855242       3.84262235       2.21619312
Ti      -1.42280621       2.39404108       4.38278684
Ti      -1.42308922       3.89296688       6.58409972
Ti       2.71546713      -0.03496443       0.07792713
Ti       2.70610606       1.48001602       2.15368179
Ti       2.54021978       0.00211252       4.49108013
Ti       2.57527430       1.55024269       6.48215048
Ti       1.33277799       2.25540340      -0.16352739
V        1.56723650       3.68949938       2.34003599
Ti       1.23252183       2.32625375       4.42394341
Ti       1.37254554       3.86831195       6.54824709
Al       5.27635085       0.04055637      -0.09111332
Ti       5.27189144       1.54562320       2.00254214
Ti       5.18794869       0.16618885       4.35010254
Ti       5.30173977       1.64057366       6.44766953
Ti       3.93145200       2.34656542      -0.17814830
Ti       4.01917031       3.86255772       2.09325258
Ti       3.84158215       2.47124390       4.32837193
Al       3.92234058       3.92384825       6.44337847
24