24
Lattice="9.026502704685951 0.27872172067688844 -0.014424315270791178 -2.8521439706484597 5.263112744820337 0.011303099303270135 -0.01556798091005252 0.01255757690586585 9.221778315114275" Properties=species:S:1:pos:R:3 n_minim_iter=14 stress="0.041902433398403605 -3.409790751244366e-05 -7.564211830349609e-05 -3.409790751244366e-05 0.04195746109283515 2.042768458833923e-05 -7.564211830349609e-05 2.042768458833923e-05 0.042007529553130946" pbc="T T T"
Ti      -0.10568011       0.07819050       0.00737007
Ti       0.12154834       1.74260911       2.31305032
Ti      -0.02954161       0.05887669       4.61240026
Ti       0.08850151       1.76068291       6.89836842
Ti      -1.52599010       2.63237707       0.05020192
Al      -1.29291809       4.40098745       2.27851564
Ti      -1.49320006       2.71499874       4.58495393
Ti      -1.34416115       4.38075570       6.91727936
Ti       2.94565312       0.19865823      -0.01497497
Ti       3.16011398       1.87081232       2.32543593
Ti       2.90399445       0.10656272       4.61157407
Ti       3.13440808       1.90192606       6.87884621
Ti       1.52806921       2.76156988       0.02358851
V        1.62318302       4.48482153       2.28523675
Ti       1.50768003       2.78266121       4.58000464
Ti       1.72500698       4.52797803       6.92386852
Al       5.93845268       0.20018750       0.08257575
Ti       6.14216518       1.97547469       2.30450665
Ti       5.89220934       0.16038791       4.57695652
Ti       6.14187958       1.85802214       6.91378517
Ti       4.51764572       2.82214940      -0.03979004
Ti       4.71922301       4.50246600       2.31758371
Ti       4.55592898       2.83832134       4.65121857
Al       4.73161722       4.58408136       6.89185294
