24
Lattice="8.921140259759193 0.3017939640951996 -0.013765802797111771 -2.8034601818422114 5.200331315233675 0.01114223232619125 -0.01468167640569535 0.012466362842947273 9.219846758111975" Properties=species:S:1:pos:R:3 n_minim_iter=15 stress="0.02828063820220725 -1.542143927508285e-06 8.537897814847107e-06 -1.542143927508285e-06 0.028271009482537784 5.021686623546686e-06 8.537897814847107e-06 5.021686623546686e-06 0.028269239255937953" pbc="T T T"
Ti      -0.11227274       0.06386755       0.00629552
Ti       0.13522753       1.73283653       2.30957272
Ti      -0.05155376       0.05583257       4.61150995
Ti       0.09493666       1.73895059       6.89921616
Ti      -1.50589094       2.60929351       0.05114333
Al      -1.27308231       4.35339700       2.27991889
Ti      -1.46993309       2.69025474       4.58282144
Ti      -1.31263056       4.32724065       6.91767444
Ti       2.90628254       0.19772539      -0.01064141
Ti       3.12928318       1.86696281       2.32436843
Ti       2.85586253       0.10357141       4.61075531
Ti       3.11527300       1.88393382       6.87908699
Ti       1.51146578       2.73990312       0.01848251
V        1.62157158       4.44821043       2.28722278
Ti       1.49856598       2.75725106       4.58778808
Ti       1.72613727       4.49033423       6.92184805
Al       5.86390014       0.21205524       0.07237790
Ti       6.08115966       1.95476722       2.30062455
Ti       5.83020093       0.17572937       4.58531957
Ti       6.08434516       1.86333067       6.91278809
Ti       4.47530324       2.80909640      -0.04398545
Ti       4.67706805       4.47078402       2.31372626
Ti       4.51642958       2.83833522       4.65181798
Al       4.69957194       4.54860047       6.89183019
