24
Lattice="8.558991724104365 0.10194872171146387 -0.011763533582975742 -2.794137119444467 4.899662980206405 0.012555137638598288 -0.012421821587153745 0.01579130926453119 9.143391709495132" Properties=species:S:1:pos:R:3 n_minim_iter=1 stress="-6.876269149835341e-05 -3.096802340639084e-05 -4.465877127930446e-06 -3.096802340639084e-05 -4.1377595341027616e-05 -1.3888188932007995e-05 -4.465877127930446e-06 -1.3888188932007995e-05 -2.6924886004804504e-06" pbc="T T T"
Ti      -0.08720750      -0.02381663       0.00285024
Ti       0.05957120       1.65715623       2.28674184
Ti      -0.01326283      -0.02146868       4.56436522
Ti       0.02355248       1.64333124       6.84753610
Ti      -1.45252801       2.42966899       0.05522528
Al      -1.36254300       4.09684442       2.27850747
Ti      -1.44319747       2.47167118       4.54253378
Ti      -1.36992901       4.06704928       6.86634990
Ti       2.81782262       0.06673013      -0.00003759
Ti       2.90284073       1.70559621       2.29792769
Ti       2.79471851       0.02193862       4.56444911
Ti       2.91677397       1.69642694       6.83067567
Ti       1.42558020       2.47058888       0.00698260
V        1.44870185       4.15072527       2.28602282
Ti       1.42334599       2.49149507       4.57693192
Ti       1.55910681       4.17019129       6.86504031
Al       5.63473550       0.06335482       0.04249548
Ti       5.72783889       1.74483741       2.26422254
Ti       5.68725210       0.06973625       4.57595727
Ti       5.78109816       1.68634079       6.87040955
Ti       4.27438462       2.53358713      -0.04438832
Ti       4.36454137       4.15809595       2.27902931
Ti       4.31678473       2.56124757       4.61088686
Al       4.40075628       4.17895424       6.83556873
