24
Lattice="9.354678254009135 0.05257321409857714 -0.00472993482698972 -3.091106861570473 5.433729043744206 0.019315844164072796 -0.006471808359473426 0.031747903575215106 9.511681514873905" Properties=species:S:1:pos:R:3 n_minim_iter=16 stress="0.08183200299157008 -9.560541016318818e-07 -1.22498195594104e-06 -9.560541016318818e-07 0.08183582956340238 -1.6936239775302778e-06 -1.22498195594104e-06 -1.6936239775302778e-06 0.08183156177939058" pbc="T T T"
Ti      -0.04528746       0.05914947       0.02124021
Ti      -0.00249541       1.78364581       2.39512659
Ti       0.06347087       0.10185730       4.71804450
Ti       0.03545465       1.81494593       7.09928692
Ti      -1.52900441       2.66830179       0.06081551
Al      -1.49904112       4.53829066       2.35493156
Ti      -1.56110303       2.67329005       4.70189436
Ti      -1.51912854       4.55468888       7.12763467
Ti       3.09989785       0.11151276      -0.02785465
Ti       3.17549624       1.81963924       2.39531932
Ti       3.10072060       0.10446981       4.74224057
Ti       3.16360132       1.85846452       7.06988290
Ti       1.55960672       2.72673777       0.06809763
V        1.43043002       4.55546956       2.39763446
Ti       1.59886238       2.70019929       4.68930663
Ti       1.64192923       4.59819502       7.16267194
Al       6.18906279       0.04313698       0.16185792
Ti       6.22693172       1.94705452       2.40648232
Ti       6.19010268       0.10461000       4.73134306
Ti       6.25758436       1.78650710       7.15354830
Ti       4.62247995       2.77106974       0.00591557
Ti       4.74436095       4.50454042       2.43863143
Ti       4.65418387       2.70694935       4.77778287
Al       4.74288061       4.58098969       7.10231140
