8
Lattice="-2.9662512164013357 3.3213243264439125 3.2027075480850646 2.706570388652169 -3.4619914237628593 3.0671367291629745 3.1412806627752463 3.5988126128235614 -3.3201852214183987" Properties=species:S:1:pos:R:3:forces:R:3 cutoff=-1.0 nneightol=1.2 n_minim_iter=35 energy=-1302.206407675581 stress="-0.10996040103829227 1.8370074161756138e-05 2.1198278620835004e-05 1.8370074161756138e-05 -0.10994533500984738 0.00014009394503451065 2.1198278620835004e-05 0.00014009394503451065 -0.10970577421923348" free_energy=-1302.206407675581 pbc="T T T"
Si       2.59187157       0.78253863      -0.71889385       0.00083942       0.00112110      -0.00140561
Si       3.52929095      -0.96438881       0.49179196       0.00205353       0.00677630       0.00252032
Si       0.99172091       1.49050866       0.77229621       0.00568615       0.00052478       0.00197312
Si       0.70249156      -0.48427606       1.85955372       0.00131510      -0.00353274      -0.00477741
Si      -1.02893983       2.66367742       0.83435508      -0.00305892       0.00082253       0.00074530
Si       0.75218392       3.54806915      -0.55747836      -0.00361521      -0.00134453      -0.00173124
Si      -1.40293146       1.15691767       3.75766207       0.00133000       0.00248801       0.00327224
Si       2.50911060       2.18138930       2.40968971      -0.00455007      -0.00685545      -0.00059672
