8
Lattice="-3.0378737925694743 3.341983821513564 3.228276513643359 2.763228825519071 -3.4910245801405337 3.0913477005010144 3.187024852988605 3.6040941853074013 -3.356836622529387" Properties=species:S:1:pos:R:3:forces:R:3 cutoff=-1.0 nneightol=1.2 n_minim_iter=21 energy=-1302.565471147704 stress="-0.08322377637831505 4.819812419450669e-05 -6.509915078423341e-05 4.819812419450669e-05 -0.0832451747974582 9.498928721731534e-05 -6.509915078423341e-05 9.498928721731534e-05 -0.08300727560280569" free_energy=-1302.565471147704 pbc="T T T"
Si       2.62531417       0.76446717      -0.75077430      -0.00275063       0.00120173      -0.00592111
Si       3.57487948      -0.96885089       0.48575828      -0.00055702      -0.00341905       0.00240023
Si       1.03597587       1.49709051       0.76618543       0.00210831       0.00031231       0.00529775
Si       0.70513443      -0.48061377       1.87862782       0.00622971      -0.00034204       0.00481350
Si      -1.03132789       2.62811656       0.81969702      -0.00280699       0.00674929       0.00008685
Si       0.75531444       3.57407199      -0.57741441       0.00047746      -0.00447602      -0.00846256
Si      -1.45669929       1.18058083       3.80474755      -0.00327307       0.00191319       0.00507281
Si       2.52854715       2.17029729       2.46153477       0.00057222      -0.00193942      -0.00328748
