8
Lattice="-3.1862875487455717 3.4431858384369205 3.198552245377721 2.993025814946089 -3.715217334974036 3.2757092608599843 3.1555660081202017 3.679328631505328 -3.467561541057994" Properties=species:S:1:pos:R:3:forces:R:3 cutoff=-1.0 nneightol=1.2 n_minim_iter=26 energy=-1303.201247498838 stress="-0.012069666861072465 1.109265498871315e-05 7.523551390214676e-05 1.109265498871315e-05 -0.01205813101921772 -8.671859693585191e-05 7.523551390214676e-05 -8.671859693585191e-05 -0.012167565747215005" free_energy=-1303.201247498838 pbc="T T T"
Si       2.63761071       0.75591888      -0.76807119      -0.00138827      -0.00185842      -0.00108355
Si       3.68238351      -0.90735257       0.51118659       0.00359270      -0.00215047      -0.00292214
Si       1.03787114       1.32846707       0.86252915      -0.00082577       0.00233734       0.00002750
Si       0.79741947      -0.69206192       1.98802887      -0.00586903       0.00449088       0.00381655
Si      -0.98382883       2.64690288       0.73004529      -0.00209661      -0.00124153      -0.00539933
Si       0.60538832       3.78076282      -0.66635770      -0.00109377       0.00019137       0.00246388
Si      -1.45312515       1.15053896       3.78239670       0.00348701      -0.00188976       0.00354288
Si       2.56319230       2.15871473       2.58034154       0.00419374       0.00012059      -0.00044581
