8
Lattice="-2.9368804633466508 3.28843776711707 3.1709954894498886 2.679770901787847 -3.4277120294140095 3.0367670440334424 3.1101768310728994 3.563178464253515 -3.2873099410999633" Properties=species:S:1:pos:R:3:forces:R:3 cutoff=-1.0 nneightol=1.2 n_minim_iter=1 energy=-1301.72669793325 stress="-0.1481187019503963 -0.00031537406048554154 0.0013507428311744412 -0.00031537406048554154 -0.14940114721250117 -0.001999130316820984 0.0013507428311744412 -0.001999130316820984 -0.1495401327215304" free_energy=-1301.72669793325 pbc="T T T"
Si       2.56620779       0.77479021      -0.71177562       0.02878985       0.08545104      -0.00115947
Si       3.49434518      -0.95483978       0.48692242       0.06804384      -0.14715697      -0.02013990
Si       0.98190124       1.47575018       0.76464921      -0.08397041       0.02365839      -0.04067712
Si       0.69553575      -0.47948094       1.84114109       0.04117401       0.05645409       0.05927503
Si      -1.01875164       2.63730264       0.82609359      -0.06221035       0.02219153      -0.00089191
Si       0.74473607       3.51293744      -0.55195841      -0.11854569      -0.09326015       0.16180345
Si      -1.38904014       1.14546229       3.72045506       0.12488613      -0.09214328      -0.06734448
Si       2.48426629       2.15978996       2.38582982       0.00183262       0.14480534      -0.09086559
8
Lattice="-2.937580603950383 3.2961436572488907 3.185067757823679 2.671021958836886 -3.4212547594726086 3.0265227791108438 3.113357201030972 3.5582980880278736 -3.285919471491512" Properties=species:S:1:pos:R:3:forces:R:3 cutoff=-1.0 nneightol=1.2 n_minim_iter=2 energy=-1301.728846863507 stress="-0.14681011206334685 -0.0006891404056827619 -0.0005433660762289721 -0.0006891404056827619 -0.14901860513551698 0.0018915400690059842 -0.0005433660762289721 0.0018915400690059842 -0.14761373630543753" free_energy=-1301.728846863507 pbc="T T T"
Si       2.56520404       0.77522272      -0.71442351      -0.02946980       0.07974069      -0.03789266
Si       3.49025400      -0.95425772       0.47938007       0.10822558      -0.13151975       0.07843226
Si       0.97943867       1.47874303       0.76660538      -0.03675571       0.02528135      -0.06952823
Si       0.69215954      -0.47466308       1.84062177      -0.00198821      -0.02996132      -0.01158611
Si      -1.01861018       2.64021437       0.83425445      -0.05181987       0.06008444       0.07294962
Si       0.74497886       3.51261478      -0.54382871      -0.04864519      -0.10029450       0.07506598
Si      -1.39180483       1.15318067       3.72686985       0.08179910      -0.03537237       0.00677700
Si       2.47877430       2.16850560       2.38753328      -0.02134590       0.13204145      -0.11421785
8
Lattice="-2.926313241675381 3.2983762830882686 3.1873071253251313 2.65451525598202 -3.4274721728564352 3.0269355682196006 3.112939111082538 3.5745186623523795 -3.2918895181605072" Properties=species:S:1:pos:R:3:forces:R:3 cutoff=-1.0 nneightol=1.2 n_minim_iter=3 energy=-1301.731480179936 stress="-0.14771663510177113 0.0003137024633383807 -0.0008487687849067991 0.0003137024633383807 -0.14515070097380606 0.0006016693764170628 -0.0008487687849067991 0.0006016693764170628 -0.14651794351733946" free_energy=-1301.731480179936 pbc="T T T"
Si       2.55935303       0.78396811      -0.71802769       0.03395195       0.05298272      -0.06051067
Si       3.48002895      -0.95483887       0.47767031       0.07564144      -0.05038573       0.09939648
Si       0.97674253       1.48448617       0.76377254      -0.03288879      -0.06586577      -0.01454373
Si       0.68800520      -0.47551540       1.84142235       0.00168203       0.02812767      -0.08519269
Si      -1.01342476       2.64619724       0.83519689      -0.09314166       0.07959171       0.11396048
Si       0.74698584       3.52090945      -0.54362581      -0.04793617      -0.06141924       0.03510603
Si      -1.38665127       1.15045913       3.72829436       0.04665381      -0.07304598       0.05765202
Si       2.47238260       2.18060189       2.38235597       0.01603740       0.09001463      -0.14586792
8
Lattice="-2.9204476740414593 3.2924166015987857 3.1872935481350133 2.6499142168283463 -3.4256368669212787 3.0321570285904946 3.1142969861526493 3.5790146584043936 -3.29622402770109" Properties=species:S:1:pos:R:3:forces:R:3 cutoff=-1.0 nneightol=1.2 n_minim_iter=4 energy=-1301.734521681734 stress="-0.14528406417835396 -5.5616526953909663e-05 0.0007283015232616282 -5.5616526953909663e-05 -0.14429562095038148 -2.2971709828070255e-05 0.0007283015232616282 -2.2971709828070255e-05 -0.1446023893888784" free_energy=-1301.734521681734 pbc="T T T"
Si       2.55928670       0.79049647      -0.72028284       0.06909999      -0.03341683      -0.00012839
Si       3.48108428      -0.95633860       0.48202668       0.04084157       0.03406355       0.06752347
Si       0.97542385       1.48415009       0.76177811      -0.01519913      -0.07232827       0.02687596
Si       0.68815043      -0.47475548       1.84257795      -0.06447449      -0.00387851      -0.06111630
Si      -1.01332991       2.64664549       0.83722977      -0.10326340       0.10453670       0.07376830
Si       0.74667482       3.51705633      -0.54175971       0.04253836       0.03101219      -0.01341515
Si      -1.37984193       1.14297191       3.73047003       0.02762865      -0.05904468       0.02226293
Si       2.47384108       2.18715636       2.37763905       0.00282844      -0.00094415      -0.11577081
8
Lattice="-2.9205465874825918 3.2855256040321303 3.192489227475743 2.636067421940735 -3.423895981287388 3.029868214938626 3.1261813164565595 3.587292907668159 -3.307028505637505" Properties=species:S:1:pos:R:3:forces:R:3 cutoff=-1.0 nneightol=1.2 n_minim_iter=5 energy=-1301.735769363313 stress="-0.14145699287526348 -7.587075767330808e-05 -0.0009378050788299984 -7.587075767330808e-05 -0.14291615149565737 -0.0012922730757886967 -0.0009378050788299984 -0.0012922730757886967 -0.14388624409761844" free_energy=-1301.735769363313 pbc="T T T"
Si       2.56284266       0.79807075      -0.72821074       0.09024696      -0.01535829       0.06647976
Si       3.48122843      -0.95522559       0.47869624       0.03522083       0.05399922       0.01326863
Si       0.97313820       1.48387558       0.75739563      -0.00637372      -0.08675402       0.00991126
Si       0.68217714      -0.47440470       1.84047598      -0.11144816      -0.02728928      -0.08969287
Si      -1.01531952       2.64918898       0.84197315      -0.10376711       0.06650108       0.03238181
Si       0.75114294       3.51605472      -0.54233528       0.11251333       0.09989499      -0.01096918
Si      -1.38115043       1.13383570       3.73419652       0.00253846      -0.05707303       0.05079011
Si       2.47104576       2.19537155       2.36379471      -0.01893058      -0.03392066      -0.07216952
8
Lattice="-2.914252911224809 3.2846661946237066 3.19751755395444 2.628089482544618 -3.4215564961373146 3.031116330536809 3.126605562532001 3.590773720311905 -3.310250814347403" Properties=species:S:1:pos:R:3:forces:R:3 cutoff=-1.0 nneightol=1.2 n_minim_iter=6 energy=-1301.73606905524 stress="-0.14042422895771273 -0.0001727957657920967 -0.0007216474575844208 -0.0001727957657920967 -0.1422950411508064 -0.0008526921682804307 -0.0007216474575844208 -0.0008526921682804307 -0.14185247372955032" free_energy=-1301.73606905524 pbc="T T T"
Si       2.56182621       0.80211396      -0.72985230       0.08996803      -0.04274463       0.06931070
Si       3.47805790      -0.95398233       0.47983223       0.02660982       0.08594966       0.02449225
Si       0.97164712       1.48433838       0.75754022       0.00569634      -0.07960928       0.01794646
Si       0.67921484      -0.47321069       1.84063971      -0.10282262      -0.05074730      -0.07047241
Si      -1.01477686       2.65209216       0.84630223      -0.10828923       0.08775131       0.01487431
Si       0.75321903       3.51671926      -0.54002802       0.13339626       0.10984812      -0.04810738
Si      -1.37692764       1.13142287       3.73907835      -0.01282613      -0.04422519       0.05156777
Si       2.46906453       2.20215604       2.36163618      -0.03173247      -0.06622268      -0.05961170
8
Lattice="-2.8920176153461905 3.2902124344204333 3.207291206993483 2.6046395277901655 -3.4187542818771934 3.0286471602880387 3.126188294527667 3.6070312640718107 -3.3095880791478955" Properties=species:S:1:pos:R:3:forces:R:3 cutoff=-1.0 nneightol=1.2 n_minim_iter=7 energy=-1301.738033731156 stress="-0.13856383857854668 -0.00038381109045503226 0.0001898982487097263 -0.00038381109045503226 -0.13948159282329198 0.0006711815319588347 0.0001898982487097263 0.0006711815319588347 -0.13708659759245576" free_energy=-1301.738033731156 pbc="T T T"
Si       2.56001658       0.81448348      -0.73031133       0.06737629      -0.10960273       0.05867332
Si       3.46829835      -0.94834563       0.48506685      -0.02421130       0.11882796       0.03914855
Si       0.96811552       1.48760912       0.75897644      -0.00953959      -0.03153314       0.03400667
Si       0.66946822      -0.47046673       1.83657122       0.02584932      -0.08624466      -0.01634523
Si      -1.01422102       2.66915328       0.85947383      -0.07514451       0.15047762      -0.03725407
Si       0.76275689       3.52798148      -0.53119609       0.06241548       0.10450391      -0.09920335
Si      -1.36203067       1.12780191       3.74811029      -0.01285898       0.00952050       0.01938537
Si       2.46402550       2.22725074       2.35235904      -0.03388672      -0.15594946       0.00158875
8
Lattice="-2.8775333859008527 3.2962814117897703 3.204277554975046 2.595414989526123 -3.418988706726887 3.0231408377453817 3.127125241261578 3.6207015528997 -3.298746695379968" Properties=species:S:1:pos:R:3:forces:R:3 cutoff=-1.0 nneightol=1.2 n_minim_iter=8 energy=-1301.74105180441 stress="-0.13807019670693346 0.0011103537287305604 0.00047197859560279724 0.0011103537287305604 -0.13866987745935277 0.0006656214939888141 0.00047197859560279724 0.0006656214939888141 -0.13715854340182063" free_energy=-1301.74105180441 pbc="T T T"
Si       2.56405712       0.81913365      -0.72378497       0.02228178      -0.05783834       0.01546337
Si       3.46481313      -0.93901659       0.49126769      -0.06549313       0.01168911       0.01328380
Si       0.96837173       1.48913064       0.76140381      -0.07911091       0.05439628       0.00598145
Si       0.66571961      -0.47133113       1.82903206       0.15267005      -0.05908536       0.03328931
Si      -1.01537004       2.68614719       0.86398138      -0.03194235       0.11374313      -0.05687356
Si       0.77334230       3.54371749      -0.52757458      -0.06053004       0.00147639      -0.01759461
Si      -1.35190182       1.12730684       3.74610640       0.05214939       0.03048705      -0.03888703
Si       2.46598724       2.23889408       2.34558269       0.00997521      -0.09486826       0.04533728
8
Lattice="-2.8855832666646486 3.305164220212357 3.198516880443255 2.6067689574354627 -3.429078346064072 3.022198239589418 3.1173419693314592 3.6158781527906396 -3.2947477137944188" Properties=species:S:1:pos:R:3:forces:R:3 cutoff=-1.0 nneightol=1.2 n_minim_iter=9 energy=-1301.741306494984 stress="-0.14097136942486937 -0.0008879585721393098 -4.18998265065809e-05 -0.0008879585721393098 -0.13872914240427758 0.00023960872128339086 -4.18998265065809e-05 0.00023960872128339086 -0.13871583441777735" free_energy=-1301.741306494984 pbc="T T T"
Si       2.56298593       0.81051653      -0.72066101      -0.00756488      -0.03292111       0.06067662
Si       3.46603735      -0.94605768       0.49176371      -0.03194552       0.00592553      -0.01238022
Si       0.96510869       1.48793779       0.76167657      -0.11284013       0.05749296      -0.03161247
Si       0.67007991      -0.47542001       1.82779542       0.23377552      -0.01962096       0.00647734
Si      -1.02147571       2.69131020       0.85949795       0.01173821       0.07544469      -0.04791425
Si       0.76508130       3.54673129      -0.53004309      -0.18356941      -0.04204517       0.02912159
Si      -1.35458069       1.13240215       3.74092920       0.04320875       0.02869293      -0.06556180
Si       2.46234495       2.22847121       2.34694286       0.04719748      -0.07296886       0.06119319
8
Lattice="-2.8897310289440754 3.3063650673587155 3.194817869823774 2.613146706356168 -3.431251004717055 3.0220125233230704 3.115499313584791 3.612922866816507 -3.2922737376241087" Properties=species:S:1:pos:R:3:forces:R:3 cutoff=-1.0 nneightol=1.2 n_minim_iter=10 energy=-1301.741403673339 stress="-0.14155322005798607 -0.0008596914458254581 -0.00015550104422520206 -0.0008596914458254581 -0.13924973411310934 -3.856925254472984e-05 -0.00015550104422520206 -3.856925254472984e-05 -0.13994818824474553" free_energy=-1301.741403673339 pbc="T T T"
Si       2.56365388       0.80692696      -0.71867651      -0.01336291      -0.00901243       0.06316696
Si       3.46807041      -0.94765320       0.49181358      -0.01741736      -0.00997604      -0.01997390
Si       0.96488542       1.48753759       0.76166143      -0.11760249       0.05512616      -0.03862816
Si       0.67355558      -0.47678641       1.82762795       0.21051388      -0.00667321      -0.00828502
Si      -1.02286536       2.69086858       0.85630843       0.01646170       0.05329268      -0.02794064
Si       0.76209955       3.54625486      -0.53127895      -0.18031122      -0.05341238       0.05013649
Si      -1.35621824       1.13420302       3.73738904       0.04548666       0.01456865      -0.07133761
Si       2.46356246       2.22275878       2.34882439       0.05623174      -0.04391343       0.05286187
8
Lattice="-2.8967894039700677 3.3065738020807114 3.189976650510519 2.6229782465590716 -3.4337706754570783 3.0229043167641483 3.1131119557508233 3.6073198612382615 -3.2903439639734025" Properties=species:S:1:pos:R:3:forces:R:3 cutoff=-1.0 nneightol=1.2 n_minim_iter=11 energy=-1301.742007570417 stress="-0.14168086352043965 -0.0006671927063034341 -0.0002793852652490109 -0.0006671927063034341 -0.14013255818284434 -0.00045665764693397456 -0.0002793852652490109 -0.00045665764693397456 -0.14158201024973646" free_energy=-1301.742007570417 pbc="T T T"
Si       2.56438298       0.80171144      -0.71607923      -0.01426438       0.02461644       0.06892940
Si       3.47147766      -0.95088846       0.49151970       0.01349965      -0.01548696      -0.02638680
Si       0.96351164       1.48711380       0.76102567      -0.10377480       0.03783890      -0.03654786
Si       0.68020719      -0.47886460       1.82818813       0.12012936       0.00135215      -0.03947498
Si      -1.02482923       2.68888347       0.85135820       0.00872867       0.02269521       0.01172304
Si       0.75599478       3.54304148      -0.53295920      -0.11600167      -0.04859582       0.06147679
Si      -1.35865175       1.13608833       3.73223277       0.03600867      -0.01791068      -0.06885027
Si       2.46580787       2.21328290       2.35232437       0.05567450      -0.00450926       0.02913068
8
Lattice="-2.898106053319252 3.305189130549726 3.1883589520080506 2.6257589647006827 -3.4338652853528573 3.024412713324405 3.1126208554162504 3.605859607631102 -3.2904547549155194" Properties=species:S:1:pos:R:3:forces:R:3 cutoff=-1.0 nneightol=1.2 n_minim_iter=12 energy=-1301.74323130629 stress="-0.14017464185292555 0.00023184454463991022 -0.0002488368759319032 0.00023184454463991022 -0.14048696317315132 -0.0006861484157183926 -0.0002488368759319032 -0.0006861484157183926 -0.1419437895956199" free_energy=-1301.74323130629 pbc="T T T"
Si       2.56486561       0.80071545      -0.71362150      -0.00886589       0.05072764       0.06091686
Si       3.47268668      -0.95190528       0.49206978       0.03499175      -0.00686966      -0.02261741
Si       0.96017608       1.48802580       0.75999594      -0.06820163       0.01646696      -0.01386128
Si       0.68591553      -0.48042864       1.82812381      -0.00802928      -0.00698820      -0.06393989
Si      -1.02587396       2.69001155       0.84967583      -0.01957216       0.00220656       0.05146392
Si       0.75195512       3.54038329      -0.53247622       0.00851823      -0.02781132       0.04462786
Si      -1.35698580       1.13518521       3.72922216       0.02176643      -0.05242597      -0.05377069
Si       2.46808076       2.20956237       2.35396031       0.03939254       0.02469400      -0.00281937
8
Lattice="-2.880640035685274 3.306685742411299 3.1959741496643996 2.607431903678088 -3.4333062245446384 3.027294372572343 3.1102527826513136 3.6187274383912476 -3.29507419501527" Properties=species:S:1:pos:R:3:forces:R:3 cutoff=-1.0 nneightol=1.2 n_minim_iter=13 energy=-1301.745280136887 stress="-0.13447096136171544 0.0018363169194919554 0.00010362394131669917 0.0018363169194919554 -0.13810079311445358 -0.00031394131326614364 0.00010362394131669917 -0.00031394131326614364 -0.13763920852834946" free_energy=-1301.745280136887 pbc="T T T"
Si       2.56254819       0.81091891      -0.70852985      -0.00062151       0.04977920       0.03493326
Si       3.46508224      -0.94989150       0.49724296       0.03527509       0.06165574      -0.00493710
Si       0.94503129       1.49382842       0.75794605       0.02223086      -0.01243312       0.06380918
Si       0.69051845      -0.48334859       1.82349030      -0.17255130      -0.05313389      -0.06410957
Si      -1.02912975       2.71099437       0.85952158      -0.09036431       0.00889223       0.07982737
Si       0.74975844       3.54362399      -0.52407855       0.23065957       0.02867662      -0.05298893
Si      -1.33908094       1.12693433       3.73106058      -0.01608000      -0.08704922      -0.01359884
Si       2.46640479       2.22326032       2.34792929      -0.00854840       0.00361243      -0.04293536
8
Lattice="-2.830911316133704 3.327301875825504 3.214788953691896 2.5568155461119386 -3.441009396293014 3.026161855410003 3.0968300469057146 3.6592726943598772 -3.2971169414448473" Properties=species:S:1:pos:R:3:forces:R:3 cutoff=-1.0 nneightol=1.2 n_minim_iter=14 energy=-1301.74844770467 stress="-0.12533416889891544 0.0018661696389301807 0.0011174360131012671 0.0018661696389301807 -0.1296110102589683 0.0004786224972337478 0.0011174360131012671 0.0004786224972337478 -0.12639914270486255" free_energy=-1301.74844770467 pbc="T T T"
Si       2.55457308       0.83670289      -0.69614900      -0.02442119      -0.00331726      -0.00797287
Si       3.44111998      -0.94229667       0.51205814      -0.03010148       0.14156816      -0.01991919
Si       0.91406723       1.50610479       0.75858199       0.07602968       0.03913969       0.15419279
Si       0.68600933      -0.49019219       1.80618050      -0.04782555      -0.11869046       0.03060816
Si      -1.04020810       2.77533693       0.89056843      -0.14613356       0.04845767      -0.00432318
Si       0.75555119       3.57055368      -0.50403573       0.22657885       0.05784625      -0.14212279
Si      -1.29592769       1.11219643       3.73925526      -0.01819826      -0.06249396      -0.01136919
Si       2.45301656       2.26828905       2.32504140      -0.03592848      -0.10251009       0.00090625
8
Lattice="-2.810552540688841 3.349303490307024 3.221338043439174 2.537731405243299 -3.4538826732307104 3.0215307686942006 3.081718334143838 3.677837705965097 -3.2924638274536706" Properties=species:S:1:pos:R:3:forces:R:3 cutoff=-1.0 nneightol=1.2 n_minim_iter=15 energy=-1301.752590450818 stress="-0.12341579198323631 0.0004150420922059437 0.0009982583964882657 0.0004150420922059437 -0.12443260417504692 0.0007022598643367384 0.0009982583964882657 0.0007022598643367384 -0.12210224381863631" free_energy=-1301.752590450818 pbc="T T T"
Si       2.54814394       0.84366963      -0.68687678      -0.07123660      -0.01046029      -0.02002347
Si       3.42785312      -0.94083999       0.51819330      -0.05408623       0.13160680      -0.04231177
Si       0.89742858       1.51272272       0.76202825       0.04441447       0.08285346       0.14392822
Si       0.68483655      -0.49746445       1.79481781       0.14788878      -0.09782857       0.05527339
Si      -1.05122036       2.81500666       0.90495251      -0.13472033       0.02578188      -0.04734892
Si       0.75542767       3.59132641      -0.49612724       0.04895788      -0.00068067      -0.10034915
Si      -1.27743582       1.11042658       3.73973462       0.01143494      -0.02774051      -0.02996402
Si       2.44165668       2.28492737       2.31449186       0.00734708      -0.10353211       0.04079572
8
Lattice="-2.8095786691053375 3.368100355140962 3.2203305157343296 2.5396391452142564 -3.468570966573944 3.0180694673056307 3.065621978175747 3.6803970533508332 -3.286904619082132" Properties=species:S:1:pos:R:3:forces:R:3 cutoff=-1.0 nneightol=1.2 n_minim_iter=16 energy=-1301.755396126398 stress="-0.12461625198831792 -0.0012748550313875652 -4.941387218535227e-05 -0.0012748550313875652 -0.12189403804034182 0.0004197686710406721 -4.941387218535227e-05 0.0004197686710406721 -0.12221801721907359" free_energy=-1301.755396126398 pbc="T T T"
Si       2.54212177       0.83870880      -0.67847784      -0.12944989       0.02350304      -0.02266957
Si       3.42226573      -0.94352417       0.51890021      -0.04269976       0.08187681      -0.06158850
Si       0.88619870       1.51686048       0.76666576      -0.00056214       0.08357555       0.09308337
Si       0.69142787      -0.50649916       1.78798086       0.27087054      -0.03088186       0.02169449
Si      -1.06435499       2.83771461       0.90772733      -0.09798484      -0.02667925      -0.03495645
Si       0.74797862       3.60281129      -0.49600832      -0.11311205      -0.08415191      -0.00901274
Si      -1.27227066       1.11385059       3.73423049       0.04392209      -0.01655225      -0.03606689
Si       2.43367909       2.27985624       2.31346699       0.06901605      -0.03069014       0.04951629
8
Lattice="-2.8124333124969247 3.3799238881297375 3.2171252321932324 2.5479457809193358 -3.479893931067958 3.019242381058638 3.0508451497551747 3.6772255594918035 -3.2834927081066225" Properties=species:S:1:pos:R:3:forces:R:3 cutoff=-1.0 nneightol=1.2 n_minim_iter=17 energy=-1301.757806673117 stress="-0.12445492435549482 -0.0019461977101393841 -0.0008685755130570763 -0.0019461977101393841 -0.12069388215134626 -0.00021630902334192768 -0.0008685755130570763 -0.00021630902334192768 -0.12326203190228462" free_energy=-1301.757806673117 pbc="T T T"
Si       2.53553651       0.83225644      -0.66933149      -0.16923632       0.07378096      -0.04520693
Si       3.41975395      -0.94544348       0.51918475      -0.01583428       0.03478059      -0.07545299
Si       0.87534792       1.52113586       0.77190088      -0.01161593       0.05005136       0.06489686
Si       0.70536299      -0.51635552       1.78384017       0.23483353       0.02910514      -0.02637061
Si      -1.07798339       2.85239423       0.90650229      -0.08187640      -0.07072776       0.01670385
Si       0.73749865       3.60567102      -0.49774459      -0.12400580      -0.13063872       0.06286567
Si      -1.26751498       1.11489868       3.72659269       0.06680561      -0.04555005      -0.02262580
Si       2.43106997       2.26720869       2.31767940       0.10092959       0.05919848       0.02518995
8
Lattice="-2.782063430015499 3.4109887474452334 3.224773871145983 2.5330556460734006 -3.5050783748407057 3.0309790738873 3.008578738711194 3.6946912488243564 -3.2839860338106095" Properties=species:S:1:pos:R:3:forces:R:3 cutoff=-1.0 nneightol=1.2 n_minim_iter=18 energy=-1301.766121671805 stress="-0.11242798757665903 -0.0006418787614559487 -0.0014010191952832244 -0.0006418787614559487 -0.11178959048955994 -0.0024543468842032315 -0.0014010191952832244 -0.0024543468842032315 -0.11652186204368777" free_energy=-1301.766121671805 pbc="T T T"
Si       2.50747326       0.83929113      -0.63832404      -0.20601411       0.18006026      -0.18351087
Si       3.39557283      -0.93727557       0.52876259       0.01342990      -0.00212816      -0.10241927
Si       0.82656554       1.54443095       0.79012043       0.08345309      -0.08433657       0.09881685
Si       0.74980602      -0.54795816       1.76577546      -0.03896932       0.14182078      -0.07536483
Si      -1.11970557       2.92586278       0.92387790      -0.19185207      -0.16506719       0.11545941
Si       0.71510688       3.61753274      -0.48930843       0.12527368      -0.14783343       0.14453408
Si      -1.22039302       1.09768981       3.71365621       0.09567292      -0.17271817       0.06973996
Si       2.42428571       2.26223055       2.32074000       0.11900591       0.25020249      -0.06725531
8
Lattice="-2.7285743183697773 3.43776048187399 3.2494314036157235 2.483526638448392 -3.516112236491735 3.0364269981613727 2.9834935156020195 3.732176624206661 -3.289108877451473" Properties=species:S:1:pos:R:3:forces:R:3 cutoff=-1.0 nneightol=1.2 n_minim_iter=19 energy=-1301.774621470263 stress="-0.10029213289688216 0.0014660091022494883 -0.0009564709674531077 0.0014660091022494883 -0.10140159679259676 -0.0027267246117089468 -0.0009564709674531077 -0.0027267246117089468 -0.10350999211947254" free_energy=-1301.774621470263 pbc="T T T"
Si       2.48050970       0.86825084      -0.62101261      -0.17171297       0.15517357      -0.26664110
Si       3.36217765      -0.91997302       0.53864760      -0.03802708       0.07283990      -0.11389007
Si       0.78732564       1.56809745       0.80668806       0.19582417      -0.17314957       0.15043775
Si       0.77001176      -0.56577868       1.74778967      -0.10576961       0.16582774      -0.03095605
Si      -1.14607613       3.00123032       0.95847683      -0.28590373      -0.17752194       0.07763749
Si       0.71412796       3.63581535      -0.46923162       0.24711746      -0.07661792       0.09789583
Si      -1.16697744       1.07514917       3.71848610       0.04465156      -0.17485340       0.14347476
Si       2.41423716       2.29868254       2.31040392       0.11382019       0.20830162      -0.05795861
8
Lattice="-2.6955410842738616 3.4409057378009416 3.274816785891291 2.448866200896489 -3.5007890460023794 3.0372617644150957 2.984714363507327 3.7461429805272357 -3.2928443987602583" Properties=species:S:1:pos:R:3:forces:R:3 cutoff=-1.0 nneightol=1.2 n_minim_iter=20 energy=-1301.786312727669 stress="-0.09497639161933547 0.001164892147345984 8.522537496595184e-05 0.001164892147345984 -0.10021183236188608 0.0005901626655629334 8.522537496595184e-05 0.0005901626655629334 -0.09674442171288426" free_energy=-1301.786312727669 pbc="T T T"
Si       2.45654400       0.89629382      -0.63132521      -0.10655501      -0.00552862      -0.27848456
Si       3.34225511      -0.89750347       0.53419734      -0.09940850       0.17005931      -0.08345487
Si       0.78857003       1.57993018       0.82738371       0.20375505      -0.17981227       0.19094080
Si       0.77411383      -0.55869755       1.74780136      -0.16542379       0.04924247      -0.02552202
Si      -1.15368720       3.00849541       0.98335269      -0.16868779       0.10029158       0.03422093
Si       0.73107971       3.62953913      -0.45315118       0.32185185       0.09905907      -0.05423654
Si      -1.14261519       1.06226630       3.73614984       0.02230628      -0.08621789       0.18052148
Si       2.41785694       2.33845455       2.31329327      -0.00783810      -0.14709364       0.03601478
8
Lattice="-2.6568539774017386 3.4519884999781145 3.2898443796065617 2.41844684982143 -3.4955231656095287 3.0387328638085336 2.9775612706332946 3.7685142202995348 -3.287849425941154" Properties=species:S:1:pos:R:3:forces:R:3 cutoff=-1.0 nneightol=1.2 n_minim_iter=21 energy=-1301.795317195676 stress="-0.09274257818102837 0.0018432875972112426 0.0011455519259907978 0.0018432875972112426 -0.0981658159986471 0.0024871437653204882 0.0011455519259907978 0.0024871437653204882 -0.09245584323452334" free_energy=-1301.795317195676 pbc="T T T"
Si       2.42990929       0.92051626      -0.63690428      -0.09075924      -0.06542137      -0.29892736
Si       3.31740362      -0.86770066       0.53237989      -0.17142464       0.13267999      -0.04850322
Si       0.79207011       1.59182965       0.85427300       0.14429606      -0.12044277       0.13084534
Si       0.78047967      -0.55667904       1.74332597      -0.12777544       0.00113852       0.00967765
Si      -1.16258853       3.02806130       1.00312919      -0.06763490       0.22646283      -0.03458442
Si       0.75195553       3.63909953      -0.44240402       0.26884608       0.10113028      -0.05147938
Si      -1.11414618       1.05068135       3.74863874       0.06410113       0.01323674       0.18257719
Si       2.42237773       2.36912961       2.31974431      -0.01964906      -0.28878422       0.11039420
8
Lattice="-2.646554099918876 3.447928874243345 3.287917074339255 2.4168216452997107 -3.489989869532335 3.0427362853376674 2.9779559749598197 3.7720964140656696 -3.283660111486495" Properties=species:S:1:pos:R:3:forces:R:3 cutoff=-1.0 nneightol=1.2 n_minim_iter=22 energy=-1301.812404440581 stress="-0.09750213487034638 -0.00022686978111251117 0.0015734080892719103 -0.00022686978111251117 -0.10163329845923758 0.003740699996383616 0.0015734080892719103 0.003740699996383616 -0.09628919540412181" free_energy=-1301.812404440581 pbc="T T T"
Si       2.40357608       0.92845657      -0.66161712      -0.08118880      -0.11591844      -0.21928903
Si       3.30193124      -0.84021786       0.51862512      -0.22116987       0.06000829       0.02628944
Si       0.82221614       1.59144553       0.88254350      -0.06836940       0.02074783      -0.05077027
Si       0.78160857      -0.54684138       1.75104036      -0.06198811      -0.07531702       0.01461411