2
Lattice="4.865200107402776 1.1163928797326865e-16 1.0054293221698872e-14 1.116392879734717e-16 4.865200107402776 -1.6512708349250198e-14 2.4326000537013854 2.432600053701393 1.380918210019324" Properties=species:S:1:pos:R:3:forces:R:3 cutoff=-1.0 nneightol=1.2 n_minim_iter=1 energy=-8.158299845372085 stress="-0.13235652896993447 -6.54739667251601e-17 -7.76427590538577e-19 -6.54739667251601e-17 -0.13235652896993508 -2.3450295494291263e-16 -7.76427590538577e-19 -2.3450295494291263e-16 -0.17142666296517112" free_energy=-8.158299845372085 pbc="T T T"
Si      -0.00000000      -1.21630003      -0.34522955      -0.00000000      -0.00000000       0.00000000
Si      -0.00000000       1.21630003       0.34522955       0.00000000       0.00000000      -0.00000000
2
Lattice="4.809708163639146 1.5127213472946385e-16 1.0007082795191886e-14 1.5127213472966402e-16 4.8097081636391446 -1.6160395253995117e-14 2.404854081819571 2.4048540818195767 1.4129666798572316" Properties=species:S:1:pos:R:3:forces:R:3 cutoff=-1.0 nneightol=1.2 n_minim_iter=2 energy=-8.172897777608993 stress="-0.11780416891052833 3.052751027682725e-17 -1.5289720013223726e-16 3.052751027682725e-17 -0.11780416891053015 -3.872254262554098e-16 -1.5289720013223726e-16 -3.872254262554098e-16 -0.11780897540676703" free_energy=-8.172897777608993 pbc="T T T"
Si      -0.00000000      -1.20242704      -0.35324167      -0.00000000      -0.00000000       0.00000000
Si      -0.00000000       1.20242704       0.35324167       0.00000000       0.00000000      -0.00000000
