4
Lattice="3.897390320749315 0.0 0.0 0.0 3.897390320749315 0.0 0.0 0.0 3.897390320749315" Properties=species:S:1:pos:R:3 n_minim_iter=1 stress="-0.05130163054923711 2.1455950878257607e-19 1.0037041321881086e-19 2.1455950878257607e-19 -0.051301630549237094 -2.9833401085209985e-19 1.0037041321881086e-19 -2.9833401085209985e-19 -0.051301630549237094" pbc="T T T"
Al       0.00000000       0.00000000       0.00000000
Al       1.94869516       1.94869516       0.00000000
Al       1.94869516       0.00000000       1.94869516
Al       0.00000000       1.94869516       1.94869516
