4
Lattice="3.9321902899662327 0.0 0.0 0.0 3.9321902899662327 0.0 0.0 0.0 3.9321902899662327" Properties=species:S:1:pos:R:3 n_minim_iter=1 stress="0.0009942592943785993 -5.361611313156337e-18 -2.3014848048804353e-19 -5.361611313156337e-18 0.0009942592943786063 -1.464689748833146e-18 -2.3014848048804353e-19 -1.464689748833146e-18 0.0009942592943786312" pbc="T T T"
Al       0.00000000       0.00000000       0.00000000
Al       1.96609514       1.96609514       0.00000000
Al       1.96609514       0.00000000       1.96609514
Al       0.00000000       1.96609514       1.96609514
