4
Lattice="4.553358020377473 -0.03228703389171428 7.815184289756062e-13 1.9251380035049794 4.126494321061674 2.40488653558251e-12 -3.2392480119416573 -2.047103643586212 2.4598273727726214" Properties=species:S:1:pos:R:3:tags:I:1 spacegroup="P 1" unit_cell=conventional n_minim_iter=1 energy=-1927.2752629578113 free_energy=-1927.2752629578113 pbc="T T T"
Ti       0.00000000       0.00000000       0.00000000        0
Al       3.23924801       2.04710364       0.00000000        1
Al       2.27667901      -0.01614352       1.22991369        2
Al       0.96256900       2.06324716       1.22991369        3
