4
Lattice="4.8029180366722874 -0.07729339429103878 8.019510302569258e-13 1.9915989139205204 4.371216043833068 2.5352312163017207e-12 -3.397258475296864 -2.146961324772331 2.6311951386676875" Properties=species:S:1:pos:R:3:tags:I:1 spacegroup="P 1" unit_cell=conventional n_minim_iter=1 energy=-1923.9920748972263 free_energy=-1923.9920748972263 pbc="T T T"
Ti       0.00000000       0.00000000       0.00000000        0
Al       3.39725848       2.14696132       0.00000000        1
Al       2.40145902      -0.03864670       1.31559757        2
Al       0.99579946       2.18560802       1.31559757        3
4
Lattice="4.820979626261924 -0.05551230546571784 8.159559047845972e-13 2.0190238318260336 4.3781810080682115 2.543472375846496e-12 -3.4200017290444378 -2.161334351302559 2.6224317280156755" Properties=species:S:1:pos:R:3:tags:I:1 spacegroup="P 1" unit_cell=conventional n_minim_iter=2 stress="0.22084327197399073 -0.004781802232022969 -3.621615723807778e-15 -0.004781802232022969 0.22538783864787826 -2.2116086181970914e-15 -3.621615723807778e-15 -2.2116086181970914e-15 0.22840978841399817" pbc="T T T"
Ti       0.00000000       0.00000000       0.00000000        0
Al       3.42000173       2.16133435       0.00000000        1
Al       2.41048981      -0.02775615       1.31121586        2
Al       1.00951192       2.18909050       1.31121586        3
