4
Lattice="4.649176545063544 -0.09502518410883817 7.673387310804013e-13 1.909597586578688 4.2399657298281035 2.4559879515352645e-12 -3.2793870658215654 -2.0724702728609157 2.5640514373572802" Properties=species:S:1:pos:R:3:tags:I:1 spacegroup="P 1" unit_cell=conventional n_minim_iter=1 stress="0.47203584992254166 0.00034764811545024977 4.037090549482522e-16 0.00034764811545024977 0.4717054493825246 1.4748674400180237e-17 4.037090549482522e-16 1.4748674400180237e-17 0.471485746623983" pbc="T T T"
Ti       0.00000000       0.00000000       0.00000000        0
Al       3.27938707       2.07247027       0.00000000        1
Al       2.32458827      -0.04751259       1.28202572        2
Al       0.95479879       2.11998286       1.28202572        3
