4
Lattice="4.4775974208881495 0.0647538476377459 8.212966939952752e-13 1.9802698328741675 4.016416700659506 2.3607246401102358e-12 -3.2289336268815703 -2.040585274149798 2.337321350701378" Properties=species:S:1:pos:R:3:tags:I:1 spacegroup="P 1" unit_cell=conventional n_minim_iter=2 stress="-3.093024360471526 -0.0024873702556503226 2.792086546554649e-15 -0.0024873702556503226 -3.0906603940377506 1.6014601193634772e-15 2.792086546554649e-15 1.6014601193634772e-15 -3.089088453669332" pbc="T T T"
Ti       0.00000000       0.00000000       0.00000000        0
Al       3.22893363       2.04058527       0.00000000        1
Al       2.23879871       0.03237692       1.16866068        2
Al       0.99013492       2.00820835       1.16866068        3
