4
Lattice="4.649176545063542 -0.09502518410883633 7.671094627691435e-13 1.9095975865786858 4.239965729828104 2.457431893725338e-12 -3.279387065821563 -2.072470272860918 2.5640514373572807" Properties=species:S:1:pos:R:3:tags:I:1 spacegroup="P 1" unit_cell=conventional n_minim_iter=2 stress="0.5262136855339158 0.0006351398005071903 3.355093676814223e-18 0.0006351398005071903 0.5256100563935668 -3.116695251497533e-17 3.355093676814223e-18 -3.116695251497533e-17 0.5252086678629535" pbc="T T T"
Ti       0.00000000       0.00000000       0.00000000        0
Al       3.27938707       2.07247027       0.00000000        1
Al       2.32458827      -0.04751259       1.28202572        2
Al       0.95479879       2.11998286       1.28202572        3
