4
Lattice="4.525253294041767 0.026446609546013918 8.104763725799666e-13 1.9661242543404351 4.075901399063355 2.3895555004772727e-12 -3.245688774191522 -2.0511740043058846 2.3951631225324164" Properties=species:S:1:pos:R:3:tags:I:1 spacegroup="P 1" unit_cell=conventional n_minim_iter=2 stress="-1.5531497533057972 -0.0030081242610491056 -4.571294338733137e-15 -0.0030081242610491056 -1.5502908685999153 -3.016378410247001e-15 -4.571294338733137e-15 -3.016378410247001e-15 -1.5483898279533048" pbc="T T T"
Ti       0.00000000       0.00000000       0.00000000        0
Al       3.24568877       2.05117400       0.00000000        1
Al       2.26262665       0.01322330       1.19758156        2
Al       0.98306213       2.03795070       1.19758156        3
