4
Lattice="4.718577471542521 -0.09644367956756354 7.783748161015126e-13 1.9381032456832665 4.303258131619473 2.4928616615411023e-12 -3.328340358613349 -2.1034072260272563 2.602326504687492" Properties=species:S:1:pos:R:3:tags:I:1 spacegroup="P 1" unit_cell=conventional n_minim_iter=1 stress="0.37853542272414986 -0.004375386694884777 -3.1567329076354074e-15 -0.004375386694884777 0.38269373701531423 -2.0408321309517856e-15 -3.1567329076354074e-15 -2.0408321309517856e-15 0.3854588448465682" pbc="T T T"
Ti       0.00000000       0.00000000       0.00000000        0
Al       3.32834036       2.10340723       0.00000000        1
Al       2.35928874      -0.04822184       1.30116325        2
Al       0.96905162       2.15162907       1.30116325        3
