4
Lattice="4.623768522869785 0.32245783108582804 9.741942925613027e-13 2.2757671432824935 4.037833368957395 2.424282031886707e-12 -3.449767833076526 -2.180145600022713 2.1975626194677833" Properties=species:S:1:pos:R:3:tags:I:1 spacegroup="P 1" unit_cell=conventional n_minim_iter=4 stress="-7.2019290311881505 -0.00015035821789355445 1.9536220891231373e-15 -0.00015035821789355445 -7.201786132566855 -7.248366322456178e-15 1.9536220891231373e-15 -7.248366322456178e-15 -7.201691110865977" pbc="T T T"
Ti       0.00000000       0.00000000       0.00000000        0
Al       3.44976783       2.18014560       0.00000000        1
Al       2.31188426       0.16122892       1.09878131        2
Al       1.13788357       2.01891668       1.09878131        3
