4
Lattice="4.684134072283107 -0.09573968600564228 7.726930455411802e-13 1.923956002303322 4.271846368468907 2.4746649422915446e-12 -3.3040450372936663 -2.0880533412329245 2.583330743497837" Properties=species:S:1:pos:R:3:tags:I:1 spacegroup="P 1" unit_cell=conventional n_minim_iter=1 stress="0.37853542272414986 -0.004375386694884777 -3.1567329076354074e-15 -0.004375386694884777 0.38269373701531423 -2.0408321309517856e-15 -3.1567329076354074e-15 -2.0408321309517856e-15 0.3854588448465682" pbc="T T T"
Ti       0.00000000       0.00000000       0.00000000        0
Al       3.30404504       2.08805334       0.00000000        1
Al       2.34206704      -0.04786984       1.29166537        2
Al       0.96197800       2.13592318       1.29166537        3
