4
Lattice="4.752525239253709 -0.09713754284540799 7.841316011658824e-13 1.9520469139141172 4.334217887676153 2.5095304262067838e-12 -3.352286076584372 -2.1185401724166835 2.6210489218190505" Properties=species:S:1:pos:R:3:tags:I:1 spacegroup="P 1" unit_cell=conventional n_minim_iter=1 stress="0.29420062395784635 -0.0033659212011513014 -2.62788587775255e-15 -0.0033659212011513014 0.2973995545232395 -1.5777747186114647e-15 -2.62788587775255e-15 -1.5777747186114647e-15 0.2995267116688161" pbc="T T T"
Ti       0.00000000       0.00000000       0.00000000        0
Al       3.35228608       2.11854017       0.00000000        1
Al       2.37626262      -0.04856877       1.31052446        2
Al       0.97602346       2.16710894       1.31052446        3
