4
Lattice="2.0269424432566123 -3.510767295738248 -9.184466248515559e-19 2.0269424432566128 3.510767295738248 9.184466248516422e-19 -1.4218230683575483e-31 -1.751543139564573e-18 6.695283324114324" Properties=species:S:1:pos:R:3:forces:R:3 cutoff=-1.0 nneightol=1.2 n_minim_iter=1 energy=-652.1904424990103 stress="0.05736024128944045 -9.082591169693126e-18 -4.929290663470754e-19 -9.082591169693126e-18 0.057360241289440075 -1.2590504392725706e-17 -4.929290663470754e-19 -1.2590504392725706e-17 0.05728044288387662" free_energy=-652.1904424990103 pbc="T T T"
Si       2.02694244       1.17025577       0.42785613      -0.00000000      -0.00000000       0.03392382
Si       2.02694244      -1.17025577       3.77549779       0.00000000       0.00000000       0.03392382
Si       2.02694244       1.17025577       2.91978553      -0.00000000      -0.00000000      -0.03392382
Si       2.02694244      -1.17025577      -0.42785613       0.00000000      -0.00000000      -0.03392382
4
Lattice="2.02662725514323 -3.5102213739119295 -1.792925045762147e-18 2.0266272551432305 3.5102213739119295 1.792925045762219e-18 -1.7480478767656871e-31 -8.424601190689574e-20 6.697366033515057" Properties=species:S:1:pos:R:3:forces:R:3 cutoff=-1.0 nneightol=1.2 n_minim_iter=2 energy=-652.1905845499416 stress="0.05732448312956343 1.3623886754539688e-17 2.3489631358474253e-17 1.3623886754539688e-17 0.05732448312956343 -1.1256963000926521e-17 2.3489631358474253e-17 -1.1256963000926521e-17 0.05697483461136774" free_energy=-652.1905845499416 pbc="T T T"
Si       2.02662726       1.17007379       0.43007125       0.00000000      -0.00000000      -0.00139220
Si       2.02662726      -1.17007379       3.77875427       0.00000000       0.00000000      -0.00139220
Si       2.02662726       1.17007379       2.91861176       0.00000000      -0.00000000       0.00139220
Si       2.02662726      -1.17007379      -0.43007125      -0.00000000       0.00000000       0.00139220
