4
Lattice="2.0408997483049163 -3.5349420572186485 -1.8055516944910204e-18 2.0408997483049163 3.5349420572186485 1.8055516944910936e-18 -1.202908091061015e-31 -3.444922499848967e-18 6.7445321370360976" Properties=species:S:1:pos:R:3:forces:R:3 cutoff=-1.0 nneightol=1.2 n_minim_iter=1 energy=-652.0689888146354 stress="0.06299978077954374 -1.1353238962116408e-16 -3.685464934028888e-17 -1.1353238962116408e-16 0.06299978077954368 -2.177734159956192e-17 -3.685464934028888e-17 -2.177734159956192e-17 0.062046361057197054" free_energy=-652.0689888146354 pbc="T T T"
Si       2.04089975       1.17831402       0.43310002      -0.00000000       0.00000000       0.02716189
Si       2.04089975      -1.17831402       3.80536609       0.00000000       0.00000000       0.02716189
Si       2.04089975       1.17831402       2.93916605      -0.00000000       0.00000000      -0.02716189
Si       2.04089975      -1.17831402      -0.43310002       0.00000000      -0.00000000      -0.02716189
4
Lattice="2.039998226227044 -3.5333805751756278 -6.765218317638744e-18 2.039998226227044 3.5333805751756278 6.765218317638681e-18 -1.2062934695500097e-31 6.016405032600436e-18 6.7504945815816395" Properties=species:S:1:pos:R:3:forces:R:3 cutoff=-1.0 nneightol=1.2 n_minim_iter=2 energy=-652.0690715455576 stress="0.06263270779392906 -5.4495547018158753e-17 -2.6102130370731804e-17 -5.4495547018158753e-17 0.0626327077939291 -1.943435591568858e-17 -2.6102130370731804e-17 -1.943435591568858e-17 0.06262576492360716" free_energy=-652.0690715455576 pbc="T T T"
Si       2.03999823       1.17779353       0.43387127      -0.00000000       0.00000000       0.02620971
Si       2.03999823      -1.17779353       3.80911856       0.00000000       0.00000000       0.02620971
Si       2.03999823       1.17779353       2.94137602      -0.00000000      -0.00000000      -0.02620971
Si       2.03999823      -1.17779353      -0.43387127       0.00000000      -0.00000000      -0.02620971
4
Lattice="2.0395712716458725 -3.5326410681485156 -5.519717176922887e-18 2.0395712716458725 3.5326410681485156 5.519717176922784e-18 -8.598121220304459e-32 3.6349118948509166e-18 6.753321113113455" Properties=species:S:1:pos:R:3:forces:R:3 cutoff=-1.0 nneightol=1.2 n_minim_iter=3 energy=-652.0691285224304 stress="0.062477943543167595 -4.541295584846563e-18 -7.731921650125112e-18 -4.541295584846563e-18 0.06247794354316752 -3.4884389754037026e-17 -7.731921650125112e-18 -3.4884389754037026e-17 0.06277098034000597" free_energy=-652.0691285224304 pbc="T T T"
Si       2.03957127       1.17754702       0.43479516      -0.00000000       0.00000000       0.01609963
Si       2.03957127      -1.17754702       3.81145572       0.00000000       0.00000000       0.01609963
Si       2.03957127       1.17754702       2.94186539      -0.00000000      -0.00000000      -0.01609963
Si       2.03957127      -1.17754702      -0.43479516       0.00000000      -0.00000000      -0.01609963
4
Lattice="2.039488327582911 -3.532497404817279 -2.8072115297078982e-18 2.039488327582911 3.532497404817279 2.8072115297078536e-18 -8.573021361405201e-32 -1.5411728754292822e-18 6.753870426658788" Properties=species:S:1:pos:R:3:forces:R:3 cutoff=-1.0 nneightol=1.2 n_minim_iter=4 energy=-652.0691571624457 stress="0.062471157379657284 2.7247773509079377e-17 -2.6192439792927123e-17 2.7247773509079377e-17 0.06247115737965752 -3.01873089483093e-17 -2.6192439792927123e-17 -3.01873089483093e-17 0.06264024257118594" free_energy=-652.0691571624457 pbc="T T T"
Si       2.03948833       1.17749913       0.43565952       0.00000000      -0.00000000       0.00226888
Si       2.03948833      -1.17749913       3.81259473       0.00000000       0.00000000       0.00226888
Si       2.03948833       1.17749913       2.94127569      -0.00000000      -0.00000000      -0.00226888
Si       2.03948833      -1.17749913      -0.43565952      -0.00000000       0.00000000      -0.00226888
