4
Lattice="1.9237619886795294 -3.332053506062689 -8.188228866062141e-35 1.9237619886795296 3.332053506062689 8.188228866062138e-35 -2.3026798056950586e-49 1.543989050386571e-34 6.3257386936409565" Properties=species:S:1:pos:R:3:forces:R:3 cutoff=-1.0 nneightol=1.2 n_minim_iter=3 energy=-652.649881126766 stress="0.0003747944479499891 1.6121599326205299e-16 -4.3044401775859876e-17 1.6121599326205299e-16 0.00037479444794974437 -2.955895592164686e-17 -4.3044401775859876e-17 -2.955895592164686e-17 -0.00014622408144376265" free_energy=-652.649881126766 pbc="T T T"
Si       1.92376199       1.11068450       0.39583561       0.00000000       0.00000000      -0.00005268
Si       1.92376199      -1.11068450       3.55870496      -0.00000000      -0.00000000      -0.00005268
Si       1.92376199       1.11068450       2.76703374       0.00000000       0.00000000       0.00005268
Si       1.92376199      -1.11068450      -0.39583561      -0.00000000      -0.00000000       0.00005268
