2
Lattice="5.011947763509597 -4.750354813634777e-18 2.0740806657657988e-15 -4.75035481362367e-18 5.011947763509596 -3.737665836862003e-15 2.505973881754798 2.505973881754799 1.496570108759509" Properties=species:S:1:pos:R:3:forces:R:3 cutoff=-1.0 nneightol=1.2 n_minim_iter=2 energy=-325.4228072567046 stress="0.07260444911419288 -1.2960825331024377e-17 5.4257656010319414e-17 -1.2960825331024377e-17 0.072604449114193 6.051667415907253e-17 5.4257656010319414e-17 6.051667415907253e-17 0.06832366846194353" free_energy=-325.4228072567046 pbc="T T T"
Si      -0.00000000      -1.25298694      -0.37414253      -0.00000000       0.00000000       0.00000000
Si      -0.00000000       1.25298694       0.37414253       0.00000000      -0.00000000      -0.00000000
