1
Lattice="2.5507515032641432 1.1685650933451588e-17 -3.0850701143266627e-51 1.2753757516320718 2.209015600568093 2.8762381426572163e-49 2.0953279798396172e-49 -3.841078378837493e-48 2.3763154957977055" Properties=species:S:1:pos:R:3 cutoff=-1.0 nneightol=1.2 n_minim_iter=1 energy=-162.75249165999784 free_energy=-162.75249165999784 pbc="T T T"
Si       0.00000000       0.00000000       0.00000000
1
Lattice="2.5432846033569048 1.715880995353558e-18 7.639370804206286e-51 1.2716423016784526 2.202549075560908 -3.665855475935813e-49 2.189260797591262e-49 -3.148251197973069e-48 2.3902893601911233" Properties=species:S:1:pos:R:3 cutoff=-1.0 nneightol=1.2 n_minim_iter=2 stress="-0.10495362644883109 -1.1345182114455364e-15 2.277279455481316e-16 -1.1345182114455364e-15 -0.10495362644882868 4.225971226766103e-17 2.277279455481316e-16 4.225971226766103e-17 -0.10495137312615195" pbc="T T T"
Si       0.00000000       0.00000000       0.00000000
