1
Lattice="2.598440108297744 1.1904124740567953e-17 -3.1427482887763575e-51 1.299220054148872 2.2503151439982343 2.9300120146287644e-49 2.017388913795898e-49 -2.6453626400234773e-48 2.4207428619952" Properties=species:S:1:pos:R:3 cutoff=-1.0 nneightol=1.2 n_minim_iter=1 energy=-162.8115461392372 free_energy=-162.8115461392372 pbc="T T T"
Si       0.00000000       0.00000000       0.00000000
