1
Lattice="2.4684382840227497 1.665384335739401e-18 7.414551770595596e-51 1.2342191420113748 2.1377302616377687 -3.557973019830587e-49 1.7067219721633609e-49 -7.147137242474831e-49 2.3199455376721025" Properties=species:S:1:pos:R:3 cutoff=-1.0 nneightol=1.2 n_minim_iter=1 energy=-162.5710569672558 free_energy=-162.5710569672558 pbc="T T T"
Si       0.00000000       0.00000000       0.00000000
