1
Lattice="2.710577942799069 1.2417857100909107e-17 -3.278376193518409e-51 1.3552889713995344 2.3474293574017566 3.056459109304569e-49 1.982283772698189e-49 -1.4372960562971612e-48 2.5252120246908585" Properties=species:S:1:pos:R:3 cutoff=-1.0 nneightol=1.2 n_minim_iter=1 energy=-162.8186419666202 free_energy=-162.8186419666202 pbc="T T T"
Si       0.00000000       0.00000000       0.00000000
