1
Lattice="2.5873402373699994 0.0 0.0 1.2936701186849995 2.240702373796079 0.0 0.0 0.0 2.58734024" Properties=species:S:1:pos:R:3 cutoff=-1.0 nneightol=1.2 n_minim_iter=1 energy=-162.8001510515199 free_energy=-162.8001510515199 pbc="T T T"
Si       0.00000000       0.00000000       0.00000000
1
Lattice="2.6668512973554725 1.2217534053175612e-17 -3.225489910050509e-51 1.333425648677736 2.309560971625328 3.0071527596604048e-49 1.8301094155474164e-49 -1.1321041893486965e-49 2.4844756750253194" Properties=species:S:1:pos:R:3 cutoff=-1.0 nneightol=1.2 n_minim_iter=2 stress="0.0065261842909260575 7.103901551869575e-16 -5.985083603123001e-17 7.103901551869575e-16 0.0065261842909264435 -1.3969387199325407e-16 -5.985083603123001e-17 -1.3969387199325407e-16 0.006776996724478757" pbc="T T T"
Si       0.00000000       0.00000000       0.00000000
