1
Lattice="2.418672705560109 5.20256505554046e-19 7.718044936199606e-51 1.2093363527800545 2.0946320064550936 -3.881127101404237e-49 1.4036837057886616e-49 8.25291123593681e-49 2.2653713598047895" Properties=species:S:1:pos:R:3 cutoff=-1.0 nneightol=1.2 n_minim_iter=2 stress="-0.38177829233680693 6.009694382492394e-16 8.222519477051967e-17 6.009694382492394e-16 -0.38177829233681243 -2.27328479659672e-16 8.222519477051967e-17 -2.27328479659672e-16 -0.37404737115009495" pbc="T T T"
Si       0.00000000       0.00000000       0.00000000
