1
Lattice="2.5188284289373906 1.6993811176559902e-18 7.565910765720456e-51 1.2594142144686953 2.181369407234227 -3.6306046822189485e-49 2.025993476491313e-49 -2.3217530277492716e-48 2.367304385002431" Properties=species:S:1:pos:R:3 cutoff=-1.0 nneightol=1.2 n_minim_iter=1 stress="-0.13551146408381895 -9.635765012170257e-18 -1.6070722269432746e-16 -9.635765012170257e-18 -0.13551146408382084 -5.53473007619468e-17 -1.6070722269432746e-16 -5.53473007619468e-17 -0.1429148049461598" pbc="T T T"
Si       0.00000000       0.00000000       0.00000000
