1
Lattice="2.5432846033569048 1.715880995353558e-18 7.639370804206286e-51 1.2716423016784526 2.202549075560908 -3.665855475935813e-49 2.189260797591262e-49 -3.148251197973069e-48 2.3902893601911233" Properties=species:S:1:pos:R:3 cutoff=-1.0 nneightol=1.2 n_minim_iter=2 stress="-0.10495362644883109 -1.1345182114455364e-15 2.277279455481316e-16 -1.1345182114455364e-15 -0.10495362644882868 4.225971226766103e-17 2.277279455481316e-16 4.225971226766103e-17 -0.10495137312615195" pbc="T T T"
Si       0.00000000       0.00000000       0.00000000
