1
Lattice="2.7940322441015835 1.2800182793030949e-17 -3.3793120826204767e-51 1.397016122050792 2.4197029023848153 3.1505625310874973e-49 2.2322079187300373e-49 -3.525956120576936e-48 2.6029592098331045" Properties=species:S:1:pos:R:3 cutoff=-1.0 nneightol=1.2 n_minim_iter=1 stress="0.059457663053605114 -3.826963692770385e-16 -1.241436122065246e-18 -3.826963692770385e-16 0.05945766305360366 -2.304121129138974e-16 -1.241436122065246e-18 -2.304121129138974e-16 0.0702778667463444" pbc="T T T"
Si       0.00000000       0.00000000       0.00000000
