8
Lattice="6.3095572959398645 -6.787156633982987e-16 -2.8011494546456706e-48 -3.1547786479699322 5.464236904917373 8.064517404262341e-49 2.2086019001099608e-48 5.4091233397144874e-49 4.974850666948147" Properties=species:S:1:pos:R:3:tags:I:1 spacegroup="P 1" unit_cell=conventional n_minim_iter=1 energy=-9782.03082979108 free_energy=-9782.03082979108 pbc="T T T"
Ti       3.15477865       3.75241011       1.24371266        0
Ti      -1.67228842       4.60832624       3.73113800        1
Ti       1.67228843       4.60832624       3.73113800        2
Ti       1.48249023       0.85592160       1.24371266        3
Ti       4.82706708       0.85592160       1.24371266        4
Ti       0.00000001       1.71183773       3.73113800        5
Al       0.00000001       3.64283007       1.24371266        6
Al       3.15477865       1.82141777       3.73113800        7
