8
Lattice="5.785731365756124 -7.889353254465269e-16 -4.7305759567974544e-48 -2.892865682878062 5.010590342217241 3.9787137499433216e-48 5.920709520324054e-48 -3.955553700241093e-48 4.733161051820407" Properties=species:S:1:pos:R:3:tags:I:1 spacegroup="P 1" unit_cell=conventional n_minim_iter=5 stress="-0.03933000653745365 -6.37674981015275e-17 6.989390193958688e-16 -6.37674981015275e-17 -0.03933000653745438 -1.733387200598524e-16 6.989390193958688e-16 -1.733387200598524e-16 -0.03927922037867333" pbc="T T T"
Ti       2.89286569       3.48595732       1.18329026        0
Ti      -1.57249040       4.24827634       3.54987079        1
Ti       1.57249041       4.24827634       3.54987079        2
Ti       1.32037528       0.76232404       1.18329026        3
Ti       4.46535610       0.76232404       1.18329026        4
Ti       0.00000001       1.52464306       3.54987079        5
Al       0.00000001       3.34039858       1.18329026        6
Al       2.89286569       1.67020180       3.54987079        7
