8
Lattice="6.162121382851463 -6.878108149099854e-16 -5.0121030457397446e-48 -3.0810606914257304 5.336553658752661 8.906045884092232e-50 1.5507612261782187e-48 1.7278189492399225e-48 4.868039623769422" Properties=species:S:1:pos:R:3:tags:I:1 spacegroup="P 1" unit_cell=conventional n_minim_iter=4 stress="0.13941156671906235 1.0383133208830094e-15 5.900042828152819e-17 1.0383133208830094e-15 0.13941156671906255 -2.0158723072976575e-16 5.900042828152819e-17 -2.0158723072976575e-16 0.1394092026424439" pbc="T T T"
Ti       3.08106070       3.66352025       1.21700990        0
Ti      -1.63216663       4.50003963       3.65102972        1
Ti       1.63216664       4.50003963       3.65102972        2
Ti       1.44889406       0.83652471       1.21700990        3
Ti       4.71322733       0.83652471       1.21700990        4
Ti       0.00000001       1.67304409       3.65102972        5
Al       0.00000001       3.55770778       1.21700990        6
Al       3.08106070       1.77885656       3.65102972        7
