8
Lattice="5.407473719360911 -1.8374482316566908e-16 2.5979902861805185e-48 -2.7037368596804536 4.683009611263272 -1.0668072944056788e-47 7.398880187814965e-49 1.1300770469752713e-48 4.665929482924026" Properties=species:S:1:pos:R:3:tags:I:1 spacegroup="P 1" unit_cell=conventional n_minim_iter=3 stress="-0.06503486556226518 2.2204367054204246e-16 -2.9525085091961934e-17 2.2204367054204246e-16 -0.06503486556226619 -6.647685358213544e-17 -2.9525085091961934e-17 -6.647685358213544e-17 -0.07221016500295957" pbc="T T T"
Ti       2.70373686       3.18351432       1.16648237        0
Ti      -1.40513178       3.93326431       3.49944711        1
Ti       1.40513179       3.93326431       3.49944711        2
Ti       1.29860508       0.74975468       1.16648237        3
Ti       4.10886865       0.74975468       1.16648237        4
Ti       0.00000000       1.49950467       3.49944711        5
Al       0.00000000       3.12201109       1.16648237        6
Al       2.70373686       1.56100789       3.49944711        7
