8
Lattice="5.4188355980139615 -3.221609339456428e-16 -6.20775929066439e-50 -2.7094177990069808 4.692849286811529 -1.0727454108483374e-47 3.856477708779619e-48 -7.716097556967194e-48 4.796266872004635" Properties=species:S:1:pos:R:3:tags:I:1 spacegroup="P 1" unit_cell=conventional n_minim_iter=4 stress="-0.07843675286501887 3.9450990151278484e-16 -2.3194561387259994e-17 3.9450990151278484e-16 -0.07843675286501955 1.2747017738882961e-17 -2.3194561387259994e-17 1.2747017738882961e-17 -0.07735087383600082" pbc="T T T"
Ti       2.70941780       3.20700206       1.19906672        0
Ti      -1.42263228       3.94992802       3.59720015        1
Ti       1.42263229       3.94992802       3.59720015        2
Ti       1.28678551       0.74293066       1.19906672        3
Ti       4.13205009       0.74293066       1.19906672        4
Ti       0.00000000       1.48585662       3.59720015        5
Al       0.00000000       3.12857089       1.19906672        6
Al       2.70941780       1.56428779       3.59720015        7
