8
Lattice="6.495142276989489 5.1418883981393065e-17 -1.0650643232461893e-47 -3.2475711384947443 5.624958213067197 -1.5205027901611614e-48 7.577826694807835e-48 6.177579497816099e-48 5.111920067703093" Properties=species:S:1:pos:R:3:tags:I:1 spacegroup="P 1" unit_cell=conventional n_minim_iter=4 stress="0.1537463760335419 -1.692217742436318e-16 -2.5104191996352525e-18 -1.692217742436318e-16 0.15374637603354172 8.154390890839323e-19 -2.5104191996352525e-18 8.154390890839323e-19 0.15377406807975344" pbc="T T T"
Ti       3.24757114       3.61368893       1.27798001        0
Ti      -1.50575596       4.61932639       3.83394005        1
Ti       1.50575597       4.61932639       3.83394005        2
Ti       1.74181518       1.00564309       1.27798001        3
Ti       4.75332711       1.00564309       1.27798001        4
Ti       0.00000001       2.01128054       3.83394005        5
Al       0.00000001       3.74997777       1.27798001        6
Al       3.24757114       1.87499170       3.83394005        7
