8
Lattice="5.7053170404613756 -5.6509146937243345e-16 -5.43025627077471e-48 -2.852658520230686 4.940949493683801 1.0849141681804449e-48 1.5757887992545542e-48 -1.6431748037749086e-48 4.867525629965389" Properties=species:S:1:pos:R:3:tags:I:1 spacegroup="P 1" unit_cell=conventional n_minim_iter=6 stress="-0.022507898008719815 7.915129950803246e-16 8.392885172484937e-17 7.915129950803246e-16 -0.022507898008719055 4.891095097499859e-18 8.392885172484937e-17 4.891095097499859e-18 -0.022189666452219564" pbc="T T T"
Ti       2.85265853       3.42650513       1.21688140        0
Ti      -1.54110694       4.18372979       3.65064422        1
Ti       1.54110695       4.18372979       3.65064422        2
Ti       1.31155158       0.75722960       1.21688140        3
Ti       4.39376547       0.75722960       1.21688140        4
Ti       0.00000000       1.51445425       3.65064422        5
Al       0.00000000       3.29397127       1.21688140        6
Al       2.85265853       1.64698811       3.65064422        7
