4
Lattice="3.191057194714735 -0.7196269018170631 1.9323416806864855e-13 0.7196269018170627 3.191057194714735 1.7202664604721587e-12 -1.9553420482662995 -1.235715146449993 2.3130833207810144" Properties=species:S:1:pos:R:3:tags:I:1 spacegroup="P 1" unit_cell=conventional n_minim_iter=1 energy=-11730.403473052982 free_energy=-11730.403473052982 pbc="T T T"
Ti       0.00000000       0.00000000       0.00000000        0
Al       1.95534205       1.23571515       0.00000000        1
Al       1.59552860      -0.35981345       1.15654166        2
Al       0.35981345       1.59552860       1.15654166        3
