4
Lattice="3.302138610137117 -0.7446772753930249 1.9996069272404485e-13 0.7446772753930253 3.3021386101371175 1.7801493211270526e-12 -2.023407942765486 -1.278730667373243 2.3936022690743335" Properties=species:S:1:pos:R:3:tags:I:1 spacegroup="P 1" unit_cell=conventional n_minim_iter=1 energy=-24184.181573667753 free_energy=-24184.181573667753 pbc="T T T"
Ti       0.00000000       0.00000000       0.00000000        0
Al       2.02340794       1.27873067       0.00000000        1
Al       1.65106931      -0.37233864       1.19680113        2
Al       0.37233864       1.65106931       1.19680113        3
