4
Lattice="3.4062107733070714 -0.7681469670273315 2.0626277276904116e-13 0.7681469670273315 3.4062107733070706 1.8362535652210086e-12 -2.0871788701676297 -1.3190319031411046 2.469040460901396" Properties=species:S:1:pos:R:3:tags:I:1 spacegroup="P 1" unit_cell=conventional n_minim_iter=1 energy=-13717.055863834306 free_energy=-13717.055863834306 pbc="T T T"
Ti       0.00000000       0.00000000       0.00000000        0
Al       2.08717887       1.31903190       0.00000000        1
Al       1.70310539      -0.38407348       1.23452023        2
Al       0.38407348       1.70310539       1.23452023        3
