4
Lattice="3.45594349362196 -0.779362373475833 2.0927433296663164e-13 0.7793623734758328 3.45594349362196 1.86306396864701e-12 -2.1176529335493304 -1.3382905600743162 2.5050899325460807" Properties=species:S:1:pos:R:3:tags:I:1 spacegroup="P 1" unit_cell=conventional n_minim_iter=1 stress="3392.3701129094775 -5.3914713849449927e-14 3.8821437488387717e-13 -5.3914713849449927e-14 3392.3701129094784 -1.6217132921147128e-12 3.8821437488387717e-13 -1.6217132921147128e-12 3392.370112909477" pbc="T T T"
Ti       0.00000000       0.00000000       0.00000000        0
Al       2.11765293       1.33829056       0.00000000        1
Al       1.72797175      -0.38968119       1.25254497        2
Al       0.38968119       1.72797175       1.25254497        3
