4
Lattice="3.4559434936219593 -0.7793623734758328 2.0927433296663164e-13 0.7793623734758328 3.4559434936219593 1.8630639686470096e-12 -2.1176529335493304 -1.3382905600743158 2.505089932546081" Properties=species:S:1:pos:R:3:tags:I:1 spacegroup="P 1" unit_cell=conventional n_minim_iter=1 stress="2838.7408098083456 -5.81708648543121e-14 -3.521025169776811e-13 -5.81708648543121e-14 2838.740809808345 -1.0110641748323559e-12 -3.521025169776811e-13 -1.0110641748323559e-12 2838.740809808346" pbc="T T T"
Ti       0.00000000       0.00000000       0.00000000        0
Al       2.11765293       1.33829056       0.00000000        1
Al       1.72797175      -0.38968119       1.25254497        2
Al       0.38968119       1.72797175       1.25254497        3
