4
Lattice="3.1023704323416865 -0.6996268278151279 1.8786374952076368e-13 0.6996268278151281 3.1023704323416865 1.6724563293811498e-12 -1.9009986300787967 -1.2013718022644035 2.248797456159428" Properties=species:S:1:pos:R:3:tags:I:1 spacegroup="P 1" unit_cell=conventional n_minim_iter=1 stress="-24396.27076842211 4.151317350071715e-12 -3.010845519818757e-11 4.151317350071715e-12 -24396.2707684221 -1.4241040395240645e-11 -3.010845519818757e-11 -1.4241040395240645e-11 -24396.270768422066" pbc="T T T"
Ti       0.00000000       0.00000000       0.00000000        0
Al       1.90099863       1.20137180       0.00000000        1
Al       1.55118522      -0.34981341       1.12439873        2
Al       0.34981341       1.55118522       1.12439873        3
