4
Lattice="3.480281925740995 -0.7848510217300589 2.1074814443275222e-13 0.7848510217300589 3.480281925740995 1.8761845697268654e-12 -2.1325664737359644 -1.3477154520067294 2.5227319922000873" Properties=species:S:1:pos:R:3:tags:I:1 spacegroup="P 1" unit_cell=conventional n_minim_iter=1 stress="2838.7408098083456 -5.81708648543121e-14 -3.521025169776811e-13 -5.81708648543121e-14 2838.740809808345 -1.0110641748323559e-12 -3.521025169776811e-13 -1.0110641748323559e-12 2838.740809808346" pbc="T T T"
Ti       0.00000000       0.00000000       0.00000000        0
Al       2.13256647       1.34771545       0.00000000        1
Al       1.74014096      -0.39242551       1.26136600        2
Al       0.39242551       1.74014096       1.26136600        3
