4
Lattice="3.0403063021021604 -0.6856305203117041 1.8410546195587673e-13 0.6856305203117037 3.040306302102161 1.6389981883530705e-12 -1.8629684112073142 -1.1773378908963303 2.203809386151281" Properties=species:S:1:pos:R:3:tags:I:1 spacegroup="P 1" unit_cell=conventional n_minim_iter=1 stress="3926.9762209423593 7.655781787261743e-11 -1.3820876179386106e-11 7.655781787261743e-11 3926.9762209421947 9.200417556973016e-12 -1.3820876179386106e-11 9.200417556973016e-12 3926.976220942404" pbc="T T T"
Ti       0.00000000       0.00000000       0.00000000        0
Al       1.86296841       1.17733789       0.00000000        1
Al       1.52015315      -0.34281526       1.10190469        2
Al       0.34281526       1.52015315       1.10190469        3
