2
Lattice="2.7270510593478274 1.2401094314719152e-16 2.7270510593478274 2.7270510593478274 2.7270510593478274 1.6131425805611198e-16 -1.5449465197090347e-16 2.7270510593478274 2.7270510593478274" Properties=species:S:1:pos:R:3:forces:R:3 n_minim_iter=1 energy=-326.3510559504455 stress="-0.0017401421672588993 3.214207329101828e-17 2.3018898916283664e-17 3.214207329101828e-17 -0.0017401421672588865 -4.233195860816782e-17 2.3018898916283664e-17 -4.233195860816782e-17 -0.001740142167258804" free_energy=-326.3510559504455 pbc="T T T"
Si       0.00000000       0.00000000       0.00000000      -0.00000000       0.00000000       0.00000000
Si       1.36352553       1.36352553       1.36352553       0.00000000      -0.00000000      -0.00000000
