2
Lattice="2.771764761569219 1.2604427081997937e-16 2.771764761569219 2.771764761569219 2.771764761569219 1.6395922419052335e-16 -1.5332787553215236e-16 2.771764761569219 2.771764761569219" Properties=species:S:1:pos:R:3:forces:R:3 n_minim_iter=1 energy=-326.3463021997616 stress="0.010801657538511795 -1.8621271548406228e-16 -3.975593287276065e-17 -1.8621271548406228e-16 0.010801657538511875 8.908622985222946e-17 -3.975593287276065e-17 8.908622985222946e-17 0.010801657538511755" free_energy=-326.3463021997616 pbc="T T T"
Si       0.00000000       0.00000000       0.00000000      -0.00000000       0.00000000      -0.00000000
Si       1.38588238       1.38588238       1.38588238       0.00000000      -0.00000000       0.00000000
