2
Lattice="2.5049198652670914 1.1390966587702863e-16 2.5049198652670914 2.5049198652670914 2.5049198652670914 1.4817444952871994e-16 -1.419103325817419e-16 2.5049198652670914 2.5049198652670914" Properties=species:S:1:pos:R:3:forces:R:3 n_minim_iter=1 energy=-325.6671976156541 stress="-0.20087670749465275 2.2578632587142587e-18 -1.4835283069323528e-16 2.2578632587142587e-18 -0.200876707494653 -9.070558353685223e-17 -1.4835283069323528e-16 -9.070558353685223e-17 -0.20087670749465286" free_energy=-325.6671976156541 pbc="T T T"
Si       0.00000000       0.00000000       0.00000000       0.00000000      -0.00000000      -0.00000000
Si       1.25245993       1.25245993       1.25245993      -0.00000000       0.00000000       0.00000000
