4
Lattice="5.330022808948258 -0.013181295826506486 9.250150386464335e-13 2.2757387953953656 4.819785246834221 2.8068430653860743e-12 -3.8028808021723113 -2.4033019755052862 2.8585930297036026" Properties=species:S:1:pos:R:3:tags:I:1 spacegroup="P 1" unit_cell=conventional n_minim_iter=1 energy=-1923.3547276898798 free_energy=-1923.3547276898798 pbc="T T T"
Ti       0.00000000       0.00000000       0.00000000        0
Al       3.80288080       2.40330198       0.00000000        1
Al       2.66501140      -0.00659065       1.42929651        2
Al       1.13786940       2.40989262       1.42929651        3
