4
Lattice="4.929562549703592 0.12819275867059282 9.356446276659525e-13 2.231551771459783 4.3974079872250265 2.5958721386904114e-12 -3.580557160582133 -2.262800372949073 2.5251465713501253" Properties=species:S:1:pos:R:3:tags:I:1 spacegroup="P 1" unit_cell=conventional n_minim_iter=1 energy=-1924.4711559493712 free_energy=-1924.4711559493712 pbc="T T T"
Ti       0.00000000       0.00000000       0.00000000        0
Al       3.58055716       2.26280037       0.00000000        1
Al       2.46478127       0.06409638       1.26257329        2
Al       1.11577589       2.19870399       1.26257329        3
