4
Lattice="4.737672789961502 0.17634537545216455 9.28800517323997e-13 2.1926846477078477 4.203424222213516 2.494659071255318e-12 -3.4651787188350975 -2.1898847988340324 2.3819282463065417" Properties=species:S:1:pos:R:3:tags:I:1 spacegroup="P 1" unit_cell=conventional n_minim_iter=1 energy=-1923.2731176670732 free_energy=-1923.2731176670732 pbc="T T T"
Ti       0.00000000       0.00000000       0.00000000        0
Al       3.46517872       2.18988480       0.00000000        1
Al       2.36883639       0.08817269       1.19096412        2
Al       1.09634232       2.10171211       1.19096412        3
4
Lattice="4.6991931549368235 0.1326205556253188 9.002520810586131e-13 2.1366765217434462 4.18743572614671 2.476815939515429e-12 -3.4179348383405603 -2.160028140887214 2.3983336695740842" Properties=species:S:1:pos:R:3:tags:I:1 spacegroup="P 1" unit_cell=conventional n_minim_iter=2 stress="-0.3012756752247493 -4.302667407888823e-06 1.0933946290664545e-15 -4.302667407888823e-06 -0.30127158602198145 3.00843150185915e-16 1.0933946290664545e-15 3.00843150185915e-16 -0.30126886687046694" pbc="T T T"
Ti       0.00000000       0.00000000       0.00000000        0
Al       3.41793484       2.16002814       0.00000000        1
Al       2.34959658       0.06631028       1.19916683        2
Al       1.06833826       2.09371786       1.19916683        3
