4
Lattice="4.929562549703594 0.12819275867059163 9.333041200352919e-13 2.231551771459785 4.397407987225026 2.5943229211375907e-12 -3.5805571605821354 -2.262800372949072 2.525146571350128" Properties=species:S:1:pos:R:3:tags:I:1 spacegroup="P 1" unit_cell=conventional n_minim_iter=2 stress="-0.031834994135255194 0.003864484632637894 2.9186544133949787e-15 0.003864484632637894 -0.03550775332124358 2.0405648243930493e-15 2.9186544133949787e-15 2.0405648243930493e-15 -0.03794998699488827" pbc="T T T"
Ti       0.00000000       0.00000000       0.00000000        0
Al       3.58055716       2.26280037       0.00000000        1
Al       2.46478127       0.06409638       1.26257329        2
Al       1.11577589       2.19870399       1.26257329        3
