4
Lattice="5.256495861491122 -0.012999461624217052 9.127686524548515e-13 2.2443452849296532 4.75329695789037 2.7703938172576634e-12 -3.7504205732108806 -2.3701487481344876 2.819159123502771" Properties=species:S:1:pos:R:3:tags:I:1 spacegroup="P 1" unit_cell=conventional n_minim_iter=1 stress="0.1444544886877105 0.00717526870923552 5.581718506190363e-15 0.00717526870923552 0.13763520058879958 3.4403835522519398e-15 5.581718506190363e-15 3.4403835522519398e-15 0.13310065471141472" pbc="T T T"
Ti       0.00000000       0.00000000       0.00000000        0
Al       3.75042057       2.37014875       0.00000000        1
Al       2.62824793      -0.00649973       1.40957956        2
Al       1.12217264       2.37664848       1.40957956        3
