4
Lattice="5.10293291963549 -0.01261969616408143 8.869399466806617e-13 2.1787791219238963 4.614434437382265 2.6890539602522154e-12 -3.640856020780172 -2.3009073706104597 2.736800384911197" Properties=species:S:1:pos:R:3:tags:I:1 spacegroup="P 1" unit_cell=conventional n_minim_iter=1 stress="0.07645162254259258 0.006859900964093978 5.402541328308966e-15 0.006859900964093978 0.06993205611242602 3.496260672719712e-15 5.402541328308966e-15 3.496260672719712e-15 0.06559681280704739" pbc="T T T"
Ti       0.00000000       0.00000000       0.00000000        0
Al       3.64085602       2.30090737       0.00000000        1
Al       2.55146646      -0.00630985       1.36840019        2
Al       1.08938956       2.30721722       1.36840019        3
