8
Lattice="7.086174694527683 -1.2239350815897226e-15 -2.7852516873687513e-47 -3.5430873472638407 6.136807301115408 4.169744221593722e-45 2.5796001101769492e-47 -4.4444070216589413e-45 6.562960577543368" Properties=species:S:1:pos:R:3:tags:I:1 spacegroup="P 1" unit_cell=conventional n_minim_iter=1 energy=-9924.952320195061 free_energy=-9924.952320195061 pbc="T T T"
Ti       3.54308735       3.35219040       1.64074014        0
Ti      -1.13153304       4.74450192       4.92222043        1
Ti       1.13153305       4.74450192       4.92222043        2
Ti       2.41155431       1.39231767       1.64074014        3
Ti       4.67462040       1.39231767       1.64074014        4
Ti       0.00000001       2.78462919       4.92222043        5
Al       0.00000001       4.09121101       1.64074014        6
Al       3.54308735       2.04560858       4.92222043        7
8
Lattice="7.095955720936147 -1.1199705645227218e-15 -2.806463243701598e-47 -3.5479778604680727 6.145277918460225 4.1751524721620886e-45 2.5571704955533605e-47 -4.432605658412581e-45 6.544880349322946" Properties=species:S:1:pos:R:3:tags:I:1 spacegroup="P 1" unit_cell=conventional n_minim_iter=2 stress="4.876712885371342 -7.727709534518633e-15 1.051081144847461e-15 -7.727709534518633e-15 4.876712885371351 5.734918224204219e-16 1.051081144847461e-15 5.734918224204219e-16 4.894362515368419" pbc="T T T"
Ti       3.54797787       3.35674469       1.63622008        0
Ti      -1.13303191       4.75101438       4.90866026        1
Ti       1.13303192       4.75101438       4.90866026        2
Ti       2.41494595       1.39427584       1.63622008        3
Ti       4.68100978       1.39427584       1.63622008        4
Ti       0.00000001       2.78854553       4.90866026        5
Al       0.00000001       4.09685810       1.63622008        6
Al       3.54797787       2.04843212       4.90866026        7
8
Lattice="7.096454032814778 -1.1132380022373577e-15 -3.2516701982182064e-47 -3.548227016407388 6.145709469206127 4.1932349246907953e-45 3.3805970807557297e-47 -4.4510169598685423e-45 6.543961220670775" Properties=species:S:1:pos:R:3:tags:I:1 spacegroup="P 1" unit_cell=conventional n_minim_iter=3 stress="4.879985903704791 -4.991078231782112e-15 1.0749761694692959e-15 -4.991078231782112e-15 4.879985903704799 5.951302708668452e-16 1.0749761694692959e-15 5.951302708668452e-16 4.8798882117086" pbc="T T T"
Ti       3.54822702       3.35682377       1.63599030        0
Ti      -1.13297582       4.75126969       4.90797091        1
Ti       1.13297583       4.75126969       4.90797091        2
Ti       2.41525120       1.39445208       1.63599030        3
Ti       4.68120285       1.39445208       1.63599030        4
Ti       0.00000001       2.78889800       4.90797091        5
Al       0.00000001       4.09714580       1.63599030        6
Al       3.54822702       2.04857597       4.90797091        7
