8
Lattice="6.672098503882609 -1.051466522736688e-15 -4.47270890876781e-46 -3.336049251941303 5.778206800914486 -8.159749620328237e-47 3.9498019354044716e-46 3.112472007641067e-46 5.8920596268146" Properties=species:S:1:pos:R:3:tags:I:1 spacegroup="P 1" unit_cell=conventional n_minim_iter=1 energy=-10134.575955763146 free_energy=-10134.575955763146 pbc="T T T"
Ti       3.33604926       3.51677006       1.47301490        0
Ti      -1.37758257       4.64749132       4.41904472        1
Ti       1.37758258       4.64749132       4.41904472        2
Ti       1.95846668       1.13072705       1.47301490        3
Ti       4.71363183       1.13072705       1.47301490        4
Ti       0.00000001       2.26144831       4.41904472        5
Al       0.00000001       3.85214365       1.47301490        6
Al       3.33604926       1.92607472       4.41904472        7
8
Lattice="6.666840223936368 -1.0433433882457476e-15 -4.487659339742944e-46 -3.3334201119681826 5.773652996900828 -8.524226222587675e-47 3.938677830659539e-46 3.066978899706633e-46 5.901357679883165" Properties=species:S:1:pos:R:3:tags:I:1 spacegroup="P 1" unit_cell=conventional n_minim_iter=2 stress="-2.11836830705019 -1.4402355025445535e-14 -6.224942306014968e-15 -1.4402355025445535e-14 -2.118368307050262 -2.600120398638354e-15 -6.224942306014968e-15 -2.600120398638354e-15 -2.107821387132452" pbc="T T T"
Ti       3.33342012       3.51426312       1.47533942        0
Ti      -1.37672607       4.64396095       4.42601826        1
Ti       1.37672608       4.64396095       4.42601826        2
Ti       1.95669404       1.12970361       1.47533942        3
Ti       4.71014619       1.12970361       1.47533942        4
Ti       0.00000001       2.25940143       4.42601826        5
Al       0.00000001       3.84910778       1.47533942        6
Al       3.33342012       1.92455678       4.42601826        7
8
Lattice="6.687366731883774 -1.0406054557147222e-15 -5.004179714202437e-46 -3.3436833659418856 5.791429474234267 -1.6622830341322173e-46 4.520396906238399e-46 3.786649585008058e-46 5.86518548755369" Properties=species:S:1:pos:R:3:tags:I:1 spacegroup="P 1" unit_cell=conventional n_minim_iter=3 stress="-1.685434565294565 -2.7604425552650876e-14 2.599639604689442e-15 -2.7604425552650876e-14 -1.6854345652945735 -4.110956330815e-15 2.599639604689442e-15 -4.110956330815e-15 -1.6867568777025836" pbc="T T T"
Ti       3.34368337       3.56517470       1.46629637        0
Ti      -1.41568515       4.67830499       4.39888911        1
Ti       1.41568517       4.67830499       4.39888911        2
Ti       1.92799821       1.11313608       1.46629637        3
Ti       4.75936853       1.11313608       1.46629637        4
Ti       0.00000001       2.22626636       4.39888911        5
Al       0.00000001       3.86095878       1.46629637        6
Al       3.34368337       1.93048229       4.39888911        7
8
Lattice="6.701232808697039 -1.0414382852338966e-15 -6.210582214055305e-46 -3.3506164043485183 5.803437849005379 -3.2632288002718482e-46 5.546592551564346e-46 4.358956550149469e-46 5.8409383155853165" Properties=species:S:1:pos:R:3:tags:I:1 spacegroup="P 1" unit_cell=conventional n_minim_iter=4 stress="-1.3883039296269826 -2.1161275664750576e-14 -2.924259868365774e-15 -2.1161275664750576e-14 -1.3883039296270616 -7.6230629902145e-15 -2.924259868365774e-15 -7.6230629902145e-15 -1.3561946433991678" pbc="T T T"
Ti       3.35061641       3.59983214       1.46023458        0
Ti      -1.44223284       4.70163790       4.38070373        1
Ti       1.44223285       4.70163790       4.38070373        2
Ti       1.90838356       1.10181157       1.46023458        3
Ti       4.79284926       1.10181157       1.46023458        4
Ti       0.00000001       2.20361733       4.38070373        5
Al       0.00000001       3.86896437       1.46023458        6
Al       3.35061641       1.93448509       4.38070373        7
8
Lattice="6.703364153637033 -1.0665666980134448e-15 -7.404429715309576e-46 -3.3516820768185154 5.805283647867642 -4.06178390218557e-46 4.140628663465031e-46 3.539608623689535e-46 5.83722463542698" Properties=species:S:1:pos:R:3:tags:I:1 spacegroup="P 1" unit_cell=conventional n_minim_iter=5 stress="-1.3412471888152435 -3.239921396265228e-14 2.4159578298677726e-15 -3.239921396265228e-14 -1.341247188815279 8.229534120906311e-16 2.4159578298677726e-15 8.229534120906311e-16 -1.3364785810191364" pbc="T T T"
Ti       3.35168208       3.60440062       1.45930616        0
Ti      -1.44565642       4.70484504       4.37791847        1
Ti       1.44565643       4.70484504       4.37791847        2
Ti       1.90602565       1.10045023       1.45930616        3
Ti       4.79733851       1.10045023       1.45930616        4
Ti       0.00000001       2.20089465       4.37791847        5
Al       0.00000001       3.87019491       1.45930616        6
Al       3.35168208       1.93510036       4.37791847        7
8
Lattice="6.703665004203711 -1.0660564440221368e-15 -7.407891542820381e-46 -3.3518325021018542 5.805544192101128 -4.4644463262714824e-46 4.487220467431315e-46 3.732992917302436e-46 5.8367007151738175" Properties=species:S:1:pos:R:3:tags:I:1 spacegroup="P 1" unit_cell=conventional n_minim_iter=6 stress="-1.3345750490259478 -1.4505986241834808e-14 2.7943489038489458e-15 -1.4505986241834808e-14 -1.3345750490259851 1.2919557166969072e-15 2.7943489038489458e-15 1.2919557166969072e-15 -1.3344576814232778" pbc="T T T"
Ti       3.35183251       3.60502714       1.45917518        0
Ti      -1.44612379       4.70528857       4.37752553        1
Ti       1.44612380       4.70528857       4.37752553        2
Ti       1.90570871       1.10026724       1.45917518        3
Ti       4.79795631       1.10026724       1.45917518        4
Ti       0.00000001       2.20052868       4.37752553        5
Al       0.00000001       3.87036861       1.45917518        6
Al       3.35183251       1.93518721       4.37752553        7
