8
Lattice="6.627235583683469 -1.0827004954424113e-15 4.668448458097664e-46 -3.313617791841733 5.739354372334076 2.8403110673807727e-45 5.147812088899716e-46 -3.625881650309528e-46 6.278363600999515" Properties=species:S:1:pos:R:3:tags:I:1 spacegroup="P 1" unit_cell=conventional n_minim_iter=7 stress="0.7383532515757286 -8.326312878815495e-14 4.744493302720989e-15 -8.326312878815495e-14 0.7383532515756586 1.1481215202051277e-14 4.744493302720989e-15 1.1481215202051277e-14 0.7382802262059522" pbc="T T T"
Ti       3.31361780       3.15405097       1.56959090        0
Ti      -1.07467439       4.44670554       4.70877270        1
Ti       1.07467440       4.44670554       4.70877270        2
Ti       2.23894340       1.29266032       1.56959090        3
Ti       4.38829219       1.29266032       1.56959090        4
Ti       0.00000001       2.58531489       4.70877270        5
Al       0.00000001       3.82624199       1.56959090        6
Al       3.31361780       1.91312387       4.70877270        7
