8
Lattice="6.645871912817064 -1.056865844931332e-15 -7.344027230888308e-46 -3.322935956408531 5.7554939067970565 -4.4259578047891e-46 4.4485356073758576e-46 3.700810342445237e-46 5.786381825787635" Properties=species:S:1:pos:R:3:tags:I:1 spacegroup="P 1" unit_cell=conventional n_minim_iter=6 stress="-1.3345750490259478 -1.4505986241834808e-14 2.7943489038489458e-15 -1.4505986241834808e-14 -1.3345750490259851 1.2919557166969072e-15 2.7943489038489458e-15 1.2919557166969072e-15 -1.3344576814232778" pbc="T T T"
Ti       3.32293596       3.57394777       1.44659545        0
Ti      -1.43365659       4.66472372       4.33978637        1
Ti       1.43365660       4.66472372       4.33978637        2
Ti       1.88927937       1.09078171       1.44659545        3
Ti       4.75659256       1.09078171       1.44659545        4
Ti       0.00000001       2.18155766       4.33978637        5
Al       0.00000001       3.83700170       1.44659545        6
Al       3.32293596       1.91850373       4.33978637        7
