8
Lattice="6.748154616853884 -1.0332383656213868e-15 -4.846351014503745e-47 -3.3740773084269398 5.844073326860712 4.0332626333921025e-45 4.4281846108787645e-47 -4.3967198705467554e-45 6.350761904647454" Properties=species:S:1:pos:R:3:tags:I:1 spacegroup="P 1" unit_cell=conventional n_minim_iter=4 stress="4.365055668161218 2.6274748457165817e-14 2.705932207566925e-16 2.6274748457165817e-14 4.3650556681612755 -1.0771113078207251e-16 2.705932207566925e-16 -1.0771113078207251e-16 4.3650569176966005" pbc="T T T"
Ti       3.37407731       3.20570732       1.58769047        0
Ti      -1.08918025       4.52489325       4.76307143        1
Ti       1.08918026       4.52489325       4.76307143        2
Ti       2.28489706       1.31919178       1.58769047        3
Ti       4.46325757       1.31919178       1.58769047        4
Ti       0.00000001       2.63837771       4.76307143        5
Al       0.00000001       3.89605473       1.58769047        6
Al       3.37407731       1.94803029       4.76307143        7
