8
Lattice="6.646268576504951 -1.0495405619495818e-15 -9.775942956642078e-46 -3.3231342882524757 5.755837427627527 7.98078650816163e-47 7.318668444560426e-46 -6.277006382753927e-48 5.328926067339761" Properties=species:S:1:pos:R:3:tags:I:1 spacegroup="P 1" unit_cell=conventional n_minim_iter=6 stress="-1.483686629335154 -2.5791549487468113e-14 1.4297167263775727e-15 -2.5791549487468113e-14 -1.4836866293351687 9.569939557159623e-15 1.4297167263775727e-15 9.569939557159623e-15 -1.4840232475833117" pbc="T T T"
Ti       3.32313429       3.90056340       1.33223151        0
Ti      -1.71641486       4.82820330       3.99669455        1
Ti       1.71641487       4.82820330       3.99669455        2
Ti       1.60671943       0.92764565       1.33223151        3
Ti       5.03954916       0.92764565       1.33223151        4
Ti       0.00000001       1.85528555       3.99669455        5
Al       0.00000001       3.83723071       1.33223151        6
Al       3.32313429       1.91861824       3.99669455        7
