8
Lattice="6.708972926619967 -1.0594424727885514e-15 -9.868174280549855e-46 -3.3544864633099833 5.810140987754924 8.056081393651214e-47 7.387716564304747e-46 -6.336226921522069e-48 5.379201923937663" Properties=species:S:1:pos:R:3:tags:I:1 spacegroup="P 1" unit_cell=conventional n_minim_iter=6 stress="-1.483686629335154 -2.5791549487468113e-14 1.4297167263775727e-15 -2.5791549487468113e-14 -1.4836866293351687 9.569939557159623e-15 1.4297167263775727e-15 9.569939557159623e-15 -1.4840232475833117" pbc="T T T"
Ti       3.35448647       3.93736334       1.34480048        0
Ti      -1.73260841       4.87375507       4.03440144        1
Ti       1.73260842       4.87375507       4.03440144        2
Ti       1.62187806       0.93639754       1.34480048        3
Ti       5.08709488       0.93639754       1.34480048        4
Ti       0.00000001       1.87278927       4.03440144        5
Al       0.00000001       3.87343314       1.34480048        6
Al       3.35448647       1.93671948       4.03440144        7
