8
Lattice="6.920808251177136 -1.298622860836606e-15 -2.4681237154313853e-47 -3.4604041255885667 5.9935957602403525 4.0896627578189443e-45 3.5551243738533115e-47 -4.191730702187182e-45 6.459094270009088" Properties=species:S:1:pos:R:3:tags:I:1 spacegroup="P 1" unit_cell=conventional n_minim_iter=4 stress="5.721649389528332 -8.965998610238491e-15 -1.1983413379397586e-15 -8.965998610238491e-15 5.721649389528327 6.228067660902968e-16 -1.1983413379397586e-15 6.228067660902968e-16 5.721348583074729" pbc="T T T"
Ti       3.46040413       3.27526075       1.61477356        0
Ti      -1.10625175       4.63443125       4.84432070        1
Ti       1.10625176       4.63443125       4.84432070        2
Ti       2.35415238       1.35917650       1.61477356        3
Ti       4.56665589       1.35917650       1.61477356        4
Ti       0.00000001       2.71834701       4.84432070        5
Al       0.00000001       3.99573651       1.61477356        6
Al       3.46040413       1.99787125       4.84432070        7
