4
Lattice="1.94180252193445 -3.363300626255846 8.473852853682747e-37 1.9418025219344501 3.363300626255846 -8.473852853683013e-37 4.365163470880222e-50 1.6080995438034427e-36 6.38260103891847" Properties=species:S:1:pos:R:3:forces:R:3 cutoff=-1.0 nneightol=1.2 n_minim_iter=1 energy=-652.640755368739 stress="0.011385561652666729 -1.2942692416812705e-16 -2.118920957052062e-17 -1.2942692416812705e-16 0.011385561652666437 4.577830766159032e-17 -2.118920957052062e-17 4.577830766159032e-17 0.011335385193179828" free_energy=-652.640755368739 pbc="T T T"
Si       1.94180252       1.12110021       0.39832492      -0.00000000       0.00000000       0.02023453
Si       1.94180252      -1.12110021       3.58962544       0.00000000      -0.00000000       0.02023453
Si       1.94180252       1.12110021       2.79297560      -0.00000000       0.00000000      -0.02023453
Si       1.94180252      -1.12110021      -0.39832492       0.00000000      -0.00000000      -0.02023453
4
Lattice="1.9416659149096565 -3.363064015948233 8.476649478341593e-36 1.9416659149096567 3.363064015948233 -8.476649478342201e-36 1.922475581437235e-48 -1.286998785814727e-35 6.383499173662944" Properties=species:S:1:pos:R:3:forces:R:3 cutoff=-1.0 nneightol=1.2 n_minim_iter=2 energy=-652.6407969294064 stress="0.011508885073080878 5.676619481058204e-18 -8.248105368037567e-17 5.676619481058204e-18 0.011508885073080522 2.8016440656487966e-17 -8.248105368037567e-17 2.8016440656487966e-17 0.010998843061326402" free_energy=-652.6407969294064 pbc="T T T"
Si       1.94166591       1.12102134       0.39940205      -0.00000000      -0.00000000      -0.00151063
Si       1.94166591      -1.12102134       3.59115164       0.00000000       0.00000000      -0.00151063
Si       1.94166591       1.12102134       2.79234754      -0.00000000      -0.00000000       0.00151063
Si       1.94166591      -1.12102134      -0.39940205       0.00000000       0.00000000       0.00151063
