4
Lattice="1.8418343865199582 -3.1901507365800206 1.6936939526292324e-35 1.8418343865199578 3.1901507365800206 -1.6936939526290835e-35 -2.44312564017315e-48 3.215248814097315e-35 6.0560695494355565" Properties=species:S:1:pos:R:3:forces:R:3 cutoff=-1.0 nneightol=1.2 n_minim_iter=1 energy=-652.244515963685 stress="-0.09657651796550305 -5.177076966725082e-16 -3.4693086830156205e-17 -5.177076966725082e-16 -0.09657651796550404 -7.872638458345102e-17 -3.4693086830156205e-17 -7.872638458345102e-17 -0.09417765125906062" free_energy=-652.244515963685 pbc="T T T"
Si       1.84183439       1.06338358       0.38082488      -0.00000000       0.00000000       0.06747378
Si       1.84183439      -1.06338358       3.40885965       0.00000000      -0.00000000       0.06747378
Si       1.84183439       1.06338358       2.64720990      -0.00000000       0.00000000      -0.06747378
Si       1.84183439      -1.06338358      -0.38082488       0.00000000      -0.00000000      -0.06747378
4
Lattice="1.8426160008527073 -3.1915045323162663 5.770402139782328e-35 1.8426160008527068 3.1915045323162663 -5.770402139782044e-35 -2.2074588490595264e-48 -4.523193202339102e-35 6.050932823378512" Properties=species:S:1:pos:R:3:forces:R:3 cutoff=-1.0 nneightol=1.2 n_minim_iter=2 energy=-652.2446567074142 stress="-0.09533207939505113 -3.542210556180319e-16 5.741489794805978e-17 -3.542210556180319e-16 -0.0953320793950511 -3.128036703040703e-17 5.741489794805978e-17 -3.128036703040703e-17 -0.09620501284102403" free_energy=-652.2446567074142 pbc="T T T"
Si       1.84261600       1.06383484       0.38100449      -0.00000000       0.00000000       0.02652958
Si       1.84261600      -1.06383484       3.40647090       0.00000000       0.00000000       0.02652958
Si       1.84261600       1.06383484       2.64446192      -0.00000000      -0.00000000      -0.02652958
Si       1.84261600      -1.06383484      -0.38100449       0.00000000      -0.00000000      -0.02652958
4
Lattice="1.841356856405166 -3.1893236301590555 3.7611043072437925e-35 1.8413568564051657 3.1893236301590555 -3.7611043072431927e-35 -4.459351513029197e-48 -6.908361338257643e-36 6.0592110703973034" Properties=species:S:1:pos:R:3:forces:R:3 cutoff=-1.0 nneightol=1.2 n_minim_iter=3 energy=-652.2448026539025 stress="-0.09544050477750479 -4.813773319937357e-16 -7.296841721412103e-17 -4.813773319937357e-16 -0.09544050477750506 -1.2382303203391142e-16 -7.296841721412103e-17 -1.2382303203391142e-16 -0.0954716789674766" free_energy=-652.2448026539025 pbc="T T T"
Si       1.84135686       1.06310788       0.38348379      -0.00000000       0.00000000      -0.00051385
Si       1.84135686      -1.06310788       3.41308933       0.00000000       0.00000000      -0.00051385
Si       1.84135686       1.06310788       2.64612174      -0.00000000      -0.00000000       0.00051385
Si       1.84135686      -1.06310788      -0.38348379       0.00000000      -0.00000000       0.00051385
