4
Lattice="1.9258853919166128 -3.3357313483542748 8.404391919267178e-37 1.925885391916613 3.3357313483542748 -8.404391919267437e-37 1.294795403762978e-50 -1.5847473417118543e-36 6.330282283823212" Properties=species:S:1:pos:R:3:forces:R:3 cutoff=-1.0 nneightol=1.2 n_minim_iter=3 energy=-652.6525646585445 stress="0.00013487392984109944 7.993389806765084e-17 2.6563492036774064e-17 7.993389806765084e-17 0.00013487392984157923 -3.3840206352559244e-17 2.6563492036774064e-17 -3.3840206352559244e-17 -0.00010795945798586684" free_energy=-652.6525646585445 pbc="T T T"
Si       1.92588539       1.11191045       0.39505981       0.00000000      -0.00000000       0.00647677
Si       1.92588539      -1.11191045       3.56020095      -0.00000000       0.00000000       0.00647677
Si       1.92588539       1.11191045       2.77008133       0.00000000      -0.00000000      -0.00647677
Si       1.92588539      -1.11191045      -0.39505981      -0.00000000       0.00000000      -0.00647677
