2
Lattice="3.1127413193045745 -1.0055155046963448e-15 3.714222808338903e-41 -1.5563706596522864 2.695713057927251 2.689006142052031e-25 -2.465415719411565e-40 -4.762400092150022e-25 4.774278464714025" Properties=species:S:1:pos:R:3 n_minim_iter=1 energy=-3186.8229265879513 free_energy=-3186.8229265879513 pbc="T T T"
Ti       0.00000000       0.00000000       0.00000000
Ti       0.00000000       1.79714204       2.38713923
2
Lattice="3.0479380318818374 -9.556245603657537e-16 2.215969486660309e-41 -1.5239690159409178 2.6395917647704157 2.633024478293399e-25 -2.8694284933988108e-40 -4.96706305410495e-25 4.979451896781736" Properties=species:S:1:pos:R:3 n_minim_iter=2 stress="0.08842626754632107 2.416685638002204e-16 2.773092708112015e-17 2.416685638002204e-16 0.08842626754632096 1.6357044058565422e-17 2.773092708112015e-17 1.6357044058565422e-17 0.08993910789861496" pbc="T T T"
Ti       0.00000000       0.00000000       0.00000000
Ti       0.00000000       1.75972784       2.48972595
