2
Lattice="3.02741742606537 -9.77953144457479e-16 3.612411601477638e-41 -1.513708713032684 2.621820398832308 2.6152973273936786e-25 -2.745366257434088e-40 -4.63185711560876e-25 4.643409888038176" Properties=species:S:1:pos:R:3 n_minim_iter=1 energy=-3187.1238713761 free_energy=-3187.1238713761 pbc="T T T"
Ti       0.00000000       0.00000000       0.00000000
Ti       0.00000000       1.74788027       2.32170494
