2
Lattice="3.07067209037452 -9.919257914434491e-16 3.664024454671611e-41 -1.5353360451872593 2.6592800369562 2.652663766191006e-25 -2.079599337485228e-40 -4.698035444021171e-25 4.709753278357468" Properties=species:S:1:pos:R:3 n_minim_iter=1 energy=-3186.986299011578 free_energy=-3186.986299011578 pbc="T T T"
Ti       0.00000000       0.00000000       0.00000000
Ti       0.00000000       1.77285336       2.35487664
