2
Lattice="3.0918498084936 -9.987668751501997e-16 3.6892943873764664e-41 -1.5459249042467993 2.6776204788415097 2.6709585771808173e-25 -1.73901490359673e-40 -4.730436712348977e-25 4.742235361889644" Properties=species:S:1:pos:R:3 n_minim_iter=1 energy=-3186.90744159576 free_energy=-3186.90744159576 pbc="T T T"
Ti       0.00000000       0.00000000       0.00000000
Ti       0.00000000       1.78508032       2.37111768
