2
Lattice="3.0706720903745204 -9.919257914434493e-16 3.664024454671612e-41 -1.5353360451872589 2.6592800369562 2.652663766191005e-25 -2.0795993374852285e-40 -4.698035444021171e-25 4.709753278357469" Properties=species:S:1:pos:R:3 n_minim_iter=1 stress="0.08653681750457445 3.1445712090014385e-16 8.1967789572414e-17 3.1445712090014385e-16 0.08653681750457351 -5.322706872771641e-17 8.1967789572414e-17 -5.322706872771641e-17 0.08514128756146067" pbc="T T T"
Ti       0.00000000       0.00000000       0.00000000
Ti       0.00000000       1.77285336       2.35487664
