2
Lattice="2.9056599092499673 -9.24074777254161e-16 4.951145757967495e-41 -1.4528299546249828 2.5163752961684587 2.5101145714328447e-25 -1.9107158812323904e-40 -4.590940484775177e-25 4.6023912029933305" Properties=species:S:1:pos:R:3 n_minim_iter=1 stress="0.01694316758528715 1.8852119346566733e-16 -7.61741797126681e-18 1.8852119346566733e-16 0.01694316758528708 -6.996935051596897e-19 -7.61741797126681e-18 -6.996935051596897e-19 0.015165463607882616" pbc="T T T"
Ti       0.00000000       0.00000000       0.00000000
Ti       0.00000000       1.67758353       2.30119560
