2
Lattice="3.0491981564157125 -9.849890204986568e-16 3.638401067723293e-41 -1.5245990782078553 2.6406830646286834 2.634113063004993e-25 -2.7651177729176383e-40 -4.665180974415871e-25 4.676816863173718" Properties=species:S:1:pos:R:3 n_minim_iter=1 stress="0.07598179163650934 -1.3486920065276397e-16 1.618932853136867e-17 -1.3486920065276397e-16 0.07598179163650952 -6.861027293089384e-17 1.618932853136867e-17 -6.861027293089384e-17 0.07670990860952183" pbc="T T T"
Ti       0.00000000       0.00000000       0.00000000
Ti       0.00000000       1.76045538       2.33840843
