2
Lattice="2.7601277580789563 -8.777918004513503e-16 4.703163917207528e-41 -1.3800638790394775 2.390340756186966 2.3843936045353023e-25 -2.1318633739809967e-40 -4.360999794703195e-25 4.371876995129601" Properties=species:S:1:pos:R:3 n_minim_iter=1 stress="-0.07961278385888551 1.7073484897882114e-16 -3.726001716640026e-17 1.7073484897882114e-16 -0.07961278385888565 -7.105296559764667e-17 -3.726001716640026e-17 -7.105296559764667e-17 -0.08167173271085838" pbc="T T T"
Ti       0.00000000       0.00000000       0.00000000
Ti       0.00000000       1.59356050       2.18593850
