2
Lattice="3.0491981564157125 -9.849890204986568e-16 3.6384010677232913e-41 -1.524599078207855 2.640683064628683 2.634113063004993e-25 -2.0650562089714664e-40 -4.665180974415872e-25 4.676816863173719" Properties=species:S:1:pos:R:3 n_minim_iter=1 stress="0.08653681750457445 3.1445712090014385e-16 8.1967789572414e-17 3.1445712090014385e-16 0.08653681750457351 -5.322706872771641e-17 8.1967789572414e-17 -5.322706872771641e-17 0.08514128756146067" pbc="T T T"
Ti       0.00000000       0.00000000       0.00000000
Ti       0.00000000       1.76045538       2.33840843
