2
Lattice="3.00531870081189 -9.708145458406937e-16 3.5860426935113195e-41 -1.5026593504059442 2.602682341371542 2.596206885290573e-25 -2.821468879889074e-40 -4.598046734215718e-25 4.609515176832654" Properties=species:S:1:pos:R:3 n_minim_iter=2 stress="0.06475210933016862 3.615609367155805e-17 1.444466761374095e-17 3.615609367155805e-17 0.064752109330169 1.584165823205174e-17 1.444466761374095e-17 1.584165823205174e-17 0.06416061461467769" pbc="T T T"
Ti       0.00000000      -0.00000000      -0.00000000
Ti       0.00000000       1.73512156       2.30475759
