2
Lattice="2.7854514456320074 -8.858453860965059e-16 4.746314620359414e-41 -1.392725722816003 2.412271712925408 2.40626999720155e-25 -2.1514228461215408e-40 -4.401011202108788e-25 4.411988198939272" Properties=species:S:1:pos:R:3 n_minim_iter=1 stress="-0.07961278385888551 1.7073484897882114e-16 -3.726001716640026e-17 1.7073484897882114e-16 -0.07961278385888565 -7.105296559764667e-17 -3.726001716640026e-17 -7.105296559764667e-17 -0.08167173271085838" pbc="T T T"
Ti       0.00000000       0.00000000       0.00000000
Ti       0.00000000       1.60818114       2.20599410
