2
Lattice="3.1918950660449696 0.0 0.0 0.0 3.1918950660449705 0.0 0.0 0.0 3.1918950660449696" Properties=species:S:1:pos:R:3 Minim_Constant_Volume=F n_minim_iter=1 stress="0.01766075731565693 6.94646344051051e-18 -6.39859756760535e-17 6.94646344051051e-18 0.017660757315657312 4.906968335219337e-17 -6.39859756760535e-17 4.906968335219337e-17 0.017660757315656656" pbc="T T T"
Ti       0.00000000       0.00000000       0.00000000
Ti       1.59594753       1.59594753       1.59594753
