2
Lattice="3.139126777195372 0.0 0.0 0.0 3.139126777195372 0.0 0.0 0.0 3.139126777195372" Properties=species:S:1:pos:R:3 Minim_Constant_Volume=F n_minim_iter=1 stress="-0.02092971665348957 -7.96187887989335e-17 -2.5326878317533606e-17 -7.96187887989335e-17 -0.02092971665348951 -1.2512725656462078e-17 -2.5326878317533606e-17 -1.2512725656462078e-17 -0.020929716653489295" pbc="T T T"
Ti       0.00000000       0.00000000       0.00000000
Ti       1.56956339       1.56956339       1.56956339
