2
Lattice="3.3872923388307434 0.0 0.0 0.0 3.3872923388307434 0.0 0.0 0.0 3.3872923388307434" Properties=species:S:1:pos:R:3 Minim_Constant_Volume=F n_minim_iter=1 stress="0.04681222361939748 2.0769208599790213e-17 1.8631462290037424e-17 2.0769208599790213e-17 0.04681222361939739 8.569854430054348e-18 1.8631462290037424e-17 8.569854430054348e-18 0.04681222361939739" pbc="T T T"
Ti       0.00000000       0.00000000       0.00000000
Ti       1.69364617       1.69364617       1.69364617
