2
Lattice="2.9388041601749584 0.0 0.0 0.0 2.9388041601749584 0.0 0.0 9.860761315262654e-32 2.9388041601749584" Properties=species:S:1:pos:R:3 Minim_Constant_Volume=F n_minim_iter=1 stress="-0.25842051895098667 -4.726951560925981e-16 -8.068342196928368e-17 -4.726951560925981e-16 -0.2584205189509891 -3.424175722711658e-17 -8.068342196928368e-17 -3.424175722711658e-17 -0.2584205189509881" pbc="T T T"
Ti       0.00000000       0.00000000       0.00000000
Ti       1.46940208       1.46940208       1.46940208
