2
Lattice="3.316703102971938 0.0 0.0 0.0 3.316703102971938 0.0 0.0 4.930380657631324e-32 3.316703102971938" Properties=species:S:1:pos:R:3 Minim_Constant_Volume=F n_minim_iter=1 stress="0.061184117922138584 2.039314953005767e-16 2.451721279294934e-17 2.039314953005767e-16 0.06118411792213846 6.25700286534901e-17 2.451721279294934e-17 6.25700286534901e-17 0.06118411792213851" pbc="T T T"
Ti       0.00000000       0.00000000       0.00000000
Ti       1.65835155       1.65835155       1.65835155
