2
Lattice="3.139126777195372 0.0 0.0 0.0 3.139126777195372 0.0 0.0 0.0 3.139126777195372" Properties=species:S:1:pos:R:3 Minim_Constant_Volume=F n_minim_iter=1 stress="-0.000747363366649031 4.942500347063746e-17 6.998714451211057e-18 4.942500347063746e-17 -0.000747363366649367 -5.3829956072010047e-17 6.998714451211057e-18 -5.3829956072010047e-17 -0.0007473633666489751" pbc="T T T"
Ti       0.00000000       0.00000000       0.00000000
Ti       1.56956339       1.56956339       1.56956339
