2
Lattice="3.012843275096792 9.500335592741848e-17 8.982027571964791e-17 9.500335592741848e-17 3.012843275096792 9.303080926573674e-17 8.982027571964791e-17 9.303080926573674e-17 3.012843275096792" Properties=species:S:1:pos:R:3:forces:R:3 n_minim_iter=1 energy=-325.15702688496356 stress="-0.046996224294716366 -3.330745895814341e-16 -3.0685607504582916e-16 -3.330745895814341e-16 -0.04699622429471633 -3.100738545429061e-16 -3.0685607504582916e-16 -3.100738545429061e-16 -0.046996224294716366" free_energy=-325.15702688496356 pbc="T T T"
Si      -0.00000000      -0.00000000      -0.00000000      -0.00000001      -0.00000001      -0.00000001
Si       1.50642163       1.50642163       1.50642163       0.00000001       0.00000001       0.00000001
