2
Lattice="3.330933539266266 1.0503362960070415e-16 9.930332964004142e-17 1.0503362960070415e-16 3.330933539266266 1.0285282521320998e-16 9.930332964004142e-17 1.0285282521320998e-16 3.330933539266266" Properties=species:S:1:pos:R:3:forces:R:3 n_minim_iter=1 energy=-324.82978581136797 stress="0.11129200414695584 -3.8508976708600024e-17 1.5484570520227883e-17 -3.8508976708600024e-17 0.11129200414695586 3.2952981605127224e-17 1.5484570520227883e-17 3.2952981605127224e-17 0.11129200414695584" free_energy=-324.82978581136797 pbc="T T T"
Si      -0.00000000      -0.00000000      -0.00000000       0.00000001       0.00000001       0.00000001
Si       1.66546677       1.66546677       1.66546677      -0.00000001      -0.00000001      -0.00000001
