4
Lattice="4.033059350436209 0.0 0.0 0.0 4.033059350436209 0.0 0.0 0.0 4.033059350436209" Properties=species:S:1:pos:R:3 n_minim_iter=1 energy=-439.1055655295086 free_energy=-439.1055655295086 pbc="T T T"
Al       0.00000000       0.00000000       0.00000000
Al       2.01652968       2.01652968       0.00000000
Al       2.01652968       0.00000000       2.01652968
Al       0.00000000       2.01652968       2.01652968
