4
Lattice="4.0 0.0 0.0 0.0 4.0 0.0 0.0 0.0 4.0" Properties=species:S:1:pos:R:3 n_minim_iter=1 energy=-439.10424631356943 free_energy=-439.10424631356943 pbc="T T T"
Al       0.00000000       0.00000000       0.00000000
Al       2.00000000       2.00000000       0.00000000
Al       2.00000000       0.00000000       2.00000000
Al       0.00000000       2.00000000       2.00000000
