4
Lattice="3.825862365544777 0.0 0.0 0.0 3.825862365544777 0.0 0.0 0.0 3.825862365544777" Properties=species:S:1:pos:R:3 n_minim_iter=1 stress="-0.0535703597871155 7.085248209639986e-17 1.0541691150690863e-18 7.085248209639986e-17 -0.05357035978711552 -1.382582265591244e-18 1.0541691150690863e-18 -1.382582265591244e-18 -0.05357035978711529" pbc="T T T"
Al       0.00000000       0.00000000       0.00000000
Al       1.91293118       1.91293118       0.00000000
Al       1.91293118       0.00000000       1.91293118
Al       0.00000000       1.91293118       1.91293118
