4
Lattice="4.220908588980298 0.0 0.0 0.0 4.220908588980298 0.0 0.0 0.0 4.220908588980298" Properties=species:S:1:pos:R:3 n_minim_iter=1 stress="0.08887269939948372 -8.463890507667872e-18 1.6390893143721178e-34 -8.463890507667872e-18 0.08887269939948371 3.137265860809123e-18 1.6390893143721178e-34 3.137265860809123e-18 0.08887269939948406" pbc="T T T"
Al       0.00000000       0.00000000       0.00000000
Al       2.11045429       2.11045429       0.00000000
Al       2.11045429       0.00000000       2.11045429
Al       0.00000000       2.11045429       2.11045429
