8
Lattice="5.709568987103903 7.216123092299171e-16 -7.199160636968683e-48 -2.854784493551952 4.944631787491763 1.8711543221071942e-47 6.010287628363626e-48 -3.481056304122867e-48 4.0612130397094095" Properties=species:S:1:pos:R:3:tags:I:1 spacegroup="P 1" unit_cell=conventional n_minim_iter=6 stress="-0.09579811600939016 2.0987874503400952e-16 2.8404109465317575e-16 2.0987874503400952e-16 -0.09579811600939314 4.383160961786102e-16 2.8404109465317575e-16 4.383160961786102e-16 -0.09562770928741929" pbc="T T T"
Ti       2.85478450       3.29901124       1.01530326        0
Ti      -1.42963100       4.12182399       3.04590978        1
Ti       1.42963101       4.12182399       3.04590978        2
Ti       1.42515349       0.82281770       1.01530326        3
Ti       4.28441551       0.82281770       1.01530326        4
Ti       0.00000000       1.64563045       3.04590978        5
Al       0.00000000       3.29642614       1.01530326        6
Al       2.85478450       1.64821554       3.04590978        7
