8
Lattice="6.0279479766401165 1.230683762201703e-16 2.967834114669938e-48 -3.0139739883200583 5.220356080461348 1.0400593164018771e-48 -3.411728514682771e-48 -2.4487395903454782e-48 4.936407767224669" Properties=species:S:1:pos:R:3:tags:I:1 spacegroup="P 1" unit_cell=conventional n_minim_iter=4 stress="0.2192291747843252 -8.413771098586522e-16 -1.9252804942983012e-16 -8.413771098586522e-16 0.21922917478432621 -1.0132885161748047e-16 -1.9252804942983012e-16 -1.0132885161748047e-16 0.2191987987383255" pbc="T T T"
Ti       3.01397399       3.35434363       1.23410194        0
Ti      -1.39795527       4.28735247       3.70230582        1
Ti       1.39795528       4.28735247       3.70230582        2
Ti       1.61601872       0.93301406       1.23410194        3
Ti       4.41192927       0.93301406       1.23410194        4
Ti       0.00000001       1.86602290       3.70230582        5
Al       0.00000001       3.48024261       1.23410194        6
Al       3.01397399       1.74012392       3.70230582        7
