8
Lattice="5.824891655488956 1.0038444174273654e-16 1.7154704228928568e-48 -2.912445827744478 5.044504147945432 2.4607238743178234e-49 -1.6534193299947803e-48 -1.6701263927992065e-48 4.908961557689488" Properties=species:S:1:pos:R:3:tags:I:1 spacegroup="P 1" unit_cell=conventional n_minim_iter=4 stress="-0.21898248583772664 -1.5332871724748983e-15 -6.125867747722537e-19 -1.5332871724748983e-15 -0.2189824858377231 -5.753021037980011e-17 -6.125867747722537e-19 -5.753021037980011e-17 -0.21888979438948006" pbc="T T T"
Ti       2.91244583       3.24654438       1.22724039        0
Ti      -1.35536261       4.14552679       3.68172117        1
Ti       1.35536262       4.14552679       3.68172117        2
Ti       1.55708322       0.89898746       1.22724039        3
Ti       4.26780845       0.89898746       1.22724039        4
Ti       0.00000001       1.79796987       3.68172117        5
Al       0.00000001       3.36300781       1.22724039        6
Al       2.91244583       1.68150643       3.68172117        7
