8
Lattice="6.583780149256295 -6.9098009289847e-16 3.3241116948778114e-48 -3.2918900746281476 5.701720862187655 -8.099760316224546e-48 -1.9201221118001116e-48 5.393048033010474e-48 4.532188026067548" Properties=species:S:1:pos:R:3:tags:I:1 spacegroup="P 1" unit_cell=conventional n_minim_iter=3 stress="-0.10412779729079882 -3.5522772966753444e-16 3.054365289283416e-18 -3.5522772966753444e-16 -0.10412779729079638 -2.7736616267805374e-17 3.054365289283416e-18 -2.7736616267805374e-17 -0.10409879300325435" pbc="T T T"
Ti       3.29189008       3.70531975       1.13304700        0
Ti      -1.56295105       4.70352316       3.39914102        1
Ti       1.56295106       4.70352316       3.39914102        2
Ti       1.72893903       0.99820912       1.13304700        3
Ti       4.85484113       0.99820912       1.13304700        4
Ti       0.00000001       1.99641252       3.39914102        5
Al       0.00000001       3.80115295       1.13304700        6
Al       3.29189008       1.90057933       3.39914102        7
