22
Lattice="9.124050260818162 -0.24820169023925404 -0.35649260717590026 -4.066509211469018 8.171499254972186 0.3564926071759906 -2.8292633590822773 -3.7698404055340675 7.824356611358013" Properties=species:S:1:pos:R:3 unique_starting_index=6 config_type=initial n_minim_iter=6 energy=-3578.116900206587 free_energy=-3578.116900206587 pbc="T T T"
Si      -4.30038634       4.91580205       5.80898737
Si       3.24303891       1.33491119       5.91329414
Si       5.72399745       1.53187973       0.03032905
Si      -0.14908508       0.48537820       3.82372352
Si       6.14024856      -0.51441438       1.55456986
Si      -0.62634576       2.57061548       2.37186184
Si       2.73130869       4.22258141       4.00063308
Si      -3.84966568       2.06707500       7.79402756
Si      -0.69835207       4.90129646       2.07154327
Si       1.29070271       5.87218862       3.22576737
Si       1.40226537       3.66550971       2.10178696
Si       1.21756032       5.81381241       0.79021412
Si       1.95371505      -0.12681553       4.59858924
Si       1.91048969      -2.33975522       5.75281333
Si       1.93155890      -0.21773691       7.03414248
Si      -0.09482921      -0.95467087       5.72256965
Si      -1.02333169       1.53217010       0.29264055
Si       2.07631544       3.37149205       6.13739796
Si      -0.64530509      -0.46705814       1.68695865
Si      -5.07517354       4.11851201       7.88820866
Si       2.52877052       3.96164879      -0.00000000
Si       3.14739345      -2.00902104       3.73393200
