16
Lattice="6.339909662501341 0.8209114192132372 1.3765825837116559 3.0729258460793565 4.483275029179567 1.3512585363864942 6.10993527137158 2.867462452893161 14.094316446408962" Properties=species:S:1:pos:R:3 unique_starting_index=3 config_type=initial n_minim_iter=1 energy=-2604.617898953382 free_energy=-2604.617898953382 pbc="T T T"
Si       8.69639117       4.98385489       9.26200026
Si       9.50485001       4.01623964      14.96324502
Si       2.39559029       3.23267708       4.39149754
Si       6.35474713       2.95120253       2.92131680
Si       8.58721069       2.02263748       6.98911681
Si      10.89236641       4.42573028       8.46471829
Si       4.74590611       3.22549512       4.68375355
Si       8.64536014       3.71356037       3.44341040
Si       5.55444773       2.65420420       9.09614227
Si       7.85962072       2.80435534       9.00768708
Si      11.31748252       5.43488661      11.78750166
Si       4.57219202       0.99389246       5.82241082
Si       7.70625553       6.15210615      12.48446601
Si       6.69029434       3.98327948      11.88464581
Si       9.17769943       4.36464500      12.66037697
Si       5.75475975       1.43515029       1.11938247
16
Lattice="6.313598844708686 0.7186420740017164 1.4036150900539812 2.9909179523666682 4.411226282903453 1.4066445252125612 6.089193745311629 2.8890228702645997 14.123950706455714" Properties=species:S:1:pos:R:3 unique_starting_index=3 config_type=initial n_minim_iter=2 stress="-0.0025891464570189137 -0.0026648840526907547 -0.001302557749226501 -0.0026648840526907547 -0.00845821701340954 0.004145217836522299 -0.001302557749226501 0.004145217836522299 -0.0019965373138432574" pbc="T T T"
Si       8.61588076       4.89098430       9.32416096
Si       9.45809157       3.97385467      15.01712159
Si       2.35172275       3.20594062       4.42027696
Si       6.29672946       2.86195677       2.96799703
Si       8.55728768       1.93706987       7.02589130
Si      10.81064079       4.28962866       8.53485782
Si       4.69188479       3.16324131       4.73028300
Si       8.56467589       3.56994702       3.50386965
Si       5.52111791       2.63336297       9.12451388
Si       7.81965051       2.74293625       9.05580221
Si      11.22548522       5.32050284      11.86493010
Si       4.56156286       0.97559848       5.83980578
Si       7.61357466       6.10693479      12.55558169
Si       6.64582515       3.96564178      11.93226637
Si       9.12492300       4.30490586      12.71841254
Si       5.71752227       1.33557260       1.15693017
16
Lattice="6.347750404959221 0.6689037374054287 1.4530869742308923 2.9724093847947057 4.457573345984789 1.427057168027085 6.19197014760057 2.856942417065308 14.224239281022118" Properties=species:S:1:pos:R:3 unique_starting_index=3 config_type=initial n_minim_iter=3 stress="0.006152669702388195 -0.00638675227363901 0.0011835809162792181 -0.00638675227363901 0.011625547047425317 0.0028197425437436942 0.0011835809162792181 0.0028197425437436942 0.008850667491491417" pbc="T T T"
Si       8.67700728       4.87529067       9.40768303
Si       9.57229316       3.91709731      15.14909301
Si       2.37152694       3.21926795       4.43778523
Si       6.32030808       2.87310329       3.01896162
Si       8.64148512       1.89055523       7.11273504
Si      10.87459710       4.23812982       8.64336264
Si       4.71839861       3.15583464       4.78612424
Si       8.58954723       3.53839760       3.57048734
Si       5.58351445       2.60963165       9.18920227
Si       7.89720097       2.70113027       9.15676762
Si      11.30398146       5.28160096      11.98892935
Si       4.61790688       0.95079684       5.89586826
Si       7.67108321       6.12325875      12.65484183
Si       6.73370563       3.95583102      12.02568834
Si       9.23097938       4.26845109      12.83328288
Si       5.73925550       1.30356901       1.21274815
16
Lattice="6.320704134919924 0.6643120956708317 1.470741796810778 2.9682093804295295 4.445908815054542 1.3953573987036816 6.2492127375157525 2.749618078264619 14.075760185510788" Properties=species:S:1:pos:R:3 unique_starting_index=3 config_type=initial n_minim_iter=4 stress="-0.004084070072926092 -0.00532536717028338 0.004468720671856956 -0.00532536717028338 0.007154661054705297 -0.0010056195544775927 0.004468720671856956 -0.0010056195544775927 -0.004405340470977487" pbc="T T T"
Si       8.69039023       4.80337567       9.29943375
Si       9.61504447       3.79090451      15.01186790
Si       2.40042328       3.16625286       4.35793916
Si       6.30332373       2.89439734       2.99775549
Si       8.65388989       1.86133482       7.06935812
Si      10.85828072       4.16735414       8.58116904
Si       4.72541206       3.10515508       4.74695163
Si       8.55504545       3.50660067       3.54966559
Si       5.60485824       2.53962213       9.08203458
Si       7.91386696       2.63487705       9.09443752
Si      11.30631751       5.18831865      11.88125736
Si       4.63372155       0.92475054       5.84723348
Si       7.69870107       6.03170944      12.50937709
Si       6.78702381       3.87369397      11.89749939
Si       9.27993021       4.17105484      12.71248981
Si       5.71214304       1.30056205       1.24483901
16
Lattice="6.409153192755418 0.7255861110747167 1.4477556351291154 3.059631214509323 4.404348321613909 1.373532864485905 6.297954599163548 2.7225423106633437 14.152292119368253" Properties=species:S:1:pos:R:3 unique_starting_index=3 config_type=initial n_minim_iter=5 stress="0.002846611831548541 -0.0012599862865249718 -0.0010909235645147673 -0.0012599862865249718 -0.004981451537967095 0.0009255505325245564 -0.0010909235645147673 0.0009255505325245564 0.0007274100210706849" pbc="T T T"
Si       8.82122215       4.78821790       9.28328947
Si       9.71496637       3.75675992      15.09237374
Si       2.47378719       3.09358821       4.33698009
Si       6.40753934       2.99151449       2.96929124
Si       8.78967054       1.93494011       7.07535843
Si      10.99827168       4.18216409       8.58665668
Si       4.80851278       3.06260460       4.77099181
Si       8.68088374       3.52038227       3.50624680
Si       5.65421346       2.52516426       9.08943896
Si       8.01193400       2.64846202       9.15372793
Si      11.44494421       5.18056167      11.90463979
Si       4.69151500       0.96945840       5.86415069
Si       7.79216894       5.98200686      12.55205964
Si       6.89276385       3.86105797      11.94473205
Si       9.42510079       4.15948561      12.76292570
Si       5.79662674       1.34498092       1.26160107
16
Lattice="6.363344561980637 0.764557192081914 1.4580504347684582 3.0595500954896053 4.45330694983531 1.3794795291678699 6.284400371302575 2.777912671784583 14.16495894020511" Properties=species:S:1:pos:R:3 unique_starting_index=3 config_type=initial n_minim_iter=6 stress="-0.005655218136410061 0.0015595442521368534 -0.0008792356952189938 0.0015595442521368534 -0.000593728264063025 0.001266253107116285 -0.0008792356952189938 0.001266253107116285 0.0015254818092674577" pbc="T T T"
Si       8.78654858       4.87189408       9.28518724
Si       9.68101967       3.82767951      15.11558648
Si       2.48781533       3.12037376       4.32998488
Si       6.36905014       3.08700293       2.97666227
Si       8.74903093       1.99181109       7.09531039
Si      10.94064547       4.27809366       8.60765166
Si       4.79517000       3.09926861       4.78511527
Si       8.62553328       3.58252762       3.51290325
Si       5.63384437       2.57031099       9.08758411
Si       7.96942640       2.70784760       9.18380728
Si      11.39092711       5.27413897      11.92902567
Si       4.67941295       1.00745784       5.86678344
Si       7.77090522       6.06865891      12.56446840
Si       6.88224913       3.93486539      11.95964457
Si       9.40061782       4.24238309      12.78801743
Si       5.75851434       1.38699474       1.28622840
16
Lattice="6.446960706137481 0.7750695633624237 1.4794983264786707 3.1134846990374485 4.486130861731219 1.353452518693263 6.458226743163514 2.717171765503931 14.01323963022598" Properties=species:S:1:pos:R:3 unique_starting_index=3 config_type=initial n_minim_iter=7 stress="0.002480100777539859 0.0024359152207544727 0.0017897087587275516 0.0024359152207544727 0.0026263284495358866 -0.0023356665739094804 0.0017897087587275516 -0.0023356665739094804 -0.006278093266786048" pbc="T T T"
Si       8.95011780       4.86893382       9.17131911
Si       9.90320481       3.76023096      14.97572758
Si       2.57276291       3.10420391       4.25123434
Si       6.44921775       3.18390126       2.95503239
Si       8.91302987       1.96001790       7.06900226
Si      11.12991470       4.29981850       8.54889664
Si       4.89592869       3.07968383       4.74655231
Si       8.73958349       3.58751939       3.48970873
Si       5.75996493       2.53004787       8.97277454
Si       8.11398353       2.67728600       9.13612270
Si      11.60108639       5.24622125      11.83190464
Si       4.80327668       0.99018205       5.80437232
Si       7.94029548       6.04453541      12.41153415
Si       7.05866733       3.91387841      11.83737043
Si       9.61836373       4.21337806      12.68374013
Si       5.83907745       1.40716220       1.32918067
16
Lattice="6.401535043432218 0.7467201802103398 1.4887274657804974 3.0764793585641996 4.474245163008377 1.3462976992187774 6.408246541815391 2.6372450591350747 14.124909259455796" Properties=species:S:1:pos:R:3 unique_starting_index=3 config_type=initial n_minim_iter=8 stress="-0.002643084114827038 -0.0001689480308296977 0.0015860924029741576 -0.0001689480308296977 0.002582682010748901 -0.004887859587257026 0.0015860924029741576 -0.004887859587257026 0.0023924465926448892" pbc="T T T"
Si       8.86503808       4.80479896       9.22106000
Si       9.83201170       3.66723788      15.09064648
Si       2.55657188       3.07493512       4.27563627
Si       6.37784225       3.18858285       2.96333730
Si       8.85072890       1.87355359       7.13752592
Si      11.04845221       4.25739878       8.60325611
Si       4.85810649       3.03755500       4.77346057
Si       8.66204934       3.53828756       3.49345160
Si       5.71537954       2.46480261       9.03211613
Si       8.03726684       2.60930826       9.21963238
Si      11.50841890       5.15212484      11.92066869
Si       4.78949691       0.93749568       5.83326115
Si       7.86364083       5.96101437      12.48467507
Si       6.99586446       3.84886164      11.93023360
Si       9.53936661       4.13746113      12.79020489
Si       5.79986747       1.38697341       1.34435387
16
Lattice="6.400895018866453 0.7919634857442223 1.4633056671698388 3.0854586923773297 4.536534645178559 1.3887635126040296 6.35438440301783 2.8794012219412934 14.059684281892885" Properties=species:S:1:pos:R:3 unique_starting_index=3 config_type=initial n_minim_iter=9 stress="-0.0017986594168835147 0.00022127141231122888 -0.0017263691953288095 0.00022127141231122888 0.004382616002357593 0.003043016461409795 -0.0017263691953288095 0.003043016461409795 -0.0005482542088972153" pbc="T T T"
Si       8.82954473       5.00105528       9.19614318
Si       9.78777650       3.95619140      15.01316476
Si       2.55634253       3.16120472       4.29507507
Si       6.35603878       3.29579915       2.96246403
Si       8.83070668       1.98822760       7.10636921
Si      11.04009552       4.47836393       8.56597587
Si       4.85451889       3.14045400       4.76465784
Si       8.65829315       3.63927349       3.47876372
Si       5.68529287       2.62009436       8.99042118
Si       7.99131564       2.78240236       9.18377422
Si      11.48382931       5.38971023      11.88786836
Si       4.78957334       1.01889541       5.77060191
Si       7.83073806       6.19730521      12.45471225
Si       6.94330403       4.07180259      11.89876229
Si       9.48586803       4.39272905      12.75464180
Si       5.80840317       1.43952781       1.33358020
16
Lattice="6.453098109016403 0.7794941645786655 1.5291514556763681 3.1192510816317474 4.473475998661786 1.4112920414251742 6.521240422111312 2.7923465850439038 14.22303490966391" Properties=species:S:1:pos:R:3 unique_starting_index=3 config_type=initial n_minim_iter=10 stress="0.0016020481455042185 -0.0002843856995430808 0.0034955176170315444 -0.0002843856995430808 -0.005562391671326034 0.0005829426071817812 0.0034955176170315444 0.0005829426071817812 0.0032428625816194718" pbc="T T T"
Si       8.96444935       4.89946435       9.33246100
Si       9.99177562       3.87052330      15.21238442
Si       2.61655743       3.08713820       4.34689431
Si       6.41301759       3.25184118       3.02775862
Si       8.96519922       1.95324821       7.24952814
Si      11.18403812       4.39578068       8.71460995
Si       4.93214042       3.07931922       4.84177332
Si       8.74044672       3.58631297       3.56971679
Si       5.79473599       2.54909811       9.10258823
Si       8.12431926       2.71827734       9.32775105
Si      11.66621250       5.27433532      12.07249708
Si       4.87612541       0.97292848       5.83370136
Si       7.99313037       6.06927517      12.59582724
Si       7.08745818       3.97771668      12.05068230
Si       9.65469521       4.30112514      12.93226543
Si       5.85901342       1.42324427       1.39473130
16
Lattice="6.449243999210902 0.7483690103144903 1.461165450831681 3.0963261849021753 4.454075505741565 1.3517352589742337 6.38944249610361 2.6838452728007405 14.116715151038827" Properties=species:S:1:pos:R:3 unique_starting_index=3 config_type=initial n_minim_iter=11 stress="0.002969936440410943 -0.0013767412464526156 -0.0012430868670941558 -0.0013767412464526156 -0.005865293174870021 -0.0027168219873146093 -0.0012430868670941558 -0.0027168219873146093 0.0016287345432464471" pbc="T T T"
Si       8.86975119       4.80523435       9.19442275
Si       9.86471727       3.76609804      15.06584992
Si       2.57760630       3.02518952       4.29505197
Si       6.37527137       3.22392253       2.93677055
Si       8.93105830       1.89540758       7.15777915
Si      11.10467988       4.30717583       8.55994594
Si       4.88862424       3.02682104       4.77569080
Si       8.70403687       3.53948731       3.45991108
Si       5.70155692       2.46653586       9.00781057
Si       8.04167129       2.63609116       9.22737643
Si      11.55966563       5.15243484      11.91212198
Si       4.83577613       0.90360808       5.74358483
Si       7.86505603       5.96026606      12.44531438
Si       6.96329522       3.88138556      11.94210945
Si       9.53095119       4.20148795      12.79594021
Si       5.85501790       1.40134846       1.33617749
16
Lattice="6.4489642908650175 0.7692324386410092 1.4652131528898031 3.1012524606337273 4.503010804898443 1.371162184403924 6.399377767230825 2.782413471594242 14.095838241396425" Properties=species:S:1:pos:R:3 unique_starting_index=3 config_type=initial n_minim_iter=12 stress="0.001749093792121445 3.6788846913331024e-05 -0.0010268643939965426 3.6788846913331024e-05 -0.00032570098035816753 -0.0003458766187132531 -0.0010268643939965426 -0.0003458766187132531 -0.0009365046501602685" pbc="T T T"
Si       8.86227230       4.89062957       9.17909028
Si       9.89775908       3.92750804      15.05193956
Si       2.60377161       3.01860068       4.29658337
Si       6.34935312       3.31848370       2.93848982
Si       8.97913232       1.97243310       7.19954781
Si      11.10588778       4.41998514       8.55382184
Si       4.90534228       3.06462233       4.79489273
Si       8.68836367       3.60341274       3.47008703
Si       5.68952064       2.51839597       8.98014718
Si       8.03808451       2.71171835       9.25063291
Si      11.57239360       5.24637655      11.92367056
Si       4.86894539       0.90300171       5.67518173
Si       7.86930928       6.07084654      12.41469580
Si       6.94989533       3.98144055      11.94880631
Si       9.53130566       4.33890775      12.80453716
Si       5.86227302       1.44188084       1.36369777
16
Lattice="6.431001403544691 0.7759660910703388 1.492942251979765 3.094638778522896 4.5276642704933225 1.395970875883522 6.425357566518176 2.8278082037896666 14.16732285891711" Properties=species:S:1:pos:R:3 unique_starting_index=3 config_type=initial n_minim_iter=13 stress="-0.0016698209118491266 6.651828953502527e-05 0.0006488360066301845 6.651828953502527e-05 0.003343382065420177 -2.229499555216349e-05 0.0006488360066301845 -2.229499555216349e-05 -1.6341499361151027e-05" pbc="T T T"
Si       8.85186757       4.93201480       9.22168232
Si       9.93241080       4.02416753      15.14627438
Si       2.62661399       2.99035104       4.30898221
Si       6.31648408       3.38527304       2.96982003
Si       9.00557647       1.99440822       7.31016538
Si      11.09261175       4.48879704       8.61911749
Si       4.91890839       3.07240661       4.84413057
Si       8.64962358       3.63699603       3.51975882
Si       5.68435742       2.53234530       9.00983673
Si       8.02894456       2.73794058       9.34295594
Si      11.56981066       5.27885372      12.01659823
Si       4.90517859       0.87804765       5.66233401
Si       7.87185323       6.12592566      12.46585782
Si       6.94382885       4.02331809      12.03305539
Si       9.53866640       4.41702656      12.89630720
Si       5.84999803       1.46870367       1.41382193
16
Lattice="6.4375970854339375 0.7828241956403401 1.5026490481625365 3.1054476995080043 4.494614646418382 1.4124860003644062 6.435380574453423 2.839355121108728 14.257220293456378" Properties=species:S:1:pos:R:3 unique_starting_index=3 config_type=initial n_minim_iter=14 stress="-0.001860711040298198 0.0007716702538258363 0.00040875104383048655 0.0007716702538258363 -0.0002564314360284354 0.0007391971746405601 0.00040875104383048655 0.0007391971746405601 0.0005240121571535027" pbc="T T T"
Si       8.88279658       4.92925674       9.27091156
Si       9.94001609       4.05070471      15.24947979
Si       2.62539833       2.96415479       4.31738058
Si       6.35364451       3.34922388       3.00242941
Si       9.01147599       1.99691986       7.37911161
Si      11.10765130       4.47549286       8.68014902
Si       4.93441824       3.06203485       4.87582880
Si       8.66115473       3.64258223       3.56565591
Si       5.69235527       2.53889813       9.06052758
Si       8.04215911       2.73586929       9.40143619
Si      11.58010677       5.27636655      12.08150580
Si       4.91080372       0.88045011       5.71653996
Si       7.87941555       6.12821946      12.55400922
Si       6.94943493       4.00266772      12.11207330
Si       9.56400927       4.42184376      12.96333233
Si       5.85005640       1.47627562       1.42885802
16
Lattice="6.467554709623447 0.7581457790688538 1.489481323166335 3.1061495090667397 4.475246341217797 1.3943793364351291 6.438775778107494 2.7785011963107085 14.224614204709873" Properties=species:S:1:pos:R:3 unique_starting_index=3 config_type=initial n_minim_iter=15 stress="0.0025828783915917506 -0.0009312078565177138 -0.0004989710039413634 -0.0009312078565177138 -0.00044604815218594185 -0.0011349326148389304 -0.0004989710039413634 -0.0011349326148389304 -0.0006358972492048084" pbc="T T T"
Si       8.90216135       4.87049839       9.21964613
Si       9.95576865       3.99502391      15.20505859
Si       2.63161450       2.91870358       4.30427641
Si       6.37391519       3.33143932       2.98526283
Si       9.05369817       1.93946245       7.37625127
Si      11.14280544       4.41841686       8.63646105
Si       4.94846108       3.02306314       4.85462213
Si       8.68435662       3.60912672       3.53826212
Si       5.69698268       2.48735529       9.02422691
Si       8.05438859       2.68545249       9.38097867
Si      11.60908195       5.19577183      12.03424419
Si       4.93806983       0.82975689       5.68971002
Si       7.86994685       6.06598540      12.49978053
Si       6.94518737       3.93911692      12.08380935
Si       9.58239943       4.36258267      12.92892521
Si       5.87371501       1.46519920       1.42554617
16
Lattice="6.468160639779382 0.7668462113188597 1.5037052812184393 3.1114907238142973 4.471314296951143 1.4157755790042597 6.456393613831788 2.820246001582268 14.285026888585335" Properties=species:S:1:pos:R:3 unique_starting_index=3 config_type=initial n_minim_iter=16 stress="0.0003814745475289094 -7.670909373380572e-05 -0.00010429674755745494 -7.670909373380572e-05 -0.0003206392170906518 0.000680423747091088 -0.00010429674755745494 0.000680423747091088 -0.0005015293298581347" pbc="T T T"
Si       8.93187925       4.89061232       9.25434258
Si       9.95962250       4.06534784      15.26927047
Si       2.64811333       2.89654685       4.34969802
Si       6.39833275       3.34330070       3.02865891
Si       9.07834023       1.96180819       7.44021340
Si      11.15782774       4.42563151       8.67735903
Si       4.95646366       3.02544753       4.87829396
Si       8.68780920       3.63665256       3.57158392
Si       5.70521221       2.50886198       9.05293524
Si       8.05721517       2.72932053       9.42949320
Si      11.63084738       5.22624600      12.08818734
Si       4.94650121       0.82939711       5.71816798
Si       7.86070493       6.10539729      12.54998700
Si       6.94911997       3.96014104      12.14606460
Si       9.60367061       4.40934582      12.99601562
Si       5.86522417       1.49459955       1.45354804
16
Lattice="6.457615894831523 0.7787961769945599 1.5116954006793353 3.1158996159969985 4.477719673808509 1.414873530249481 6.463869119082723 2.8135036251696968 14.3145162248794" Properties=species:S:1:pos:R:3 unique_starting_index=3 config_type=initial n_minim_iter=17 stress="-0.0019141916139026845 0.0001250736329704362 -7.162211098868347e-05 0.0001250736329704362 -0.00017300531808642878 -0.0008190943836542006 -7.162211098868347e-05 -0.0008190943836542006 0.0009715565636280709" pbc="T T T"
Si       8.94952024       4.89963557       9.26945666
Si       9.95089815       4.06060763      15.29884661
Si       2.65528658       2.89693979       4.36493493
Si       6.40319160       3.36658601       3.04711726
Si       9.06701992       1.94439977       7.46394740
Si      11.16583159       4.43127059       8.69143497
Si       4.95703196       3.02233277       4.87932106
Si       8.69070915       3.65845034       3.58887755
Si       5.71236263       2.50564198       9.06715423
Si       8.04583705       2.74089780       9.44936484
Si      11.63525740       5.23863174      12.10758416
Si       4.94114933       0.83308089       5.74419427
Si       7.85080524       6.10538810      12.56256223
Si       6.95507989       3.95644618      12.17075599
Si       9.60880608       4.41425838      13.02437701
Si       5.84608063       1.51940667       1.46312344
16
Lattice="6.48684203460473 0.794656466064184 1.5273615525998918 3.138481777475091 4.492037712233377 1.43460508509346 6.522559032783082 2.869346444038886 14.33407302443423" Properties=species:S:1:pos:R:3 unique_starting_index=3 config_type=initial n_minim_iter=18 stress="0.0012335995536099434 4.910713222514946e-05 0.0006958719656447824 4.910713222514946e-05 0.0014149300974052482 0.0005924691990602365 0.0006958719656447824 0.0005924691990602365 0.0002827279391091578" pbc="T T T"
Si       9.03297178       4.94111440       9.29559730
Si      10.02527278       4.14208154      15.33177333
Si       2.68394788       2.88980256       4.38311402
Si       6.43899680       3.41663891       3.07911586
Si       9.13737903       1.96841583       7.51184639
Si      11.24897136       4.46447336       8.70898225
Si       4.99653336       3.02937292       4.89732103
Si       8.74821181       3.70890851       3.64198767
Si       5.75035927       2.53270148       9.07340219
Si       8.09118900       2.79383115       9.47998814
Si      11.72113012       5.29782701      12.13992466
Si       4.97532445       0.84539189       5.74331375
Si       7.88509437       6.15482489      12.56219344
Si       7.00110079       4.00529832      12.20246718
Si       9.67671294       4.49307764      13.05380011
Si       5.85600377       1.56178489       1.48964362
16
Lattice="6.479028386580818 0.7925306830360095 1.5184252977524344 3.1336200367958162 4.484736591135304 1.428212550936043 6.496960540450219 2.8571359089492345 14.328645820971488" Properties=species:S:1:pos:R:3 unique_starting_index=3 config_type=initial n_minim_iter=19 stress="0.00038363693770429157 -4.0238024012659924e-07 0.00014644900897743966 -4.0238024012659924e-07 0.00027396571276134244 0.00020145789184894966 0.00014644900897743966 0.00020145789184894966 -7.122354548682706e-05" pbc="T T T"
Si       9.01710528       4.92710239       9.28597220
Si       9.99486249       4.13139499      15.32187245
Si       2.67294195       2.88279431       4.38283011
Si       6.43150523       3.40534539       3.07075955
Si       9.11722842       1.95996880       7.50124629
Si      11.23070053       4.44825721       8.69161082
Si       4.98516833       3.02203063       4.88917393
Si       8.73841305       3.70696312       3.63439606
Si       5.73263278       2.52329260       9.06908871
Si       8.07258692       2.78465290       9.46775502
Si      11.69525446       5.28524803      12.12402704
Si       4.96177454       0.83861553       5.74017648
Si       7.85705204       6.13798326      12.54704024
Si       6.97494449       3.99067462      12.19506732
Si       9.64874584       4.48236148      13.03939984
Si       5.84551105       1.56199458       1.47922232
16
Lattice="6.464551310596888 0.7914948267471044 1.5035939175952033 3.12669141874226 4.474496455119001 1.4159800981155661 6.453174754438915 2.833448313950785 14.326162064117495" Properties=species:S:1:pos:R:3 unique_starting_index=3 config_type=initial n_minim_iter=20 stress="-0.00127692757491483 -0.00017539098955466015 -0.0008213604169613607 -0.00017539098955466015 -0.0018113954819313778 -0.000611763877217959 -0.0008213604169613607 -0.000611763877217959 -0.00047656676829679705" pbc="T T T"
Si       8.99473195       4.90015871       9.26808034
Si       9.94210291       4.11580574      15.31530752
Si       2.65681253       2.86416651       4.38517619
Si       6.41846338       3.40198710       3.05526901
Si       9.08280013       1.94555693       7.48898335
Si      11.20283273       4.42000755       8.66264072
Si       4.96716763       3.00429406       4.87744374
Si       8.71900940       3.71070754       3.62227583
Si       5.70038929       2.50287280       9.06284272
Si       8.04272156       2.76604556       9.45432758
Si      11.64725568       5.26430146      12.10286904
Si       4.94441793       0.82472108       5.73858688
Si       7.79952705       6.10740857      12.51335267
Si       6.92755707       3.96429308      12.18889744
Si       9.60460337       4.47078062      13.02015916
Si       5.82455393       1.57068147       1.46717295
16
Lattice="6.471562092882514 0.8130437386917965 1.5179646779932578 3.142058703342321 4.500823535995701 1.4294428052189336 6.490052592756025 2.880706286397875 14.351278896332524" Properties=species:S:1:pos:R:3 unique_starting_index=3 config_type=initial n_minim_iter=21 stress="7.096623907389462e-05 -9.29142791086006e-05 0.0005394729181397329 -9.29142791086006e-05 0.0009896933466208375 -0.00011874013306651209 0.0005394729181397329 -0.00011874013306651209 -0.0002916411024079096" pbc="T T T"
Si       9.04083669       4.94073638       9.30083411
Si       9.98114359       4.18740329      15.35448277
Si       2.66958208       2.88894601       4.40924179
Si       6.43478933       3.44757154       3.07113779
Si       9.09425888       1.97978045       7.50405937
Si      11.25026558       4.46853843       8.69415899
Si       4.98728343       3.02800177       4.89000836
Si       8.73720789       3.76232340       3.64788258
Si       5.72912604       2.53440436       9.08813931
Si       8.08352472       2.79886598       9.47581487
Si      11.68066391       5.33427968      12.14649270
Si       4.96856086       0.84740215       5.76748040
Si       7.82013032       6.16270824      12.51513317
Si       6.95413236       4.00997058      12.21636081
Si       9.64977729       4.54511295      13.05295990
Si       5.83148955       1.60291585       1.48481159
