20
Lattice="5.269894166468076 -2.318818561084187e-16 -1.0060079081490911e-14 1.1630486623992785e-16 2.643218172792507 1.2228139021607091e-11 4.888133477696402e-14 -1.1845977715210972e-10 25.60610696035868" Properties=species:S:1:pos:R:3 unique_starting_index=4 config_type=initial n_minim_iter=1 energy=-3255.6261452314816 free_energy=-3255.6261452314816 pbc="T T T"
Si       3.44774148       1.21495449      15.88121027
Si       3.44774148       1.42826368       9.72489669
Si       1.73376721       1.19986514      14.09904498
Si       1.73376721       1.44335304      11.50706198
Si       1.82215269      -0.10665460      22.52795017
Si       1.82215269       2.74987277       3.07815679
Si       3.53612695       2.52147422      24.31011546
Si       3.53612695       0.12174395       1.29599150
Si       4.31096818       2.73403840       3.62109572
Si       4.31096818      -0.09082023      21.98501124
Si       2.70206355       1.24651413      20.63588013
Si       2.70206355       1.39670404       4.97022683
Si       0.95892599       1.41242932       9.18195776
Si       0.95892599       1.23078885      16.42414920
Si       2.56783062      -0.07509495      17.77328031
Si       2.56783062       2.71831313       7.83282665
Si       5.82778443       1.36306447      24.37013898
Si       5.82778443       1.28015370       1.23596798
Si      -0.55789026       2.60176279      11.56708550
Si      -0.55789026       0.04145538      14.03902146
20
Lattice="5.271575065652287 -2.319558177498582e-16 -1.0063287870545652e-14 1.1639645179671766e-16 2.6452996042570596 1.2237706254333202e-11 4.8921463205573804e-14 -1.1855762533305507e-10 25.627127925514763" Properties=species:S:1:pos:R:3 unique_starting_index=4 config_type=initial n_minim_iter=2 stress="0.0007782908529447608 -4.0641545348479846e-18 3.1051160022114764e-16 -4.0641545348479846e-18 0.0006064063815881521 5.425118412943332e-16 3.1051160022114764e-16 5.425118412943332e-16 0.0004936300088597079" pbc="T T T"
Si       3.44891272       1.21603306      15.89434374
Si       3.44891272       1.42926654       9.73278418
Si       1.73431255       1.20095447      14.11049696
Si       1.73431255       1.44434514      11.51663097
Si       1.82266235      -0.10661674      22.54634815
Si       1.82266235       2.75191634       3.08077978
Si       3.53726251       2.52360427      24.33019493
Si       3.53726251       0.12169534       1.29693299
Si       4.31222942       2.73610375       3.62410698
Si       4.31222942      -0.09080414      22.00302094
Si       2.70306169       1.24738681      20.65267389
Si       2.70306169       1.39791279       4.97445404
Si       0.95934564       1.41345395       9.18945698
Si       0.95934564       1.23184566      16.43767094
Si       2.56851337      -0.07526299      17.78801800
Si       2.56851337       2.72056259       7.83910992
Si       5.82970869       1.36400955      24.39014148
Si       5.82970869       1.28129005       1.23698644
Si      -0.55813362       2.60393986      11.57657752
Si      -0.55813362       0.04135975      14.05055041
20
Lattice="5.245111587347357 -2.3079139199962666e-16 -1.0012769838093888e-14 1.1648401684973494e-16 2.647289663202313 1.2246900837928245e-11 4.902785296455192e-14 -1.188155661443529e-10 25.682859373117594" Properties=species:S:1:pos:R:3 unique_starting_index=4 config_type=initial n_minim_iter=3 stress="-0.003495196319070652 1.2656723344401704e-16 -4.520404269758875e-16 1.2656723344401704e-16 0.00036481964243979977 -7.090956129598083e-15 -4.520404269758875e-16 -7.090956129598083e-15 0.0018995131415731159" pbc="T T T"
Si       3.43349499       1.22021576      15.93148382
Si       3.43349499       1.42707390       9.75137556
Si       1.72523175       1.20573410      14.13827850
Si       1.72523175       1.44155556      11.54458087
Si       1.81161660      -0.10342907      22.59280524
Si       1.81161660       2.75071873       3.09005413
Si       3.51987984       2.52937894      24.38601056
Si       3.51987984       0.11791073       1.29684881
Si       4.28735751       2.73581440       3.63276223
Si       4.28735751      -0.08852474      22.05009715
Si       2.69327740       1.24539501      20.69400749
Si       2.69327740       1.40189465       4.98885188
Si       0.95775408       1.41216957       9.20866746
Si       0.95775408       1.23512009      16.47419191
Si       2.55183419      -0.07824982      17.83028157
Si       2.55183419       2.72553948       7.85257780
Si       5.80208640       1.36160171      24.44295639
Si       5.80208640       1.28568795       1.23990298
Si      -0.55697481       2.60933279      11.60152671
Si      -0.55697481       0.03795688      14.08133267
20
Lattice="5.2656618165055304 -2.316956274795292e-16 -1.0051999644982512e-14 1.164758594970093e-16 2.6471042740293313 1.2246085005793261e-11 4.88320340078273e-14 -1.1834061206712376e-10 25.58028113597179" Properties=species:S:1:pos:R:3 unique_starting_index=4 config_type=initial n_minim_iter=4 stress="-0.0004545249925744018 2.8435892883145446e-17 2.1819460610347864e-16 2.8435892883145446e-17 -0.00036827618016623453 -3.188361870403445e-15 2.1819460610347864e-16 -3.188361870403445e-15 0.0002944791709076911" pbc="T T T"
Si       3.45322886       1.22997569      15.87570314
Si       3.45322886       1.41712858       9.70457799
Si       1.73099851       1.21755109      14.07361653
Si       1.73099851       1.42955319      11.50666461
Si       1.81243295      -0.09357645      22.49471856
Si       1.81243295       2.74068072       3.08556257
Si       3.53466331       2.54110322      24.29680518
Si       3.53466331       0.10600105       1.28347596
Si       4.29528352       2.72858065       3.62019910
Si       4.29528352      -0.08147637      21.96008204
Si       2.71478601       1.23661969      20.60092862
Si       2.71478601       1.41048458       4.97935251
Si       0.97037830       1.40502851       9.16994147
Si       0.97037830       1.24207576      16.41033967
Si       2.55087581      -0.08693244      17.76949308
Si       2.55087581       2.73403672       7.81078805
Si       5.83006109       1.35099938      24.34486792
Si       5.83006109       1.29610489       1.23541322
Si      -0.56439927       2.61965703      11.55472735
Si      -0.56439927       0.02744725      14.02555379
20
Lattice="5.2664781950655755 -2.317315491450911e-16 -1.0053558088589763e-14 1.16679071638026e-16 2.6517226020618 1.2267519453555834e-11 4.874159253843422e-14 -1.1812076747216954e-10 25.532904075801582" Properties=species:S:1:pos:R:3 unique_starting_index=4 config_type=initial n_minim_iter=5 stress="-0.00036513147510302976 7.117840483199004e-17 2.476862052052203e-16 7.117840483199004e-17 0.0011298472606915745 9.572085211869705e-15 2.476862052052203e-16 9.572085211869705e-15 -0.0009921174308847726" pbc="T T T"
Si       3.45557292       1.23510446      15.84878769
Si       3.45557292       1.41661814       9.68411639
Si       1.73073809       1.22364912      14.04699459
Si       1.73073809       1.42807348      11.48590948
Si       1.81090528      -0.09075684      22.45056843
Si       1.81090528       2.74247944       3.08233565
Si       3.53574011       2.54951042      24.25236152
Si       3.53574011       0.10221218       1.28054255
Si       4.29403571       2.73143655       3.61271518
Si       4.29403571      -0.07971395      21.92018889
Si       2.71778538       1.23693181      20.56100093
Si       2.71778538       1.41479079       4.97190315
Si       0.97244249       1.40557525       9.15373685
Si       0.97244249       1.24614735      16.37916722
Si       2.54869282      -0.08892949      17.73835519
Si       2.54869282       2.74065209       7.79454889
Si       5.83220189       1.34989447      24.29944632
Si       5.83220189       1.30182813       1.23345776
Si      -0.56572370       2.62768943      11.53299428
Si      -0.56572370       0.02403317      13.99990979
20
Lattice="5.280050938888613 -2.3232876664714196e-16 -1.0079468073097881e-14 1.1640660408591854e-16 2.6455303316219663 1.2238842688030296e-11 4.878825308309463e-14 -1.1823413623929513e-10 25.557346839135594" Properties=species:S:1:pos:R:3 unique_starting_index=4 config_type=initial n_minim_iter=6 stress="0.0019368191894185347 -7.391431144572334e-18 -5.212936038719501e-16 -7.391431144572334e-18 -0.0007604788500941206 -5.398119663286615e-15 -5.212936038719501e-16 -5.398119663286615e-15 0.0003646575382958349" pbc="T T T"
Si       3.47026280       1.24134152      15.87161543
Si       3.47026280       1.40418881       9.68573141
Si       1.73342698       1.23329470      14.06006650
Si       1.73342698       1.41223563      11.49728033
Si       1.80978813      -0.08142365      22.46440483
Si       1.80978813       2.72695398       3.09294201
Si       3.54662396       2.55605987      24.27595375
Si       3.54662396       0.08947047       1.28139308
Si       4.30017508       2.71946023       3.61293873
Si       4.30017508      -0.07392990      21.94440811
Si       2.73211136       1.22920301      20.57639621
Si       2.73211136       1.41632732       4.98095063
Si       0.97987586       1.39669507       9.16573469
Si       0.97987586       1.24883526      16.39161215
Si       2.54793957      -0.09356215      17.75962405
Si       2.54793957       2.73909248       7.79772279
Si       5.85074659       1.33587152      24.32131992
Si       5.85074659       1.30965881       1.23602692
Si      -0.57069565       2.63242398      11.54264650
Si      -0.57069565       0.01310635      14.01470034
20
Lattice="5.2646110762132885 -2.316493936081181e-16 -1.0049993811449615e-14 1.1669008685029494e-16 2.6519729407637764 1.2268680363963034e-11 4.8811796149591063e-14 -1.182908742396229e-10 25.569679691371167" Properties=species:S:1:pos:R:3 unique_starting_index=4 config_type=initial n_minim_iter=7 stress="-0.0004651744509256484 1.6862218230788012e-17 -6.736092042865192e-16 1.6862218230788012e-17 0.0015317449570995498 1.1446662433661593e-14 -6.736092042865192e-16 1.1446662433661593e-14 -0.0009819455340665452" pbc="T T T"
Si       3.46068218       1.24582582      15.88064203
Si       3.46068218       1.40614712       9.68903766
Si       1.72750688       1.24076798      14.07579873
Si       1.72750688       1.41120496      11.49388096
Si       1.80392890      -0.08016065      22.47387750
Si       1.80392890       2.73213359       3.09580219
Si       3.53710420       2.56675445      24.27872080
Si       3.53710420       0.08521849       1.29095889
Si       4.29108662       2.72655285       3.60822912
Si       4.29108662      -0.07457991      21.96145057
Si       2.72181021       1.23624303      20.59236113
Si       2.72181021       1.41572991       4.97731856
Si       0.97352445       1.40056638       9.17661073
Si       0.97352445       1.25140656      16.39306897
Si       2.54280087      -0.08974344      17.76215841
Si       2.54280087       2.74171638       7.80752128
Si       5.83256171       1.33562352      24.33215213
Si       5.83256171       1.31634942       1.23752756
Si      -0.56795063       2.64233589      11.54731228
Si      -0.56795063       0.00963705      14.02236741
20
Lattice="5.2658475929081305 -2.3170380187083743e-16 -1.0052354286886641e-14 1.165405884472871e-16 2.64857534521676 1.2252957678009547e-11 4.887434494696026e-14 -1.1844250158189072e-10 25.602445392287176" Properties=species:S:1:pos:R:3 unique_starting_index=4 config_type=initial n_minim_iter=8 stress="-0.00021777433661935035 -5.555441783879817e-17 -5.371136876803364e-16 -5.555441783879817e-17 0.00037191742818486916 2.669740685195617e-15 -5.371136876803364e-16 2.669740685195617e-15 -0.00023410907643333707" pbc="T T T"
Si       3.46299851       1.24685023      15.90285862
Si       3.46299851       1.40172512       9.69958678
Si       1.72767256       1.24390431      14.09565165
Si       1.72767256       1.40467103      11.50679374
Si       1.80284908      -0.07743744      22.50080947
Si       1.80284908       2.72601279       3.10163592
Si       3.53817503       2.56819198      24.30801644
Si       3.53817503       0.08038336       1.29442896
Si       4.29209345       2.72193784       3.61102808
Si       4.29209345      -0.07336249      21.99141731
Si       2.72374358       1.23527763      20.61935111
Si       2.72374358       1.41329771       4.98309428
Si       0.97375415       1.39765016       9.19019461
Si       0.97375415       1.25092518      16.41225078
Si       2.54210401      -0.08901004      17.78431698
Si       2.54210401       2.73758538       7.81812842
Si       5.83449833       1.33007173      24.36302573
Si       5.83449833       1.31850361       1.23941966
Si      -0.56865074       2.64279129      11.56180304
Si      -0.56865074       0.00578406      14.04064236
20
Lattice="5.26718506336923 -2.317626522240353e-16 -1.0054907480211361e-14 1.1632391383720026e-16 2.643651060571763 1.2230186106797431e-11 4.896720754116782e-14 -1.1866745739540266e-10 25.651090739856862" Properties=species:S:1:pos:R:3 unique_starting_index=4 config_type=initial n_minim_iter=9 stress="0.00019340484825252838 5.280604099655831e-17 -7.959556413617864e-16 5.280604099655831e-17 -0.0014145715034151682 -1.0303207896920753e-14 -7.959556413617864e-16 -1.0303207896920753e-14 0.0008039175692394089" pbc="T T T"
Si       3.46685673       1.25041267      15.93622069
Si       3.46685673       1.39323840       9.71487005
Si       1.72863051       1.25349481      14.12544843
Si       1.72863051       1.39015625      11.52564230
Si       1.80032834      -0.07141286      22.54041542
Si       1.80032834       2.71506393       3.11067532
Si       3.53855455       2.57532034      24.35118767
Si       3.53855455       0.06833072       1.29990307
Si       4.29386262       2.71466157       3.61541683
Si       4.29386262      -0.07101051      22.03567391
Si       2.72755298       1.23640128      20.65992483
Si       2.72755298       1.40724978       4.99116591
Si       0.97332244       1.39283604       9.21012854
Si       0.97332244       1.25081502      16.44096220
Si       2.53963209      -0.08542425      17.81671128
Si       2.53963209       2.72907531       7.83437946
Si       5.83711870       1.31835769      24.40939712
Si       5.83711870       1.32529337       1.24169362
Si      -0.56993363       2.64711890      11.58385175
Si      -0.56993363      -0.00346784      14.06723899
20
Lattice="5.262525235167387 -2.3155761402431923e-16 -1.0046011999821068e-14 1.1648595467789733e-16 2.6473337035145135 1.2247191936204166e-11 4.892221700459273e-14 -1.185587256635256e-10 25.62752279726686" Properties=species:S:1:pos:R:3 unique_starting_index=4 config_type=initial n_minim_iter=10 stress="0.0002868611697724989 -6.095278818451829e-17 -2.2194575469582516e-16 -6.095278818451829e-17 -0.0002631892843629321 -3.653825715046752e-15 -2.2194575469582516e-16 -3.653825715046752e-15 0.000494715985140133" pbc="T T T"
Si       3.46436320       1.25699421      15.92008506
Si       3.46436320       1.39033949       9.70743773
Si       1.73108119       1.26990787      14.11149177
Si       1.73108119       1.37742583      11.51603103
Si       1.79816204      -0.06667264      22.52119913
Si       1.79816204       2.71400635       3.10632366
Si       3.53144405       2.59357472      24.32979243
Si       3.53144405       0.05375898       1.29773037
Si       4.29349853       2.71760861       3.61543666
Si       4.29349853      -0.07027491      22.01208614
Si       2.72783324       1.24886513      20.64193540
Si       2.72783324       1.39846857       4.98558740
Si       0.96902670       1.39394176       9.19832474
Si       0.96902670       1.25339194      16.42919806
Si       2.53469200      -0.07480172      17.79934879
Si       2.53469200       2.72213543       7.82817400
Si       5.83188453       1.31041266      24.38963749
Si       5.83188453       1.33692104       1.23788530
Si      -0.56935930       2.66058789      11.57587610
Si      -0.56935930      -0.01325419      14.05164670
20
Lattice="5.258467633646836 -2.313790745428406e-16 -1.0038266153151577e-14 1.1657706726945153e-16 2.649404386071085 1.2256774768893644e-11 4.888763052529426e-14 -1.1847487529907202e-10 25.60940493914495" Properties=species:S:1:pos:R:3 unique_starting_index=4 config_type=initial n_minim_iter=11 stress="-6.500673323621629e-05 5.307430952090299e-17 2.9157002715978457e-16 5.307430952090299e-17 9.135351802062754e-05 5.118131416589161e-16 2.9157002715978457e-16 5.118131416589161e-16 -3.642957459279646e-05" pbc="T T T"
Si       3.46189527       1.26219369      15.90792568
Si       3.46189527       1.38721069       9.70147926
Si       1.73214440       1.28283342      14.10083501
Si       1.73214440       1.36657097      11.50856993
Si       1.79657236      -0.06250850      22.50618173
Si       1.79657236       2.71191288       3.10322321
Si       3.52632324       2.60753561      24.31327240
Si       3.52632324       0.04186878       1.29613254
Si       4.29268909       2.71847393       3.61465660
Si       4.29268909      -0.06906954      21.99474834
Si       2.72754100       1.25799272      20.62730112
Si       2.72754100       1.39141167       4.98210382
Si       0.96577855       1.39377174       9.19004587
Si       0.96577855       1.25563265      16.41935907
Si       2.53092663      -0.06670948      17.78680629
Si       2.53092663       2.71611386       7.82259865
Si       5.82687815       1.30365124      24.37396436
Si       5.82687815       1.34575314       1.23544058
Si      -0.56841051       2.67045534      11.56926189
Si      -0.56841051      -0.02105095      14.04014305
20
Lattice="5.257055123088844 -2.313169223326428e-16 -1.0035569710401877e-14 1.166375326756951e-16 2.6507785612520287 1.2263139824170686e-11 4.8850316194233176e-14 -1.1838437135901534e-10 25.58985811709798" Properties=species:S:1:pos:R:3 unique_starting_index=4 config_type=initial n_minim_iter=12 stress="-0.000138717506099807 -4.440824986841359e-17 6.017305391653723e-16 -4.440824986841359e-17 0.00039786284232841234 3.478878726639033e-15 6.017305391653723e-16 3.478878726639033e-15 -0.00040074601825496986" pbc="T T T"
Si       3.45969559       1.26889983      15.89464195
Si       3.45969559       1.38187873       9.69521616
Si       1.73284254       1.29935165      14.08875988
Si       1.73284254       1.35142691      11.50109824
Si       1.79735953      -0.05648945      22.49014522
Si       1.79735953       2.70726801       3.09971289
Si       3.52421259       2.62474093      24.29602730
Si       3.52421259       0.02603763       1.29383082
Si       4.29434287       2.71654608       3.61260839
Si       4.29434287      -0.06576752      21.97724973
Si       2.72779584       1.26885107      20.60933794
Si       2.72779584       1.38192749       4.98052018
Si       0.96271225       1.39115680       9.18232067
Si       0.96271225       1.25962176      16.40753744
Si       2.52925928      -0.05653821      17.77544924
Si       2.52925928       2.70731677       7.81440888
Si       5.82286355       1.29493791      24.35593372
Si       5.82286355       1.35584065       1.23392439
Si      -0.56580843       2.68122993      11.56100467
Si      -0.56580843      -0.03045137      14.02885345
20
Lattice="5.262845020369806 -2.3157168496843386e-16 -1.0046622460738081e-14 1.1651321892053909e-16 2.6479533279889753 1.2250090297419966e-11 4.887245748083155e-14 -1.1843782935619603e-10 25.60145665783883" Properties=species:S:1:pos:R:3 unique_starting_index=4 config_type=initial n_minim_iter=13 stress="0.00014758328670927008 3.2227406902874937e-17 1.7457317377702166e-16 3.2227406902874937e-17 -0.00012197746445798793 -1.1687976414502196e-15 1.7457317377702166e-16 -1.1687976414502196e-15 0.00013372700699096612" pbc="T T T"
Si       3.45870227       1.26813880      15.90067096
Si       3.45870227       1.37981453       9.70078570
Si       1.73066119       1.29821842      14.09420330
Si       1.73066119       1.34973491      11.50725336
Si       1.80414275      -0.05583787      22.50151403
Si       1.80414275       2.70379119       3.09994263
Si       3.53218383       2.62219508      24.30798169
Si       3.53218383       0.02575825       1.29347497
Si       4.29860807       2.70983153       3.61185727
Si       4.29860807      -0.06187820      21.98959938
Si       2.72688484       1.26826301      20.61569105
Si       2.72688484       1.37969032       4.98576561
Si       0.96423695       1.38585486       9.18887105
Si       0.96423695       1.26209846      16.41258560
Si       2.53596018      -0.05571365      17.78649394
Si       2.53596018       2.70366698       7.81496272
Si       5.82428239       1.29641524      24.36378052
Si       5.82428239       1.35153809       1.23767614
Si      -0.56143737       2.67551475      11.56305219
Si      -0.56143737      -0.02756142      14.03840447
20
Lattice="5.263984024375249 -2.3162180255230915e-16 -1.0048796787205925e-14 1.165425544153572e-16 2.6486200250543583 1.2253178139958603e-11 4.8852675225298504e-14 -1.1838985408093585e-10 25.591093877169946" Properties=species:S:1:pos:R:3 unique_starting_index=4 config_type=initial n_minim_iter=14 stress="-0.00045018023033033776 3.971271329017099e-17 -3.1022894600893476e-16 3.971271329017099e-17 -1.2684513348458599e-06 9.716533171371241e-17 -3.1022894600893476e-16 9.716533171371241e-17 -3.944445392701071e-05" pbc="T T T"
Si       3.45476836       1.27056164      15.89153781
Si       3.45476836       1.37805839       9.69955606
Si       1.72917152       1.30251537      14.08694189
Si       1.72917152       1.34610466      11.50415199
Si       1.80921566      -0.05374837      22.49510300
Si       1.80921566       2.70236840       3.09599088
Si       3.53481250       2.62682538      24.29969893
Si       3.53481250       0.02179464       1.29139495
Si       4.29907732       2.70563780       3.61330380
Si       4.29907732      -0.05701778      21.97779007
Si       2.72605055       1.27313490      20.61002084
Si       2.72605055       1.37548512       4.98107304
Si       0.96490670       1.38132779       9.18224313
Si       0.96490670       1.26729223      16.40885074
Si       2.53793347      -0.05117511      17.77661998
Si       2.53793347       2.69979513       7.81447390
Si       5.82060716       1.29812962      24.35211337
Si       5.82060716       1.35049040       1.23898051
Si      -0.55662313       2.67480041      11.55656643
Si      -0.55662313      -0.02618039      14.03452744
20
Lattice="5.26876697164588 -2.318322581432094e-16 -1.0057927298420239e-14 1.165406774798427e-16 2.6485773686271545 1.225296712687155e-11 4.8835180058509996e-14 -1.1834758834848927e-10 25.581929170147934" Properties=species:S:1:pos:R:3 unique_starting_index=4 config_type=initial n_minim_iter=15 stress="-0.00018366246543230684 4.576141119001362e-17 7.091494123471107e-16 4.576141119001362e-17 1.7290003228838023e-05 2.7585375671610004e-16 7.091494123471107e-16 2.7585375671610004e-16 -5.428397497534209e-05" pbc="T T T"
Si       3.45579511       1.27399599      15.88451995
Si       3.45579511       1.37458138       9.69740922
Si       1.72914761       1.30798223      14.08145265
Si       1.72914761       1.34059513      11.50047652
Si       1.81297186      -0.05029270      22.48837381
Si       1.81297186       2.69887007       3.09355536
Si       3.53961937       2.63227092      24.29144110
Si       3.53961937       0.01630645       1.29048807
Si       4.30238267       2.70066661       3.61365358
Si       4.30238267      -0.05208925      21.96827559
Si       2.72873956       1.27633492      20.60454376
Si       2.72873956       1.37224245       4.97738541
Si       0.96638430       1.37637793       9.17731101
Si       0.96638430       1.27219944      16.40461816
Si       2.54002741      -0.04795377      17.76835000
Si       2.54002741       2.69653114       7.81357917
Si       5.82270538       1.29734874      24.34183849
Si       5.82270538       1.35122863       1.24009068
Si      -0.55393841       2.67551731      11.55087390
Si      -0.55393841      -0.02693994      14.03105527
20
Lattice="5.275157723150471 -2.3211345910740463e-16 -1.007012706249434e-14 1.1653666253878484e-16 2.648486122529645 1.2252567363831785e-11 4.8816522365238e-14 -1.1830215625622917e-10 25.572155482671207" Properties=species:S:1:pos:R:3 unique_starting_index=4 config_type=initial n_minim_iter=16 stress="0.000388779964801925 -7.835487531204187e-18 3.514571212757142e-16 -7.835487531204187e-18 -2.0608594984301224e-05 5.354593740921442e-17 3.514571212757142e-16 5.354593740921442e-17 -2.6991092810984903e-05" pbc="T T T"
Si       3.45893820       1.27901472      15.87588910
Si       3.45893820       1.36947140       9.69626639
Si       1.72907728       1.31406213      14.07646165
Si       1.72907728       1.33442400      11.49569383
Si       1.81621952      -0.04522834      22.48234413
Si       1.81621952       2.69371446       3.08981135
Si       3.54608045       2.63830519      24.28177157
Si       3.54608045       0.01018094       1.29038391
Si       4.30726203       2.69329667       3.61411556
Si       4.30726203      -0.04481054      21.95803992
Si       2.73283202       1.27951499      20.59848112
Si       2.73283202       1.36897114       4.97367437
Si       0.96789569       1.36905360       9.17196218
Si       0.96789569       1.27943252      16.40019330
Si       2.54232570      -0.04472807      17.75975211
Si       2.54232570       2.69321420       7.81240337
Si       5.82621672       1.29743126      24.33056965
Si       5.82621672       1.35105487       1.24158584
Si      -0.55105900       2.67529793      11.54449190
Si      -0.55105900      -0.02681181      14.02766358
20
Lattice="5.270457006119614 -2.319066217486802e-16 -1.0061153526484647e-14 1.1657625082776074e-16 2.649385831099331 1.2256732863498771e-11 4.882914796475899e-14 -1.1833272189711574e-10 25.578769304761984" Properties=species:S:1:pos:R:3 unique_starting_index=4 config_type=initial n_minim_iter=17 stress="0.00011714290954868466 3.1590950890708124e-17 9.993510606741007e-17 3.1590950890708124e-17 5.775464355893879e-05 -2.765530184210421e-16 9.993510606741007e-17 -2.765530184210421e-16 0.00010463045935740822" pbc="T T T"
Si       3.45818141       1.28120561      15.87596194
Si       3.45818141       1.36818022       9.70280737
Si       1.72729667       1.31268211      14.08179610
Si       1.72729667       1.33670372      11.49697321
Si       1.81227559      -0.04348730      22.49219202
Si       1.81227559       2.69287313       3.08657728
Si       3.54316033       2.63737503      24.28635786
Si       3.54316033       0.01201080       1.29241144
Si       4.30568579       2.69069595       3.61581631
Si       4.30568579      -0.04131012      21.96295299
Si       2.73034795       1.28079311      20.60249204
Si       2.73034795       1.36859272       4.97627726
Si       0.96477122       1.36600303       9.17356834
Si       0.96477122       1.28338280      16.40520096
Si       2.54010905      -0.04389980      17.76566191
Si       2.54010905       2.69328563       7.81310739
Si       5.82051268       1.30221457      24.33734714
Si       5.82051268       1.34717126       1.24142217
Si      -0.55005567       2.67186418      11.54796248
Si      -0.55005567      -0.02247834      14.03080682
20
Lattice="5.268028408825722 -2.317997604663753e-16 -1.0056517402862069e-14 1.165918164217972e-16 2.649739584664077 1.2258366169255577e-11 4.881555898553633e-14 -1.1829982133222692e-10 25.571650823708943" Properties=species:S:1:pos:R:3 unique_starting_index=4 config_type=initial n_minim_iter=18 stress="-0.000540160029581971 -1.1466745400743027e-17 8.049417140139305e-16 -1.1466745400743027e-17 -0.00018473026238424465 6.765768572042141e-16 8.049417140139305e-16 6.765768572042141e-16 -0.00033826754761490135" pbc="T T T"
Si       3.45562309       1.28622425      15.87046978
Si       3.45562309       1.36351533       9.70118104
Si       1.72554738       1.31667946      14.07761540
Si       1.72554738       1.33306013      11.49403542
Si       1.81240532      -0.03864554      22.48700646
Si       1.81240532       2.68838512       3.08464437
Si       3.54248102       2.64154925      24.27986084
Si       3.54248102       0.00819033       1.29178999
Si       4.30493130       2.68472666       3.61678363
Si       4.30493130      -0.03498708      21.95486720
Si       2.72872602       1.28613591      20.59711407
Si       2.72872602       1.36360368       4.97453676
Si       0.96309711       1.35985687       9.16904179
Si       0.96309711       1.28988271      16.40260904
Si       2.53930239      -0.03873389      17.76036217
Si       2.53930239       2.68847347       7.81128866
Si       5.81484705       1.30466715      24.33184097
Si       5.81484705       1.34507243       1.23980985
Si      -0.54681865       2.66994222      11.54601556
Si      -0.54681865      -0.02020264      14.02563526
20
Lattice="5.267090811310061 -2.317585050169599e-16 -1.0054727555693184e-14 1.1659114409874954e-16 2.6497243050239923 1.2258313592840956e-11 4.881890437102642e-14 -1.1830775318145242e-10 25.573403277873172" Properties=species:S:1:pos:R:3 unique_starting_index=4 config_type=initial n_minim_iter=19 stress="-0.0004931419789085687 -1.7756183555673898e-17 7.762610245791527e-16 -1.7756183555673898e-17 -0.00013289057297415527 7.670700458331651e-16 7.762610245791527e-16 7.670700458331651e-16 -0.0003164219155627171" pbc="T T T"
Si       3.45548471       1.29064855      15.87233241
Si       3.45548471       1.35907575       9.70107086
Si       1.72469292       1.31752240      14.07899162
Si       1.72469292       1.33220191      11.49441166
Si       1.81160610      -0.03421360      22.48777250
Si       1.81160610       2.68393790       3.08563078
Si       3.54239789       2.64238455      24.28111330
Si       3.54239789       0.00733975       1.29228998
Si       4.30526733       2.67940311       3.61801449
Si       4.30526733      -0.02967880      21.95538879
Si       2.72802211       1.28975022      20.59851624
Si       2.72802211       1.35997409       4.97488703
Si       0.96182349       1.35454095       9.16868715
Si       0.96182349       1.29518335      16.40471612