24
Lattice="8.459409421269246 3.1858755191461514e-14 7.702518289237403e-15 4.2297047106345955 7.326063459832599 -3.028411160871131e-14 4.2297047106346035 2.4420211532776044 13.068805810647683" Properties=species:S:1:pos:R:3 unique_starting_index=24 config_type=initial n_minim_iter=1 energy=-3898.48190226596 free_energy=-3898.48190226596 pbc="T T T"
Si       9.14499781       3.93224270      12.92836085
Si       8.94089702       5.95367907      12.92836085
Si       7.29233217       4.76620441      12.92836085
Si       9.31236060       4.17891868      10.04692085
Si       8.64358796       5.97528151      10.04692085
Si       7.42227844       4.49792600      10.04692085
Si      10.12372951       3.78803838       1.88600264
Si       8.57641578       6.87338775       1.88600264
Si       6.67808171       3.99070007       1.88600264
Si       9.30193405       6.24353082       3.69074786
Si       6.86079468       4.93394578       3.69074786
Si       9.21549827       3.47464959       3.69074786
Si      10.16207668       7.20017411      10.34585525
Si       5.60224597       5.20052951      10.34585525
Si       9.61390434       2.25142257      10.34585525
Si      11.23422095       3.91349711      10.43739225
Si       7.91251961       7.77237218      10.43739225
Si       6.23148644       2.96625691      10.43739225
Si       9.69656316       8.86813911       9.14635124
Si       4.39050266       3.96340047       9.14635124
Si      11.29116117       1.82058661       9.14635124
Si       4.73062500       1.45418721       2.34480206
Si       4.83473301       3.36974782       2.34480206
Si       3.12375486       2.50212770       2.34480206
24
Lattice="8.562930375050957 2.4362365748978395e-14 7.787410837715618e-15 4.281465187525459 7.415715235631553 -3.052226667690899e-14 4.281465187525463 2.471905078543921 13.148177469179428" Properties=species:S:1:pos:R:3 unique_starting_index=24 config_type=initial n_minim_iter=2 stress="0.0683898649462192 9.766663684307845e-16 -3.5770210437098745e-16 9.766663684307845e-16 0.0683898649462176 2.5190406095456852e-17 -3.5770210437098745e-16 2.5190406095456852e-17 0.013192825268219263" pbc="T T T"
Si       9.24384734       3.96621908      13.01583876
Si       9.06908975       6.02229709      13.01583876
Si       7.37585276       4.84291357      13.01583876
Si       9.44795157       4.26387986      10.15465453
Si       8.70925584       6.05022615      10.15465453
Si       7.53158243       4.51732373      10.15465453
Si      10.20590722       3.92845811       1.96014668
Si       8.62076176       6.87434587       1.96014668
Si       6.86212086       4.02862575       1.96014668
Si       9.39347929       6.23291481       3.69955090
Si       7.03125769       5.01853430       3.69955090
Si       9.26405286       3.57998063       3.69955090
Si      10.21713983       7.31015020      10.40814068
Si       5.68651420       5.19322755      10.40814068
Si       9.78513581       2.32805198      10.40814068
Si      11.36259366       3.85877406      10.44986237
Si       8.10276670       7.91090773      10.44986237
Si       6.22342948       3.06174794      10.44986237
Si       9.76399510       8.98704634       9.19044233
Si       4.46085191       3.96234463       9.19044233
Si      11.46394284       1.88203877       9.19044233
Si       4.80180709       1.45707748       2.31721803
Si       4.90015987       3.42994819       2.31721803
Si       3.14242732       2.52868884       2.31721803
24
Lattice="8.488497272468623 6.446023412345225e-15 7.832364083344406e-15 4.244248636234308 7.3512542779127426 -3.0396535335307146e-14 4.2442486362343015 2.450418092637645 13.191679920815771" Properties=species:S:1:pos:R:3 unique_starting_index=24 config_type=initial n_minim_iter=3 stress="0.028787020195367493 2.3037783532144434e-15 -6.248563192625018e-16 2.3037783532144434e-15 0.02878702019536501 3.490034290204155e-16 -6.248563192625018e-16 3.490034290204155e-16 0.01537252698517897" pbc="T T T"
Si       9.14552395       3.91336003      13.07093539
Si       9.01516252       5.96357605      13.07093539
Si       7.30480408       4.82557174      13.07093539
Si       9.39356509       4.27295750      10.25200999
Si       8.57972141       5.99858725      10.25200999
Si       7.49220405       4.43096308      10.25200999
Si      10.06262341       4.01933255       2.05179893
Si       8.46483790       6.70482123       2.05179893
Si       6.93802924       3.97835405       2.05179893
Si       9.28198415       6.06190293       3.69342743
Si       7.08623969       5.00748261       3.69342743
Si       9.09726671       3.63312228       3.69342743
Si      10.03423309       7.27601435      10.44149967
Si       5.65866389       5.05189359      10.44149967
Si       9.77259356       2.37459988      10.44149967
Si      11.25140113       3.68710410      10.41502257
Si       8.15816731       7.90044716      10.41502257
Si       6.05592210       3.11495656      10.41502257
Si       9.61021912       8.92267758       9.20585938
Si       4.44461869       3.86135510       9.20585938
Si      11.41065274       1.91847514       9.20585938
Si       4.77595841       1.42591069       2.26777535
Si       4.86564234       3.42314596       2.26777535
Si       3.09114389       2.50219689       2.26777535
24
Lattice="8.48056800310814 -1.0698609984365224e-14 7.79503396997691e-15 4.2402840015540795 7.344387329213099 -3.043073750075241e-14 4.2402840015540635 2.4481291097377578 13.039801358370545" Properties=species:S:1:pos:R:3 unique_starting_index=24 config_type=initial n_minim_iter=4 stress="0.007721323132265455 1.6054541054603995e-15 -2.1134369603965107e-15 1.6054541054603995e-15 0.007721323132263026 -5.924957279057373e-17 -2.1134369603965107e-15 -5.924957279057373e-17 -0.004437712557698513" pbc="T T T"
Si       9.13017470       3.90381788      12.92400520
Si       9.01524236       5.95505429      12.92400520
Si       7.29628568       4.82990176      12.92400520
Si       9.40062562       4.28383190      10.15609793
Si       8.55091510       5.99926465      10.15609793
Si       7.49016202       4.40567738      10.15609793
Si      10.04127364       4.05584581       2.05395449
Si       8.42803283       6.66807516       2.05395449
Si       6.97239626       3.96485296       2.05395449
Si       9.26517694       6.01465359       3.64820008
Si       7.11970389       5.01655180       3.64820008
Si       9.05682192       3.65756853       3.64820008
Si       9.99651144       7.28398699      10.31842356
Si       5.65476167       5.01523937      10.31842356
Si       9.79042963       2.38954758      10.31842356
Si      11.24808509       3.63279730      10.26606073
Si       8.19099787       7.92472879      10.26606073
Si       6.00261978       3.13124784      10.26606073
Si       9.57352720       8.91875611       9.10264524
Si       4.45050220       3.83153971       9.10264524
Si      11.41767334       1.93847812       9.10264524
Si       4.77290286       1.41924514       2.22204972
Si       4.86501338       3.42383255       2.22204972
Si       3.08293450       2.50130890       2.22204972
24
Lattice="8.445681857679373 -3.006748941069319e-14 7.906878053333788e-15 4.222840928839714 7.314175041031662 -3.033427907805932e-14 4.222840928839687 2.4380583470106063 13.254972206419696" Properties=species:S:1:pos:R:3 unique_starting_index=24 config_type=initial n_minim_iter=5 stress="-0.006912287343893785 2.0041388756270467e-15 -1.8913609374437478e-15 2.0041388756270467e-15 -0.006912287343898536 1.5074345990415703e-16 -1.8913609374437478e-15 1.5074345990415703e-16 0.013412858317000766" pbc="T T T"
Si       9.08755375       3.88418836      13.14039217
Si       8.98378021       5.92795822      13.14039217
Si       7.26571035       4.81620277      13.14039217
Si       9.37263170       4.28059702      10.33843570
Si       8.49794126       5.97663865      10.33843570
Si       7.46647134       4.37111369      10.33843570
Si       9.99845886       4.06494883       2.10165040
Si       8.37178449       6.62644496       2.10165040
Si       6.96680096       3.93695557       2.10165040
Si       9.22449383       5.95989662       3.71087689
Si       7.11769408       5.00869769       3.71087689
Si       8.99485640       3.65975505       3.71087689
Si       9.94874913       7.26389425      10.48441969
Si       5.62627136       4.98392236      10.48441969
Si       9.76202383       2.38053275      10.48441969
Si      11.21955327       3.59094257      10.41150833
Si       8.17173875       7.92094687      10.41150833
Si       5.94575229       3.11645992      10.41150833
Si       9.51238901       8.88692430       9.25975994
Si       4.43886617       3.79450839       9.25975994
Si      11.38578913       1.94691667       9.25975994
Si       4.75042499       1.41169311       2.24586827
Si       4.84790643       3.40814217       2.24586827
Si       3.07019010       2.49433904       2.24586827
24
Lattice="8.405245039701919 -6.724883707651516e-14 7.898886035674777e-15 4.202622519851021 7.279155729414962 -3.0250628887450114e-14 4.20262251985097 2.42638524313836 13.107329621972845" Properties=species:S:1:pos:R:3 unique_starting_index=24 config_type=initial n_minim_iter=6 stress="-0.024615901158354006 2.416677406047856e-15 -2.5144340326868655e-15 2.416677406047856e-15 -0.02461590115836193 2.294139846615952e-16 -2.5144340326868655e-15 2.294139846615952e-16 -0.026144590114534877" pbc="T T T"
Si       9.03852665       3.86212946      12.99646463
Si       8.94652369       5.89652896      12.99646463
Si       7.23068352       4.79965231      12.99646463
Si       9.34730630       4.27405649      10.24021078
Si       8.43539460       5.95797647      10.24021078
Si       7.43303296       4.32627778      10.24021078
Si       9.95320458       4.06856187       2.09403861
Si       8.31040901       6.58544708       2.09403861
Si       6.95212026       3.90430178       2.09403861
Si       9.17737342       5.90002886       3.67096276
Si       7.11222765       4.99782410       3.67096276
Si       8.92613278       3.66045778       3.67096276
Si       9.90773070       7.23725146      10.36124961
Si       5.58898027       4.96172075      10.36124961
Si       9.71902289       2.35933852      10.36124961
Si      11.19340168       3.56086427      10.26973090
Si       8.12998948       7.91333807      10.26973090
Si       5.89234270       3.08410839      10.26973090
Si       9.44213387       8.85384522       9.16638255
Si       4.42176743       3.75020519       9.16638255
Si      11.35183256       1.95426033       9.16638255
Si       4.72043533       1.40444030       2.20669539
Si       4.82874556       3.38579676       2.20669539
Si       3.05868541       2.48891794       2.20669539
24
Lattice="8.287125330504844 -1.5747006673307436e-13 8.021239677462665e-15 4.1435626652525634 7.176861060562622 -3.035279820811657e-14 4.14356266525246 2.392287020187551 13.511445026174712" Properties=species:S:1:pos:R:3 unique_starting_index=24 config_type=initial n_minim_iter=7 stress="-0.048658018641799396 1.7758150108646241e-15 -4.4863076758365426e-15 1.7758150108646241e-15 -0.04865801864180394 -6.320122333825667e-16 -4.4863076758365426e-15 -6.320122333825667e-16 -0.015908504449492347" pbc="T T T"
Si       8.90164352       3.80217091      13.40005576
Si       8.83065148       5.80796397      13.40005576
Si       7.12907975       4.74358653      13.40005576
Si       9.28817591       4.21996205      10.58740366
Si       8.27556754       5.93381528      10.58740366
Si       7.29763129       4.19994409      10.58740366
Si       9.85776077       4.02404488       2.17713202
Si       8.16044436       6.52504881       2.17713202
Si       6.84316963       3.80462772       2.17713202
Si       9.04743679       5.75771662       3.79676529
Si       7.06420258       4.95645179       3.79676529
Si       8.74973538       3.63955300       3.79676529
Si       9.78106611       7.16242260      10.65422294
Si       5.48087686       4.88944043      10.65422294
Si       9.59943179       2.30185838      10.65422294
Si      11.07625857       3.52385754      10.56695553
Si       7.98437040       7.83039253      10.56695553
Si       5.80074578       2.99947134      10.56695553
Si       9.25188196       8.75885445       9.45633451
Si       4.36291840       3.63293759       9.45633451
Si      11.24657440       1.96192937       9.45633451
Si       4.61828569       1.38168545       2.24774882
Si       4.78140696       3.30871001       2.24774882
Si       3.03099411       2.48646489       2.24774882
24
Lattice="8.200950640736652 -2.7277774146903036e-13 8.891617585714686e-15 4.100475320368563 7.102231590060065 -3.1947975504656804e-14 4.1004753203683935 2.3674105300199915 13.789609501359571" Properties=species:S:1:pos:R:3 unique_starting_index=24 config_type=initial n_minim_iter=8 stress="-0.10096431215219027 8.406484345558001e-16 -6.685481189973779e-15 8.406484345558001e-16 -0.10096431215219374 -1.9337808164924466e-15 -6.685481189973779e-15 -1.9337808164924466e-15 -0.040703182631031024" pbc="T T T"
Si       8.79816204       3.75371822      13.67835986
Si       8.75200411       5.74257272      13.67835986
Si       7.05268455       4.70817153      13.67835986
Si       9.24367484       4.20445064      10.84746046
Si       8.13890198       5.90303192      10.84746046
Si       7.22027387       4.09697992      10.84746046
Si       9.81557944       3.98802382       2.24970503
Si       8.04038081       6.50652924       2.24970503
Si       6.74689045       3.70990942       2.24970503
Si       8.94614903       5.62274471       3.88615998
Si       7.05938619       4.93621998       3.88615998
Si       8.59731547       3.64549779       3.88615998
Si       9.69340139       7.12617199      10.83616471
Si       5.38375380       4.83164586      10.83616471
Si       9.52569551       2.24664463      10.83616471
Si      11.01626935       3.50401945      10.77699352
Si       7.85919593       7.78835939      10.77699352
Si       5.72738542       2.91208364      10.77699352
Si       9.06896232       8.71140663       9.64789579
Si       4.32311986       3.49824844       9.64789579
Si      11.21076851       1.99480740       9.64789579
Si       4.52445911       1.35330986       2.25854627
Si       4.76671955       3.24164160       2.25854627
Si       3.01024607       2.50727942       2.25854627
24
Lattice="8.191535332898242 -3.289663966517214e-13 9.609232409151349e-15 4.095767666449407 7.094077694287526 -3.219280742198056e-14 4.0957676664492055 2.3646925647624584 13.863619198235257" Properties=species:S:1:pos:R:3 unique_starting_index=24 config_type=initial n_minim_iter=9 stress="-0.09919617422252662 5.105503672151651e-16 -9.255554582930213e-15 5.105503672151651e-16 -0.09919617422252588 -2.3728529626506667e-15 -9.255554582930213e-15 -2.3728529626506667e-15 -0.015987879089295533" pbc="T T T"
Si       8.78337932       3.74727475      13.75188191
Si       8.74614506       5.73299225      13.75188191
Si       7.04508039       4.70788768      13.75188191
Si       9.25006595       4.20826996      10.92219470
Si       8.11356819       5.90665712      10.92219470
Si       7.21097064       4.07322760      10.92219470
Si       9.84070384       3.97188791       2.26889757
Si       8.02296210       6.53635557       2.26889757
Si       6.71093883       3.67991121       2.26889757
Si       8.93556909       5.59178194       3.91248736
Si       7.07266009       4.94253886       3.91248736
Si       8.56637559       3.65383388       3.91248736
Si       9.68748493       7.14115153      10.86870951
Si       5.35490874       4.81903228      10.86870951
Si       9.53221110       2.22797087      10.86870951
Si      11.02621412       3.51862355      10.85438687
Si       7.82274541       7.78966976      10.85438687
Si       5.72564525       2.87986137      10.85438687
Si       9.02570298       8.69906475       9.68998117
Si       4.33660730       3.46695569       9.68998117
Si      11.21229450       2.02213424       9.68998117
Si       4.49232161       1.34165635       2.25721152
Si       4.78346523       3.21963646       2.25721152
Si       3.01151494       2.53278418       2.25721152
24
Lattice="8.234664467872213 -3.7075673636223605e-13 9.955192255613454e-15 4.117332233936428 7.131428620818207 -3.269340092530235e-14 4.117332233936203 2.3771428736060036 13.756489700146002" Properties=species:S:1:pos:R:3 unique_starting_index=24 config_type=initial n_minim_iter=10 stress="0.010170455735717232 -7.999688771876887e-16 -9.55255690208317e-15 -7.999688771876887e-16 0.01017045573571207 -2.9903727344609075e-15 -9.55255690208317e-15 -2.9903727344609075e-15 0.0073648977679682546" pbc="T T T"
Si       8.82961849       3.76527002      13.64664181
Si       8.79369938       5.76403891      13.64664181
Si       7.08067430       4.73354761      13.64664181
Si       9.28758865       4.23698669      10.84041331
Si       8.15619568       5.92479437      10.84041331
Si       7.26020784       4.10107548      10.84041331
Si       9.92250091       3.97309169       2.24772208
Si       8.06727932       6.60659201       2.24772208
Si       6.71421194       3.68317283       2.24772208
Si       8.99123407       5.62252819       3.88693991
Si       7.10445884       4.97537302       3.88693991
Si       8.60829927       3.66495532       3.88693991
Si       9.73149235       7.19329441      10.76188817
Si       5.37400625       4.83107239      10.76188817
Si       9.59849357       2.23848973      10.76188817
Si      11.10299733       3.56432843      10.79284613
Si       7.83103048       7.83331353      10.79284613
Si       5.76996436       2.86521457      10.79284613
Si       9.08604215       8.72903575       9.61518428
Si       4.36674033       3.50422545       9.61518428
Si      11.25120969       2.02959533       9.61518428
Si       4.49705343       1.34055621       2.23549971
Si       4.82518120       3.22428441       2.23549971
Si       3.02976084       2.56658729       2.23549971
24
Lattice="8.271077754179322 -4.329913660108621e-13 1.0160576124005618e-14 4.135538877090035 7.162963451795409 -3.297268718011895e-14 4.135538877089775 2.3876544839317146 13.51501707994866" Properties=species:S:1:pos:R:3 unique_starting_index=24 config_type=initial n_minim_iter=11 stress="-0.005586556110658932 -2.8214510928595047e-15 -1.664323110311397e-14 -2.8214510928595047e-15 -0.005586556110664973 -3.610733267692058e-15 -1.664323110311397e-14 -3.610733267692058e-15 -0.005951846800003141" pbc="T T T"
Si       8.86909475       3.76584334      13.42378002
Si       8.84629131       5.79793969      13.42378002
Si       7.09784597       4.76214316      13.42378002
Si       9.32799261       4.26304833      10.66271071
Si       8.18625023       5.94675440      10.66271071
Si       7.29898919       4.11612346      10.66271071
Si       9.97847719       4.01647604       2.23289250
Si       8.07454581       6.63337672       2.23289250
Si       6.76020903       3.67607343       2.23289250
Si       9.04237514       5.62226439       3.81345414
Si       7.15194333       5.01979439       3.81345414
Si       8.61891356       3.68386742       3.81345414
Si       9.72262884       7.25200960      10.51801081
Si       5.40041572       4.79403876      10.51801081
Si       9.69018747       2.27987783      10.51801081
Si      11.16332974       3.61569744      10.62585869
Si       7.82920398       7.85987843      10.62585869
Si       5.82069831       2.85035032      10.62585869
Si       9.06744222       8.76082295       9.45569743
Si       4.42133834       3.47222383       9.45569743
Si      11.32445147       2.09287941       9.45569743
Si       4.51303625       1.31254466       2.17083972
Si       4.87786179       3.25213171       2.17083972
Si       3.01571735       2.59828637       2.17083972
24
Lattice="8.336508008034722 -4.560829288673906e-13 9.934886875991088e-15 4.168254004017755 7.219627713810239 -3.324105261617456e-14 4.1682540040174825 2.406542571269984 13.375422875007686" Properties=species:S:1:pos:R:3 unique_starting_index=24 config_type=initial n_minim_iter=12 stress="0.04429656928534766 -4.147615977806108e-15 -1.5137934641758082e-14 -4.147615977806108e-15 0.04429656928534055 -3.6959912220658564e-15 -1.5137934641758082e-14 -3.6959912220658564e-15 0.02679700642775623" pbc="T T T"
Si       8.93528556       3.79465139      13.29999484
Si       8.91910790       5.84085859      13.29999484
Si       7.15512932       4.80374473      13.29999484
Si       9.39095053       4.29924099      10.55125691
Si       8.25428801       5.98318123      10.55125691
Si       7.36428424       4.15683249      10.55125691
Si      10.04672354       4.06963387       2.22976168
Si       8.12524710       6.66590087       2.22976168
Si       6.83755214       3.70371997       2.22976168
Si       9.11388954       5.65377077       3.76151217
Si       7.21976131       5.06597449       3.76151217
Si       8.67587193       3.71950946       3.76151217
Si       9.76269961       7.30084937      10.39781905
Si       5.46894436       4.80432119      10.39781905
Si       9.77787881       2.33408415      10.39781905
Si      11.25146815       3.66142832      10.52964674
Si       7.87639117       7.91334309      10.52964674
Si       5.88166346       2.86448330      10.52964674
Si       9.11297313       8.83846690       9.34980354
Si       4.46219175       3.47283278       9.34980354
Si      11.43435790       2.12795503       9.34980354
Si       4.54310534       1.34250700       2.13373267
Si       4.90230934       3.26319114       2.13373267
Si       3.05934608       2.61392886       2.13373267
24
Lattice="8.357252070083206 -4.869414054166924e-13 1.0033350526597366e-14 4.178626035042021 7.23759259852189 -3.343363107101854e-14 4.178626035041731 2.412530866173856 13.054578614990069" Properties=species:S:1:pos:R:3 unique_starting_index=24 config_type=initial n_minim_iter=13 stress="0.010887656819574102 -4.017729795453945e-15 -1.654799740842134e-14 -4.017729795453945e-15 0.010887656819565916 -3.095331690206586e-15 -1.654799740842134e-14 -3.095331690206586e-15 0.02561835167094199" pbc="T T T"
Si       8.94667301       3.81024568      13.03010111
Si       8.94139725       5.84292326      13.03010111
Si       7.18368471       4.82201553      13.03010111
Si       9.39155603       4.31492428      10.26421998
Si       8.28189125       5.97586397      10.26421998
Si       7.39830767       4.18439623      10.26421998
Si      10.05823113       4.08621511       2.22448542
Si       8.14662165       6.66757612       2.22448542
Si       6.86690218       3.72139325       2.22448542
Si       9.10723680       5.62628287       3.62104225
Si       7.28838101       5.07395699       3.62104225
Si       8.67613715       3.77494462       3.62104225
Si       9.72135995       7.27528628      10.14320476
Si       5.55324059       4.78130153      10.14320476
Si       9.79715442       2.41859666      10.14320476
Si      11.26182354       3.71394733      10.28661855
Si       7.86721880       7.89605162      10.28661855
Si       5.94271262       2.86518553      10.28661855
Si       9.12176665       8.86083495       9.12280005
Si       4.47991181       3.46926417       9.12280005
Si      11.47007650       2.14508535       9.12280005
Si       4.55763463       1.31753307       2.06774294
Si       4.93741681       3.28826084       2.06774294
Si       3.04082541       2.63179797       2.06774294
24
Lattice="8.380592124790066 -5.061497919033408e-13 1.021134749335795e-14 4.190296062395468 7.257805678823741 -3.338143454303164e-14 4.190296062395166 2.419268559607798 12.878568528908279" Properties=species:S:1:pos:R:3 unique_starting_index=24 config_type=initial n_minim_iter=14 stress="0.025964246709730698 -1.3900284216945585e-15 -1.749854987403767e-14 -1.3900284216945585e-15 0.025964246709722003 -2.619963652131824e-15 -1.749854987403767e-14 -2.619963652131824e-15 -0.0017486299187460318" pbc="T T T"
Si       8.96675641       3.82504931      12.87589444
Si       8.96521533       5.85291419      12.87589444
Si       7.20980338       4.83764714      12.87589444
Si       9.40570375       4.34766042      10.10722541
Si       8.29314717       5.97174818      10.10722541
Si       7.44292420       4.19620204      10.10722541
Si      10.08301935       4.09674085       2.22208874
Si       8.17179209       6.68378048       2.22208874
Si       6.88696368       3.73508930       2.22208874
Si       9.15313739       5.64301460       3.53848247
Si       7.29762072       5.10534221       3.53848247
Si       8.69101701       3.76725383       3.53848247
Si       9.73251304       7.28301654      10.00315467
Si       5.58764956       4.78709527      10.00315467
Si       9.82161252       2.44549883      10.00315467
Si      11.26962118       3.74032778      10.14660554
Si       7.88715395       7.88961434      10.14660554
Si       5.98499999       2.88566852      10.14660554
Si       9.14156482       8.87716464       9.00474287
Si       4.50255092       3.47824505       9.00474287
Si      11.49765939       2.16020095       9.00474287
Si       4.56233709       1.31883724       2.04281326
Si       4.95727619       3.29168120       2.04281326
Si       3.05127365       2.64728651       2.04281326
24
Lattice="8.408294923062371 -5.888607491418493e-13 1.0228205395785603e-14 4.20414746153169 7.2817970058834325 -3.350858784379511e-14 4.204147461531342 2.427265668627666 12.774002240923974" Properties=species:S:1:pos:R:3 unique_starting_index=24 config_type=initial n_minim_iter=15 stress="-0.0168093703117211 1.4614684803744018e-16 -2.248597855281131e-14 1.4614684803744018e-16 -0.016809370311721673 -2.9346279101205838e-15 -2.248597855281131e-14 -2.9346279101205838e-15 -0.028661784523127325" pbc="T T T"
Si       8.98347970       3.83501232      12.80101350
Si       9.00363107       5.86241547      12.80101350
Si       7.23777275       4.86616549      12.80101350
Si       9.43161394       4.42888958      10.00792037
Si       8.26525115       5.95357248      10.00792037
Si       7.52801842       4.18113123      10.00792037
Si      10.13230587       4.14297239       2.31039849
Si       8.16251674       6.70334809       2.31039849
Si       6.93006090       3.71727281       2.31039849
Si       9.25714001       5.57232694       3.40260727
Si       7.36224232       5.23075494       3.40260727
Si       8.60550119       3.76051141       3.40260727
Si       9.71026610       7.28911561       9.89669472
Si       5.64889667       4.76477931       9.89669472
Si       9.86572075       2.50969836       9.89669472
Si      11.29429939       3.78032400      10.05114699
Si       7.89558270       7.89098819      10.05114699
Si       6.03500143       2.89228110      10.05114699
Si       9.17244362       8.90706887       8.93917652
Si       4.51661929       3.49003476       8.93917652
Si      11.53582060       2.16648967       8.93917652
Si       4.52697294       1.30839140       2.04536435
Si       5.01170742       3.26627787       2.04536435
Si       3.07376076       2.70712701       2.04536435
24
Lattice="8.421206171240756 -6.131976698545432e-13 1.0247461762844e-14 4.210603085620905 7.292978474800466 -3.339801175868377e-14 4.210603085620541 2.4309928249333357 12.761315108067485" Properties=species:S:1:pos:R:3 unique_starting_index=24 config_type=initial n_minim_iter=16 stress="-0.0011789316837690837 5.229592498236261e-16 -2.160736800777159e-14 5.229592498236261e-16 -0.001178931683770396 -2.748787513874737e-15 -2.160736800777159e-14 -2.748787513874737e-15 -0.02097041561190156" pbc="T T T"
Si       8.99506876       3.83964155      12.78878702
Si       9.01965000       5.87013728      12.78878702
Si       7.24889849       4.87617740      12.78878702
Si       9.44775292       4.44780370       9.99451160
Si       8.26662405       5.95809218       9.99451160
Si       7.54924029       4.18006034       9.99451160
Si      10.16176636       4.14812531       2.32605326
Si       8.16914643       6.72628516       2.32605326
Si       6.93270446       3.71154575       2.32605326
Si       9.29981124       5.56515122       3.37668196
Si       7.37294355       5.27129718       3.37668196
Si       8.59086246       3.74950783       3.37668196
Si       9.71441370       7.28656248       9.88493321
Si       5.67485644       4.76964781       9.88493321
Si       9.87434712       2.52974594       9.88493321
Si      11.31057955       3.78667414      10.03771618
Si       7.90776573       7.90191215      10.03771618
Si       6.04527198       2.89736993      10.03771618
Si       9.18659395       8.92231866       8.93104173
Si       4.52215991       3.49466441       8.93104173
Si      11.55486339       2.16897316       8.93104173
Si       4.51935580       1.30670705       2.05554724
Si       5.02988593       3.26052341       2.05554724
Si       3.08256627       2.72574729       2.05554724
24
Lattice="8.42588554689288 -6.451568787095866e-13 1.0202868477127317e-14 4.212942773446995 7.2970309329890375 -3.355723824298321e-14 4.2129427734466125 2.432343644329516 12.915149440626953" Properties=species:S:1:pos:R:3 unique_starting_index=24 config_type=initial n_minim_iter=17 stress="0.04381195668475041 -6.941739371985468e-17 -2.1505078647954407e-14 -6.941739371985468e-17 0.0438119566847491 -1.6791380707103445e-15 -2.1505078647954407e-14 -1.6791380707103445e-15 0.024856893291275516" pbc="T T T"
Si       9.00087987       3.83576365      12.92817900
Si       9.02946156       5.87710880      12.92817900
Si       7.24731396       4.88118869      12.92817900
Si       9.46833833       4.46351401      10.11515949
Si       8.25208457       5.96806452      10.11515949
Si       7.55723248       4.16248261      10.11515949
Si      10.18992730       4.11832432       2.35210372
Si       8.19023313       6.76557375       2.35210372
Si       6.89749495       3.71016308       2.35210372
Si       9.30860440       5.56697262       3.40494084
Si       7.37632834       5.27800157       3.40494084
Si       8.59272264       3.74908695       3.40494084
Si       9.72549857       7.28126241       9.99996005
Si       5.68326275       4.78189762       9.99996005
Si       9.86889406       2.53090111       9.99996005