14
Lattice="8.304298336601567 0.6387405109231286 2.0664116388428497 0.5828326108082045 7.383676901218482 -0.9439143187480936 -2.020829657694202 -0.8732535824090563 6.641976277994186" Properties=species:S:1:pos:R:3 unique_starting_index=20 config_type=initial n_minim_iter=1 energy=-2276.4489358527176 free_energy=-2276.4489358527176 pbc="T T T"
Si       5.47702129       5.07673647       7.26019983
Si       7.64064772       3.65410200       1.72315573
Si       1.38928000       2.07242736       0.50427377
Si      -0.77434643       3.49506182       6.04131787
Si       6.64302229       4.61535379       5.16920355
Si       6.24443811       2.35784601       4.25272076
Si       0.22327900       2.53381004       2.59527005
Si       0.62186318       4.79131782       3.51175284
Si       1.88880827       4.17915502       1.62029269
Si       0.97757822       2.79375563       4.78540427
Si       4.97749302       2.97000881       6.14418091
Si       5.88872307       4.35540820       2.97906932
Si       4.16194581       3.71500719       1.61650118
Si       2.70435548       3.43415664       6.14797242
14
Lattice="8.35575862572687 0.6317122101275197 2.1100627726043633 0.5840085494749497 7.369111781754724 -0.9746762977429674 -1.981390992082639 -0.9095810227433966 6.587663850603169" Properties=species:S:1:pos:R:3 unique_starting_index=20 config_type=initial n_minim_iter=2 stress="-0.0006444311758338756 0.0002645990098100584 0.002002056981388108 0.0002645990098100584 -0.0005846605583187547 0.00018669777666623436 0.002002056981388108 0.00018669777666623436 -0.0022657402661693487" pbc="T T T"
Si       5.55964663       5.02391315       7.22217788
Si       7.68843323       3.64096751       1.74613148
Si       1.39872955       2.06732982       0.50087245
Si      -0.73005705       3.45027546       5.97691885
Si       6.71246884       4.57524209       5.15655599
Si       6.30780980       2.33250851       4.25862384
Si       0.24590734       2.51600088       2.56649434
Si       0.65056638       4.75873446       3.46442648
Si       1.91327784       4.15834425       1.59886294
Si       1.02044416       2.75912831       4.74483527
Si       5.04509834       2.93289871       6.12418739
Si       5.93793202       4.33211466       2.97821505
Si       4.19023991       3.69821024       1.61749822
Si       2.76813628       3.39303273       6.10555211
14
Lattice="8.444117221916114 0.606653935921315 2.10309245840586 0.5878319003411185 7.374182097021228 -1.0530408446301447 -2.009746865693196 -0.9748899895678435 6.623580707617858" Properties=species:S:1:pos:R:3 unique_starting_index=20 config_type=initial n_minim_iter=3 stress="0.009200480240819668 -0.0012223226811000744 0.0001327778281078168 -0.0012223226811000744 -0.00015564577304255677 -0.003308853398816701 0.0001327778281078168 -0.003308853398816701 0.006905918471319146" pbc="T T T"
Si       5.61648681       4.93890283       7.19124867
Si       7.76899546       3.62056469       1.70333073
Si       1.40571545       2.06704322       0.48238365
Si      -0.74679321       3.38538135       5.97030159
Si       6.77727601       4.50546104       5.11777965
Si       6.38550849       2.28532870       4.24723973
Si       0.24492625       2.50048500       2.55585267
Si       0.63669377       4.72061734       3.42639260
Si       1.93657132       4.13330091       1.55600213
Si       1.03271928       2.70651949       4.73171989
Si       5.08563093       2.87264513       6.11763019
Si       5.98948298       4.29942655       2.94191243
Si       4.21676605       3.67515420       1.59103237
Si       2.80543621       3.33079184       6.08259995
14
Lattice="8.386146473090953 0.6144519795731357 2.067109705219425 0.5976235674649015 7.378487969543875 -1.0657719151826646 -2.0137629309218372 -0.9943417858887658 6.583471564572438" Properties=species:S:1:pos:R:3 unique_starting_index=20 config_type=initial n_minim_iter=4 stress="-7.32043650922863e-05 -0.0011380452037528734 -0.002567149845425117 -0.0011380452037528734 -0.0034835221834762227 -0.004117165481068209 -0.002567149845425117 -0.004117165481068209 -0.00039747596114682386" pbc="T T T"
Si       5.57838919       4.92457323       7.11350137
Si       7.72132850       3.63163886       1.65982564
Si       1.39161792       2.07402493       0.47130798
Si      -0.75132139       3.36695930       5.92498371
Si       6.72911219       4.49245201       5.04949590
Si       6.35265122       2.28479175       4.19810642
Si       0.24089492       2.50614615       2.53531346
Si       0.61735589       4.71380642       3.38670294
Si       1.93287697       4.12822316       1.52552354
Si       1.02633756       2.69547076       4.68633797
Si       5.03713014       2.87037500       6.05928581
Si       5.94366955       4.30312740       2.89847138
Si       4.17715954       3.67600226       1.56805669
Si       2.79284757       3.32259590       6.01675266
14
Lattice="8.390321614903266 0.6906682223647319 2.127262720582467 0.6295838084029324 7.470264479749847 -0.9765440607033194 -1.9693853178481644 -0.9419717950857814 6.545998764854892" Properties=species:S:1:pos:R:3 unique_starting_index=20 config_type=initial n_minim_iter=5 stress="-0.0022188212781110005 0.002559895123990783 0.0005099266368012007 0.002559895123990783 0.0013241979297217942 -0.0009435642871328725 0.0005099266368012007 -0.0009435642871328725 6.974074508831522e-05" pbc="T T T"
Si       5.65645090       5.09864731       7.19416712
Si       7.74019521       3.74538757       1.74697636
Si       1.39406920       2.12031360       0.50255030
Si      -0.68967510       3.47357334       5.94974107
Si       6.77918242       4.63395401       5.13091163
Si       6.40295277       2.39682156       4.25958525
Si       0.27133769       2.58500690       2.56580580
Si       0.64756733       4.82213935       3.43713217
Si       1.96959760       4.20860639       1.57941965
Si       1.08166544       2.79219521       4.71196083
Si       5.08092251       3.01035452       6.11729777
Si       5.96885467       4.42676570       2.98475659
Si       4.18596754       3.76403990       1.64126655
Si       2.86455257       3.45492101       6.05545087
14
Lattice="8.450936339389857 0.6302401643347305 2.1484857133857833 0.5493336125766077 7.457027709247158 -0.858469462326787 -1.95149093145854 -0.8231236297602837 6.471824840295975" Properties=species:S:1:pos:R:3 unique_starting_index=20 config_type=initial n_minim_iter=6 stress="0.0021112293209496636 0.00019474914633271963 -0.001307632826304442 0.00019474914633271963 -0.0007278369507396327 0.0019227103214060723 -0.001307632826304442 0.0019227103214060723 -0.0048731227397390674" pbc="T T T"
Si       5.67679323       5.14280322       7.22902450
Si       7.76110001       3.69705820       1.81240430
Si       1.37198579       2.12134103       0.53281659
Si      -0.71232099       3.56708604       5.94943679
Si       6.79487034       4.62533894       5.17179773
Si       6.45878749       2.39214200       4.28173708
Si       0.25390868       2.63880530       2.59004336
Si       0.58999153       4.87200224       3.48010401
Si       1.94267368       4.21109921       1.63245196
Si       1.08740414       2.85634824       4.71565499
Si       5.10610534       3.05304504       6.12938913
Si       5.96137488       4.40779600       3.04618610
Si       4.17418776       3.74452207       1.70125178
Si       2.87459126       3.51962217       6.06058931
14
Lattice="8.388635210922047 0.5341010638206286 2.2633693618260127 0.4345759686559292 7.465873212671483 -0.8135993006806439 -1.847874282652061 -0.7562636536154174 6.505573445247992" Properties=species:S:1:pos:R:3 unique_starting_index=20 config_type=initial n_minim_iter=7 stress="-0.0022367672358894414 -0.001614361567890509 0.0013639430955969104 -0.001614361567890509 -0.002396845690541254 0.001058566324424555 0.0013639430955969104 0.001058566324424555 0.0019767527010491953" pbc="T T T"
Si       5.65446347       5.12037021       7.38980365
Si       7.65640213       3.62792406       1.94001151
Si       1.32087342       2.12334041       0.56553985
Si      -0.68106523       3.61578656       6.01533199
Si       6.72925046       4.56031031       5.31115900
Si       6.44525484       2.34141454       4.40921942
Si       0.24608643       2.68340031       2.64418451
Si       0.53008205       4.90229608       3.54612409
Si       1.88340851       4.20305690       1.69559886
Si       1.10957280       2.88643084       4.79122168
Si       5.09192839       3.04065373       6.25974465
Si       5.86576409       4.35727978       3.16412183
Si       4.09890008       3.70805231       1.79486858
Si       2.87643682       3.53565832       6.16047492
14
Lattice="8.425241337845863 0.558967237457405 2.2391723114153623 0.44969217120133925 7.714750757410548 -0.8410471943563872 -1.8576271608360162 -0.822009917806137 6.441007488491564" Properties=species:S:1:pos:R:3 unique_starting_index=20 config_type=initial n_minim_iter=8 stress="0.0007168642472557431 -0.0009384663936956705 0.0002536243690589415 -0.0009384663936956705 0.0045545958945698425 -0.0010404512004347135 0.0002536243690589415 -0.0010404512004347135 -0.0004894393981873486" pbc="T T T"
Si       5.71753578       5.23864834       7.28596597
Si       7.67614735       3.77004138       1.91447301
Si       1.29977057       2.21305974       0.55316664
Si      -0.65884100       3.68166669       5.92465960
Si       6.76218104       4.65400165       5.21031122
Si       6.52454514       2.40583369       4.35891062
Si       0.25512531       2.79770642       2.62882139
Si       0.49276121       5.04587439       3.48022198
Si       1.88311719       4.32787845       1.65586966
Si       1.14068455       2.96529827       4.73016967
Si       5.13418916       3.12382963       6.18326295
Si       5.87662180       4.48640981       3.10896294
Si       4.11566296       3.81887469       1.77597872
Si       2.90164339       3.63283339       6.06315388
14
Lattice="8.45204344764022 0.6312914096660719 2.2482304675550933 0.5083211043615042 7.670958155364276 -0.8012732715697541 -1.8677854322354452 -0.795654924058395 6.446024655102323" Properties=species:S:1:pos:R:3 unique_starting_index=20 config_type=initial n_minim_iter=9 stress="0.000808285068520716 0.0009640146230876247 0.0008233398330630716 0.0009640146230876247 0.00013940070326827912 -0.0005299107242006218 0.0008233398330630716 -0.0005299107242006218 9.079555122054844e-05" pbc="T T T"
Si       5.79345292       5.27847292       7.32407490
Si       7.71133356       3.82821899       1.95059905
Si       1.29912620       2.22812172       0.56890695
Si      -0.61875444       3.67837565       5.94238280
Si       6.81119987       4.68173602       5.22747603
Si       6.58755318       2.46645188       4.38191751
Si       0.28137925       2.82485862       2.66550582
Si       0.50502594       5.04014277       3.51106434
Si       1.90592596       4.32258341       1.68385120
Si       1.17676746       2.99300123       4.75444081
Si       5.18665316       3.18401124       6.20913065
Si       5.91581166       4.51359342       3.13854104
Si       4.15331807       3.83191139       1.80663311
Si       2.93926105       3.67468325       6.08634874
14
Lattice="8.42741813858691 0.6211592798665474 2.2402766399957184 0.48982742180619215 7.675351264554938 -0.7678269218844723 -1.8734898665503121 -0.758746206639282 6.460338633186576" Properties=species:S:1:pos:R:3 unique_starting_index=20 config_type=initial n_minim_iter=10 stress="-0.0001771502340616667 -5.6410549044855875e-05 3.487183069511074e-05 -5.6410549044855875e-05 -0.0002598671686594138 0.0004430600219561563 3.487183069511074e-05 0.0004430600219561563 -0.00014490266348350843" pbc="T T T"
Si       5.76486356       5.30067632       7.34943096
Si       7.67427875       3.82860093       1.97020400
Si       1.27889213       2.23708802       0.58335739
Si      -0.63052305       3.70916341       5.96258435
Si       6.76801317       4.69060722       5.24145294
Si       6.56837461       2.47313153       4.39077763
Si       0.27574252       2.84715712       2.69133541
Si       0.47538108       5.06463281       3.54201072
Si       1.87305813       4.33020881       1.70975532
Si       1.16143447       3.02541645       4.77823991
Si       5.17069756       3.20755552       6.22303303
Si       5.88232122       4.51234789       3.15454844
Si       4.13669180       3.83226082       1.81804657
Si       2.90706389       3.70550352       6.11474178
14
Lattice="8.406378646392627 0.6472931964820869 2.194893029292784 0.5235252911794327 7.6594222241100605 -0.7901470163023216 -1.916728641795224 -0.7772355830185764 6.503474487237217" Properties=species:S:1:pos:R:3 unique_starting_index=20 config_type=initial n_minim_iter=11 stress="-0.00013662770202498318 -0.0003558175455196064 -0.0009539375467226627 -0.0003558175455196064 -0.0004036323783912463 0.00030024505779241764 -0.0009539375467226627 0.00030024505779241764 -0.000418434338095153" pbc="T T T"
Si       5.74532327       5.28665206       7.31636389
Si       7.66362012       3.84900679       1.94125759
Si       1.26785202       2.24282778       0.59185661
Si      -0.65044482       3.68047304       5.96696292
Si       6.73036642       4.70144518       5.20792592
Si       6.54655929       2.47742808       4.36241934
Si       0.28280888       2.82803465       2.70029458
Si       0.46661601       5.05205176       3.54580116
Si       1.85514666       4.31967685       1.70689237
Si       1.14153771       3.02244382       4.78486839
Si       5.15802863       3.20980299       6.20132813
Si       5.87163759       4.50703602       3.12335211
Si       4.13630662       3.83310462       1.77550927
Si       2.87686868       3.69637522       6.13271123
14
Lattice="8.415524083943234 0.6433343971478577 2.2320259988837314 0.5105585024061079 7.701089052699698 -0.7794447859271278 -1.8880316861669761 -0.7718785408642262 6.498578137874198" Properties=species:S:1:pos:R:3 unique_starting_index=20 config_type=initial n_minim_iter=12 stress="-0.0004905050561687913 -0.0006249630196099919 0.0008625146708275092 -0.0006249630196099919 -0.0002017952540491879 -3.847666966332246e-05 0.0008625146708275092 -3.847666966332246e-05 -0.00036256926070334507" pbc="T T T"
Si       5.79287101       5.30586152       7.33111100
Si       7.66794977       3.87421547       1.98432955
Si       1.24517989       2.26668339       0.62004835
Si      -0.62989887       3.69832944       5.96682980
Si       6.74239379       4.71403238       5.23576768
Si       6.59173027       2.48202118       4.39938956
Si       0.29565711       2.85851252       2.71539167
Si       0.44632063       5.09052373       3.55176979
Si       1.85053636       4.33369661       1.72115942
Si       1.17830658       3.05073618       4.79198271
Si       5.18751454       3.23884830       6.22999993
Si       5.85974432       4.52180873       3.15917664
Si       4.11598085       3.85038409       1.79234205
Si       2.92207005       3.72216082       6.15881730
14
Lattice="8.422848962038701 0.6990505438076395 2.2045483135365282 0.5708731956746 7.693392213119706 -0.8057508418592038 -1.9212599737701903 -0.805339776208012 6.523426947885031" Properties=species:S:1:pos:R:3 unique_starting_index=20 config_type=initial n_minim_iter=13 stress="0.0005362717131927515 0.0008523514428059707 -0.00033224719504908884 0.0008523514428059707 0.0010985091114386987 -0.00046694866764544654 -0.00033224719504908884 -0.00046694866764544654 0.0008915209252726672" pbc="T T T"
Si       5.81419850       5.32092067       7.29766859
Si       7.70116176       3.92186367       1.94870518
Si       1.25826368       2.26618231       0.62455583
Si      -0.62869958       3.66523931       5.97351924
Si       6.77098062       4.74924344       5.20864224
Si       6.60219165       2.51024101       4.38107292
Si       0.30148157       2.83785954       2.71358218
Si       0.47027053       5.07686197       3.54115150
Si       1.87503629       4.33521951       1.70363049
Si       1.19215309       3.04526626       4.78872617
Si       5.19742589       3.25188347       6.21859393
Si       5.88030910       4.54183672       3.13349825
Si       4.13426352       3.87294010       1.75953340
Si       2.93819866       3.71416288       6.16269102
14
Lattice="8.42014326376484 0.7212659677842703 2.2248068997555692 0.5808921238183191 7.642183932037461 -0.7608223253784095 -1.9173133705997534 -0.7583438487080091 6.551414175532982" Properties=species:S:1:pos:R:3 unique_starting_index=20 config_type=initial n_minim_iter=14 stress="0.0005230940466751137 7.097553752104779e-05 -0.000647495931666194 7.097553752104779e-05 -0.0006146837521783417 0.00041279144488107244 -0.000647495931666194 0.00041279144488107244 0.00045478771748092424" pbc="T T T"
Si       5.84554673       5.35557679       7.33018898
Si       7.69232203       3.94519005       1.99460237
Si       1.23817529       2.24952926       0.68520977
Si      -0.60860001       3.65991600       6.02079638
Si       6.78890468       4.76783756       5.24637637
Si       6.63136664       2.52678575       4.43469603
Si       0.29481734       2.83726849       2.76902238
Si       0.45235537       5.07832030       3.58070272
Si       1.84848213       4.32617604       1.73478716
Si       1.23896200       3.09713852       4.83396851
Si       5.23523988       3.27893001       6.28061159
Si       5.84476002       4.50796753       3.18143024
Si       4.12466488       3.87501451       1.77383094
Si       2.95905714       3.73009154       6.24156781
14
Lattice="8.402117986181143 0.7242665152148644 2.272296672389198 0.5716712428127511 7.670130314479337 -0.7484600561704329 -1.8779744429377505 -0.7500431175221275 6.559760777374571" Properties=species:S:1:pos:R:3 unique_starting_index=20 config_type=initial n_minim_iter=15 stress="-0.0006397303442990549 -0.0003283484548003991 0.0006013095920319305 -0.0003283484548003991 -2.4870638117667668e-05 -0.0008195010906565195 0.0006013095920319305 -0.0008195010906565195 -0.0015820830214859191" pbc="T T T"
Si       5.88636776       5.39977437       7.34159476
Si       7.65870843       3.98936973       2.05153178
Si       1.20944702       2.24457934       0.74200264
Si      -0.56289364       3.65498398       6.03206561
Si       6.78785714       4.79002305       5.26252142
Si       6.66083214       2.53119968       4.49909129
Si       0.30795764       2.85433066       2.82107598
Si       0.43498265       5.11315404       3.58450611
Si       1.81278617       4.34767108       1.74439261
Si       1.29800392       3.16020900       4.85111563
Si       5.28302862       3.29668263       6.33920479
Si       5.79781087       4.48414471       3.23248177
Si       4.09507110       3.89595412       1.79587165
Si       3.00074369       3.74839959       6.28772574
14
Lattice="8.382846378964107 0.7462237199174215 2.345947719117998 0.564815454096005 7.6679828046219125 -0.6808662040136891 -1.8292294937570177 -0.6870033507378743 6.590684083518812" Properties=species:S:1:pos:R:3 unique_starting_index=20 config_type=initial n_minim_iter=16 stress="-0.00010257082512820617 5.109860883726483e-05 0.0007359688699894082 5.109860883726483e-05 0.001803224728673126 -9.247507027147853e-06 0.0007359688699894082 -9.247507027147853e-06 -0.0009153061889225465" pbc="T T T"
Si       5.93836057       5.50138367       7.42482094
Si       7.62461647       4.04899282       2.15597495
Si       1.18007177       2.22581950       0.83094466
Si      -0.50618413       3.67821036       6.09979065
Si       6.78221968       4.84524152       5.32758087
Si       6.69486113       2.56122010       4.62138225
Si       0.33621266       2.88196166       2.92818473
Si       0.42357121       5.16598307       3.63438335
Si       1.77475775       4.37187314       1.78808679
Si       1.37203941       3.27076313       4.90655368
Si       5.34367459       3.35533004       6.46767881
Si       5.74639293       4.45644004       3.34921192
Si       4.05095598       3.92168648       1.86740875
Si       3.06747635       3.80551669       6.38835685
14
Lattice="8.372064121390924 0.7519169439216168 2.3681307341005096 0.5701245762839839 7.588001519385987 -0.6703104358415103 -1.81954584246859 -0.6659186983841294 6.624691337778879" Properties=species:S:1:pos:R:3 unique_starting_index=20 config_type=initial n_minim_iter=17 stress="0.000527561295528741 0.00015989591110739272 -0.00012107073362684688 0.00015989591110739272 0.0010935648883711672 -0.0001451863096009215 -0.00012107073362684688 -0.0001451863096009215 -0.0002885350064944766" pbc="T T T"
Si       5.94570436       5.48752128       7.45647659
Si       7.61750761       4.02996676       2.18151298
Si       1.17693850       2.18647848       0.86603505
Si      -0.49486476       3.64403301       6.14099865
Si       6.77703919       4.82931222       5.35443691
Si       6.69154141       2.54359541       4.67162895
Si       0.34560367       2.84468755       2.96807473
Si       0.43110145       5.13040435       3.65088268
Si       1.76521280       4.33625561       1.79699238
Si       1.39495108       3.27711649       4.93084310
Si       5.35743005       3.33774416       6.52551926
Si       5.72769177       4.39688328       3.39166853
Si       4.03078937       3.89494269       1.88407038
Si       3.09185349       3.77905708       6.43844126
14
Lattice="8.353747556445885 0.7473007258987133 2.402645434899895 0.5627089717364075 7.495182873198539 -0.6492452486669934 -1.7979222194412154 -0.6314200541276774 6.657931042229882" Properties=species:S:1:pos:R:3 unique_starting_index=20 config_type=initial n_minim_iter=18 stress="0.00012880775169937244 -3.719829656776934e-05 -0.0003454729948546789 -3.719829656776934e-05 -0.0014018811475230133 0.00031807044082126176 -0.0003454729948546789 0.00031807044082126176 0.0004810854593491161" pbc="T T T"
Si       5.94608209       5.46760309       7.50982048
Si       7.59881341       3.99270634       2.22324429
Si       1.17245222       2.14346046       0.90151075
Si      -0.48027910       3.61835721       6.18808694
Si       6.76591409       4.80401569       5.40168604
Si       6.68115013       2.51698076       4.73722229
Si       0.35262022       2.80704786       3.00964519
Si       0.43738418       5.09408278       3.67410893
Si       1.75080776       4.29424984       1.81417328
Si       1.41597939       3.28319729       4.96416502
Si       5.36772655       3.31681370       6.59715795
Si       5.70255492       4.32786626       3.44716621
Si       4.00750398       3.85814730       1.91299822
Si       3.11103033       3.75291624       6.49833301
14
Lattice="8.350924156766675 0.7521063477910975 2.418974420048082 0.558125756286459 7.556163392284167 -0.6407599656502911 -1.782727817919958 -0.631927156574924 6.650241808956272" Properties=species:S:1:pos:R:3 unique_starting_index=20 config_type=initial n_minim_iter=19 stress="-0.0006609652048468869 -6.429164873686448e-05 0.00020439954021676004 -6.429164873686448e-05 0.0013448510088395905 -0.00022721792564926743 0.00020439954021676004 -0.00022721792564926743 0.00047434930847709196" pbc="T T T"
Si       5.97184502       5.50831391       7.51384241
Si       7.59012790       4.02954459       2.25117272
Si       1.15447708       2.16802868       0.91461385
Si      -0.46380581       3.64679800       6.17728355
Si       6.76642055       4.82975988       5.40485461
Si       6.70865842       2.52667336       4.76521126
Si       0.35990154       2.84658271       3.02360165
Si       0.41766368       5.14966922       3.66324501
Si       1.74052123       4.32362838       1.81703236
Si       1.44043152       3.33046304       4.96391331
Si       5.38580087       3.35271420       6.61142391
Si       5.68589057       4.34587955       3.46454295
Si       3.99829581       3.88471657       1.92652889
Si       3.12802629       3.79162602       6.50192738
14
Lattice="8.366283302151784 0.7588083822958164 2.4330062384839275 0.5666117586149867 7.502518109886002 -0.6364105157507586 -1.7743068046679265 -0.625744387885878 6.641738383111178" Properties=species:S:1:pos:R:3 unique_starting_index=20 config_type=initial n_minim_iter=20 stress="0.00045515223342357426 -0.00021577361223144262 0.0008476840052946727 -0.00021577361223144262 0.00040453114016644076 -0.0009938437430921344 0.0008476840052946727 -0.0009938437430921344 0.00027026599110630846" pbc="T T T"
Si       6.00436366       5.49059919       7.52522283
Si       7.60865227       3.99437926       2.28039072
Si       1.15422459       2.14498292       0.91311127
Si      -0.45006401       3.64120285       6.15794338
Si       6.79093302       4.80490921       5.41358868
Si       6.73534947       2.48582940       4.82020190
Si       0.36765524       2.83067289       3.02474543
Si       0.42323878       5.14975271       3.61813221
Si       1.74435517       4.29071903       1.80588624
Si       1.46807231       3.35466717       4.95013854
Si       5.41423308       3.34486307       6.63244787
Si       5.69051595       4.28091493       3.48819557
Si       4.01556434       3.85404661       1.93880716
Si       3.14302391       3.78153550       6.49952694
14
Lattice="8.35457767556672 0.7839668236506745 2.451442663468462 0.58064407391795 7.423886715665069 -0.5903241027779486 -1.7669591097074926 -0.577413108072554 6.657345669538007" Properties=species:S:1:pos:R:3 unique_starting_index=20 config_type=initial n_minim_iter=21 stress="0.0008740870948430826 -0.00022262671816563825 0.0005747541596996216 -0.00022262671816563825 0.0001590716799320933 -0.00036267570658115314 0.0005747541596996216 -0.00036267570658115314 0.00148183171814691" pbc="T T T"
Si       6.02435558       5.51605256       7.57422387
Si       7.60289812       3.97448720       2.34208024
Si       1.14390706       2.11438787       0.94424036
Si      -0.43463548       3.65595323       6.17638399
Si       6.78931070       4.80931282       5.45007036
Si       6.74699826       2.46494975       4.91794964
Si       0.37895194       2.82112761       3.06839387
Si       0.42126438       5.16549068       3.60051459
Si       1.73489277       4.25829539       1.81825307
Si       1.50318631       3.42689788       4.96376609
Si       5.43336987       3.37214505       6.70021116
Si       5.66507633       4.20354255       3.55469814
Si       4.00865605       3.82810489       1.96710437
Si       3.15960659       3.80233554       6.55135986
