18
Lattice="4.288623198673734 0.0 0.0 0.0 11.561523673135786 -1.102696726352328e-15 0.0 1.2929343705744658e-15 13.556121983472183" Properties=species:S:1:pos:R:3 unique_starting_index=55 config_type=initial n_minim_iter=1 energy=-2932.1852898812795 free_energy=-2932.1852898812795 pbc="T T T"
Si       1.15333414       8.92835938      10.05619889
Si       3.13528906       8.92835938       3.49992309
Si       3.13528906       8.92835938      10.05619889
Si       1.15333414       8.92835938       3.49992309
Si       3.14502074       9.39984188      12.55678640
Si       1.14360245       9.39984188       0.99933558
Si       1.14360245       9.39984188      12.55678640
Si       3.14502074       9.39984188       0.99933558
Si       3.30455826       8.76855362       5.48777983
Si       0.98406494       8.76855362       8.06834215
Si       0.98406494       8.76855362       5.48777983
Si       3.30455826       8.76855362       8.06834215
Si       1.14576000       4.55061198      12.55578778
Si       3.14286320       4.55061198       1.00033421
Si       3.14286320       4.55061198      12.55578778
Si       1.14576000       4.55061198       1.00033421
Si       2.14431160       2.91333051      11.97031834
Si       2.14431160       2.91333051       1.58580365
18
Lattice="4.286832222251572 0.0 0.0 0.0 11.55956927060783 -1.112544518250245e-15 0.0 1.2802877852282022e-15 13.543161421729657" Properties=species:S:1:pos:R:3 unique_starting_index=55 config_type=initial n_minim_iter=2 stress="0.002249326466118584 -1.728993094050879e-16 6.869445427940823e-17 -1.728993094050879e-16 0.002043955435232732 4.785244932208867e-16 6.869445427940823e-17 4.785244932208867e-16 -0.006714270736880404" pbc="T T T"
Si       1.15281970       8.92685718      10.04643929
Si       3.13401252       8.92685718       3.49672213
Si       3.13401252       8.92685718      10.04643929
Si       1.15281970       8.92685718       3.49672213
Si       3.14358328       9.39824616      12.54472102
Si       1.14324894       9.39824616       0.99844040
Si       1.14324894       9.39824616      12.54472102
Si       3.14358328       9.39824616       0.99844040
Si       3.30314966       8.76707847       5.48242170
Si       0.98368256       8.76707847       8.06073972
Si       0.98368256       8.76707847       5.48242170
Si       3.30314966       8.76707847       8.06073972
Si       1.14528006       4.54982226      12.54378356
Si       3.14155216       4.54982226       0.99937786
Si       3.14155216       4.54982226      12.54378356
Si       1.14528006       4.54982226       0.99937786
Si       2.14341611       2.91286405      11.95888277
Si       2.14341611       2.91286405       1.58427865
18
Lattice="4.284101353046934 0.0 0.0 0.0 11.554672525240042 -1.1158306459052123e-15 0.0 1.2760682815980046e-15 13.546900095347642" Properties=species:S:1:pos:R:3 unique_starting_index=55 config_type=initial n_minim_iter=3 stress="-0.006485544134804821 -1.2411754966630637e-16 6.167074581168703e-18 -1.2411754966630637e-16 0.0003845111190462969 -2.489801150538277e-16 6.167074581168703e-18 -2.489801150538277e-16 -0.0020628047897327914" pbc="T T T"
Si       1.15199718       8.92312633      10.04900097
Si       3.13210417       8.92312633       3.49789913
Si       3.13210417       8.92312633      10.04900097
Si       1.15199718       8.92312633       3.49789913
Si       3.14128940       9.39424314      12.54794470
Si       1.14281195       9.39424314       0.99895539
Si       1.14281195       9.39424314      12.54794470
Si       3.14128940       9.39424314       0.99895539
Si       3.30097195       8.76336438       5.48384342
Si       0.98312941       8.76336438       8.06305667
Si       0.98312941       8.76336438       5.48384342
Si       3.30097195       8.76336438       8.06305667
Si       1.14453309       4.54783600      12.54703835
Si       3.13956826       4.54783600       0.99986174
Si       3.13956826       4.54783600      12.54703835
Si       1.14453309       4.54783600       0.99986174
Si       2.14205068       2.91169085      11.96220233
Si       2.14205068       2.91169085       1.58469776
18
Lattice="4.286957778034349 0.0 0.0 0.0 11.544727106170967 -1.1157184374769968e-15 0.0 1.2753178490678506e-15 13.54946944099806" Properties=species:S:1:pos:R:3 unique_starting_index=55 config_type=initial n_minim_iter=4 stress="-0.003936820022887728 -2.270550066669828e-16 1.0736557212671985e-16 -2.270550066669828e-16 -0.0014591388189669776 -7.109761431020548e-17 1.0736557212671985e-16 -7.109761431020548e-17 0.0026007646750940364" pbc="T T T"
Si       1.15247528       8.91561077      10.05019708
Si       3.13448250       8.91561077       3.49927236
Si       3.13448250       8.91561077      10.05019708
Si       1.15247528       8.91561077       3.49927236
Si       3.14303846       9.38608835      12.54954392
Si       1.14391932       9.38608835       0.99992552
Si       1.14391932       9.38608835      12.54954392
Si       3.14303846       9.38608835       0.99992552
Si       3.30292995       8.75582147       5.48456825
Si       0.98402782       8.75582147       8.06490119
Si       0.98402782       8.75582147       5.48456825
Si       3.30292995       8.75582147       8.06490119
Si       1.14519767       4.54378676      12.54895329
Si       3.14176011       4.54378676       1.00051615
Si       3.14176011       4.54378676      12.54895329
Si       1.14519767       4.54378676       1.00051615
Si       2.14347889       2.90926255      11.96448521
Si       2.14347889       2.90926255       1.58498423
18
Lattice="4.291867965704918 0.0 0.0 0.0 11.550355578684135 -1.116321397269244e-15 0.0 1.2750688034289455e-15 13.54777760416182" Properties=species:S:1:pos:R:3 unique_starting_index=55 config_type=initial n_minim_iter=5 stress="0.0007619735044490353 -9.561663176017565e-17 4.132762732083879e-20 -9.561663176017565e-17 0.0015427302285541042 3.9905956941001936e-16 4.132762732083879e-20 3.9905956941001936e-16 0.003108517368224998" pbc="T T T"
Si       1.15308762       8.92058345      10.04834870
Si       3.13878035       8.92058345       3.49942890
Si       3.13878035       8.92058345      10.04834870
Si       1.15308762       8.92058345       3.49942890
Si       3.14528475       9.39046107      12.54774884
Si       1.14658321       9.39046107       1.00002876
Si       1.14658321       9.39046107      12.54774884
Si       3.14528475       9.39046107       1.00002876
Si       3.30613788       8.75996836       5.48450386
Si       0.98573008       8.75996836       8.06327374
Si       0.98573008       8.75996836       5.48450386
Si       3.30613788       8.75996836       8.06327374
Si       1.14600008       4.54593864      12.54714086
Si       3.14586788       4.54593864       1.00063674
Si       3.14586788       4.54593864      12.54714086
Si       1.14600008       4.54593864       1.00063674
Si       2.14593398       2.91020612      11.96276111
Si       2.14593398       2.91020612       1.58501649
18
Lattice="4.295542486136323 0.0 0.0 0.0 11.538620460634169 -1.1151964981802745e-15 0.0 1.2747044279066323e-15 13.543752601487963" Properties=species:S:1:pos:R:3 unique_starting_index=55 config_type=initial n_minim_iter=6 stress="0.004874644962450726 8.038700390021073e-16 1.2056655138834987e-16 8.038700390021073e-16 -0.0006051891359767287 3.0448636010344837e-16 1.2056655138834987e-16 3.0448636010344837e-16 0.0007863497984763926" pbc="T T T"
Si       1.15323409       8.91236901      10.04497287
Si       3.14230839       8.91236901       3.49877973
Si       3.14230839       8.91236901      10.04497287
Si       1.15323409       8.91236901       3.49877973
Si       3.14729978       9.38064549      12.54397354
Si       1.14824270       9.38064549       0.99977906
Si       1.14824270       9.38064549      12.54397354
Si       3.14729978       9.38064549       0.99977906
Si       3.30829036       8.75088190       5.48404984
Si       0.98725213       8.75088190       8.05970276
Si       0.98725213       8.75088190       5.48404984
Si       3.30829036       8.75088190       8.05970276
Si       1.14737716       4.54102593      12.54331913
Si       3.14816532       4.54102593       1.00043347
Si       3.14816532       4.54102593      12.54331913
Si       1.14737716       4.54102593       1.00043347
Si       2.14777124       2.90706235      11.95906595
Si       2.14777124       2.90706235       1.58468665
18
Lattice="4.302435221132858 0.0 0.0 0.0 11.537356864943389 -1.1156138167013749e-15 0.0 1.2730645598124394e-15 13.5332727856797" Properties=species:S:1:pos:R:3 unique_starting_index=55 config_type=initial n_minim_iter=7 stress="-0.0014018794079516676 1.5656073839722189e-15 -1.3332933154965923e-16 1.5656073839722189e-15 -0.00024315816369546093 -4.539684011161701e-17 -1.3332933154965923e-16 -4.539684011161701e-17 0.003769099732823495" pbc="T T T"
Si       1.15197232       8.91458118      10.03532776
Si       3.15046290       8.91458118       3.49794503
Si       3.15046290       8.91458118      10.03532776
Si       1.15197232       8.91458118       3.49794503
Si       3.15068481       9.37859014      12.53312884
Si       1.15175042       9.37859014       1.00014395
Si       1.15175042       9.37859014      12.53312884
Si       3.15068481       9.37859014       1.00014395
Si       3.31109555       8.74925604       5.48380289
Si       0.99133968       8.74925604       8.04946990
Si       0.99133968       8.74925604       5.48380289
Si       3.31109555       8.74925604       8.04946990
Si       1.15181447       4.53980273      12.53351006
Si       3.15062075       4.53980273       0.99976273
Si       3.15062075       4.53980273      12.53351006
Si       1.15181447       4.53980273       0.99976273
Si       2.15121761       2.90521075      11.94895416
Si       2.15121761       2.90521075       1.58431863
18
Lattice="4.303497219983361 0.0 0.0 0.0 11.539353126905542 -1.1163557162603815e-15 0.0 1.2720780249080929e-15 13.529737000116612" Properties=species:S:1:pos:R:3 unique_starting_index=55 config_type=initial n_minim_iter=8 stress="0.0038592209370724834 2.278838998808299e-15 4.7630725937676177e-17 2.278838998808299e-15 8.070932423230088e-05 2.6959383328163057e-15 4.7630725937676177e-17 2.6959383328163057e-15 0.00012703297072430615" pbc="T T T"
Si       1.15174023       8.91683416      10.03222575
Si       3.15175699       8.91683416       3.49751125
Si       3.15175699       8.91683416      10.03222575
Si       1.15174023       8.91683416       3.49751125
Si       3.15132411       9.37998284      12.52994210
Si       1.15217311       9.37998284       0.99979490
Si       1.15217311       9.37998284      12.52994210
Si       3.15132411       9.37998284       0.99979490
Si       3.31151241       8.75063461       5.48311312
Si       0.99198481       8.75063461       8.04662388
Si       0.99198481       8.75063461       5.48311312
Si       3.31151241       8.75063461       8.04662388
Si       1.15253437       4.54042595      12.52965062
Si       3.15096285       4.54042595       1.00008638
Si       3.15096285       4.54042595      12.52965062
Si       1.15253437       4.54042595       1.00008638
Si       2.15174861       2.90534758      11.94562067
Si       2.15174861       2.90534758       1.58411633
18
Lattice="4.302137646201939 0.0 0.0 0.0 11.542961505497892 -1.1171779988749206e-15 0.0 1.2704831037784802e-15 13.519088424595108" Properties=species:S:1:pos:R:3 unique_starting_index=55 config_type=initial n_minim_iter=9 stress="0.00044741130732185654 1.7436691960759577e-15 -7.561622400604439e-17 1.7436691960759577e-15 0.0006283702342662297 1.2522774331017411e-15 -7.561622400604439e-17 1.2522774331017411e-15 -0.005715461046115331" pbc="T T T"
Si       1.15219941       8.92204485      10.02277471
Si       3.14993824       8.92204485       3.49631371
Si       3.14993824       8.92204485      10.02277471
Si       1.15219941       8.92204485       3.49631371
Si       3.15094013       9.38213375      12.51996292
Si       1.15119751       9.38213375       0.99912550
Si       1.15119751       9.38213375      12.51996292
Si       3.15094013       9.38213375       0.99912550
Si       3.30941360       8.75291949       5.48121639
Si       0.99272405       8.75291949       8.03787203
Si       0.99272405       8.75291949       5.48121639
Si       3.30941360       8.75291949       8.03787203
Si       1.15220030       4.54125546      12.51827967
Si       3.14993734       4.54125546       1.00080875
Si       3.14993734       4.54125546      12.51827967
Si       1.15220030       4.54125546       1.00080875
Si       2.15106882       2.90505929      11.93550431
Si       2.15106882       2.90505929       1.58358411
18
Lattice="4.301615284008342 0.0 0.0 0.0 11.53226148204244 -1.1170581748211291e-15 0.0 1.2667248446343524e-15 13.490973132910542" Properties=species:S:1:pos:R:3 unique_starting_index=55 config_type=initial n_minim_iter=10 stress="0.0024098649251938246 1.9312011693898955e-15 6.681230483535907e-17 1.9312011693898955e-15 0.00029895667649073524 2.0255201540403087e-15 6.681230483535907e-17 2.0255201540403087e-15 0.004051676964474052" pbc="T T T"
Si       1.15159980       8.92395076       9.99682425
Si       3.15001549       8.92395076       3.49414889
Si       3.15001549       8.92395076       9.99682425
Si       1.15159980       8.92395076       3.49414889
Si       3.15074885       9.37020532      12.49056439
Si       1.15086643       9.37020532       1.00040874
Si       1.15086643       9.37020532      12.49056439
Si       3.15074885       9.37020532       1.00040874
Si       3.30847835       8.74300284       5.47887328
Si       0.99313693       8.74300284       8.01209986
Si       0.99313693       8.74300284       5.47887328
Si       3.30847835       8.74300284       8.01209986
Si       1.15091591       4.53395168      12.49071282
Si       3.15069937       4.53395168       1.00026031
Si       3.15069937       4.53395168      12.49071282
Si       1.15091591       4.53395168       1.00026031
Si       2.15080764       2.89827056      11.90785235
Si       2.15080764       2.89827056       1.58312079
18
Lattice="4.3081009441510565 0.0 0.0 0.0 11.522878857981095 -1.1157818512736394e-15 0.0 1.2687819954182049e-15 13.507471186032273" Properties=species:S:1:pos:R:3 unique_starting_index=55 config_type=initial n_minim_iter=11 stress="-0.0016046375013361923 2.3372687597963225e-15 2.2973242923704223e-17 2.3372687597963225e-15 -0.0005260488322301124 8.509827290936455e-16 2.2973242923704223e-17 8.509827290936455e-16 0.0007141855380049696" pbc="T T T"
Si       1.15513603       8.92352770      10.00366549
Si       3.15296491       8.92352770       3.50380570
Si       3.15296491       8.92352770      10.00366549
Si       1.15513603       8.92352770       3.50380570
Si       3.15361837       9.36061591      12.50740064
Si       1.15448258       9.36061591       1.00007054
Si       1.15448258       9.36061591      12.50740064
Si       3.15361837       9.36061591       1.00007054
Si       3.31593168       8.73496626       5.48717843
Si       0.99216926       8.73496626       8.02029276
Si       0.99216926       8.73496626       5.48717843
Si       3.31593168       8.73496626       8.02029276
Si       1.15458896       4.52738513      12.50743459
Si       3.15351199       4.52738513       1.00003660
Si       3.15351199       4.52738513      12.50743459
Si       1.15458896       4.52738513       1.00003660
Si       2.15405047       2.89377139      11.92051261
Si       2.15405047       2.89377139       1.58695858
18
Lattice="4.3089629491359025 0.0 0.0 0.0 11.518606299563462 -1.1152089239447585e-15 0.0 1.2696104464829611e-15 13.513963833945198" Properties=species:S:1:pos:R:3 unique_starting_index=55 config_type=initial n_minim_iter=12 stress="-0.0007063106507276278 2.79182765471595e-15 7.216743544305106e-17 2.79182765471595e-15 -0.00019478556807261453 4.1876975153880544e-17 7.216743544305106e-17 4.1876975153880544e-17 0.0004998808198719593" pbc="T T T"
Si       1.15573907       8.92868112      10.00459968
Si       3.15322388       8.92868112       3.50936415
Si       3.15322388       8.92868112      10.00459968
Si       1.15573907       8.92868112       3.50936415
Si       3.15408612       9.35461943      12.51404603
Si       1.15487683       9.35461943       0.99991781
Si       1.15487683       9.35461943      12.51404603
Si       3.15408612       9.35461943       0.99991781
Si       3.31975166       8.73101424       5.49142716
Si       0.98921129       8.73101424       8.02253668
Si       0.98921129       8.73101424       5.49142716
Si       3.31975166       8.73101424       8.02253668
Si       1.15501690       4.52208625      12.51375065
Si       3.15394605       4.52208625       1.00021319
Si       3.15394605       4.52208625      12.51375065
Si       1.15501690       4.52208625       1.00021319
Si       2.15448147       2.88949212      11.92364960
Si       2.15448147       2.88949212       1.59031424
18
Lattice="4.308218118763595 0.0 0.0 0.0 11.513032429780427 -1.1146419313154979e-15 0.0 1.2697706691119436e-15 13.515102602948359" Properties=species:S:1:pos:R:3 unique_starting_index=55 config_type=initial n_minim_iter=13 stress="-6.766587468832566e-05 3.0632263368101243e-15 -3.622859848660915e-17 3.0632263368101243e-15 3.4853283917375e-06 9.422126873834526e-16 -3.622859848660915e-17 9.422126873834526e-16 -6.440277258918444e-05" pbc="T T T"
Si       1.15548043       8.93379697      10.00312460
Si       3.15273769       8.93379697       3.51197800
Si       3.15273769       8.93379697      10.00312460
Si       1.15548043       8.93379697       3.51197800
Si       3.15377877       9.34727327      12.51526375
Si       1.15443935       9.34727327       0.99983885
Si       1.15443935       9.34727327      12.51526375
Si       3.15377877       9.34727327       0.99983885
Si       3.32107777       8.72666684       5.49282326
Si       0.98714035       8.72666684       8.02227935
Si       0.98714035       8.72666684       5.49282326
Si       3.32107777       8.72666684       8.02227935
Si       1.15460152       4.51550085      12.51473491
Si       3.15361660       4.51550085       1.00036769
Si       3.15361660       4.51550085      12.51473491
Si       1.15460152       4.51550085       1.00036769
Si       2.15410906       2.88389909      11.92148784
Si       2.15410906       2.88389909       1.59361476
18
Lattice="4.30699949709114 0.0 0.0 0.0 11.503405678389534 -1.1137123201668229e-15 0.0 1.2697158370562886e-15 13.51424318774306" Properties=species:S:1:pos:R:3 unique_starting_index=55 config_type=initial n_minim_iter=14 stress="0.0012319854679424737 2.867747754347888e-15 1.3057733647770466e-17 2.867747754347888e-15 0.00047344180903894685 1.0679153467741674e-15 1.3057733647770466e-17 1.0679153467741674e-15 -0.00034197312907852947" pbc="T T T"
Si       1.15500499       8.94694800      10.00177665
Si       3.15199450       8.94694800       3.51246654
Si       3.15199450       8.94694800      10.00177665
Si       1.15500499       8.94694800       3.51246654
Si       3.15326178       9.33342573      12.51443661
Si       1.15373772       9.33342573       0.99980658
Si       1.15373772       9.33342573      12.51443661
Si       3.15326178       9.33342573       0.99980658
Si       3.32085887       8.72139042       5.49115119
Si       0.98614063       8.72139042       8.02309199
Si       0.98614063       8.72139042       5.49115119
Si       3.32085887       8.72139042       8.02309199
Si       1.15383845       4.50029450      12.51366248
Si       3.15316104       4.50029450       1.00058071
Si       3.15316104       4.50029450      12.51366248
Si       1.15383845       4.50029450       1.00058071
Si       2.15349975       2.87112921      11.91318287
Si       2.15349975       2.87112921       1.60106032
18
Lattice="4.309370389124524 0.0 0.0 0.0 11.494109036534521 -1.112864463210488e-15 0.0 1.2693201516961857e-15 13.510474267927458" Properties=species:S:1:pos:R:3 unique_starting_index=55 config_type=initial n_minim_iter=15 stress="-0.0008729740521781563 2.380506093085938e-15 -2.6046546691633185e-17 2.380506093085938e-15 -0.00025194369488923293 2.4093677820653013e-15 -2.6046546691633185e-17 2.4093677820653013e-15 -0.0022271068749407817" pbc="T T T"
Si       1.15606846       8.94211153      10.00653387
Si       3.15330193       8.94211153       3.50394040
Si       3.15330193       8.94211153      10.00653387
Si       1.15606846       8.94211153       3.50394040
Si       3.15436199       9.32537908      12.51062524
Si       1.15500840       9.32537908       0.99984903
Si       1.15500840       9.32537908      12.51062524
Si       3.15436199       9.32537908       0.99984903
Si       3.31757301       8.72035111       5.48329555
Si       0.99179738       8.72035111       8.02717872
Si       0.99179738       8.72035111       5.48329555
Si       3.31757301       8.72035111       8.02717872
Si       1.15523269       4.49145599      12.51012825
Si       3.15413770       4.49145599       1.00034601
Si       3.15413770       4.49145599      12.51012825
Si       1.15523269       4.49145599       1.00034601
Si       2.15468519       2.86341307      11.90722473
Si       2.15468519       2.86341307       1.60324954
18
Lattice="4.315667405426593 0.0 0.0 0.0 11.500402143167019 -1.1135951762676954e-15 0.0 1.2684482660439681e-15 13.50313893599465" Properties=species:S:1:pos:R:3 unique_starting_index=55 config_type=initial n_minim_iter=16 stress="0.002113042550691283 2.7530213988732097e-15 -2.236393738037192e-16 2.7530213988732097e-15 0.0005316744109932076 4.811186980398494e-15 -2.236393738037192e-16 4.811186980398494e-15 0.004962731542512756" pbc="T T T"
Si       1.15907358       8.95133792      10.00238037
Si       3.15659382       8.95133792       3.50075857
Si       3.15659382       8.95133792      10.00238037
Si       1.15907358       8.95133792       3.50075857
Si       3.15737722       9.32920464      12.50315480
Si       1.15829019       9.32920464       0.99998413
Si       1.15829019       9.32920464      12.50315480
Si       3.15737722       9.32920464       0.99998413
Si       3.32329807       8.73233970       5.48101767
Si       0.99236934       8.73233970       8.02212127
Si       0.99236934       8.73233970       5.48101767
Si       3.32329807       8.73233970       8.02212127
Si       1.15784555       4.48631985      12.50297826
Si       3.15782185       4.48631985       1.00016067
Si       3.15782185       4.48631985      12.50297826
Si       1.15784555       4.48631985       1.00016067
Si       2.15783370       2.85964230      11.89783596
Si       2.15783370       2.85964230       1.60530298
18
Lattice="4.325467629414722 0.0 0.0 0.0 11.462241451579139 -1.1105633318278552e-15 0.0 1.2655192144324791e-15 13.47961435099788" Properties=species:S:1:pos:R:3 unique_starting_index=55 config_type=initial n_minim_iter=17 stress="-0.0015364750634092278 2.0543787407589665e-15 1.349335242789319e-16 2.0543787407589665e-15 -0.00041071214953923883 4.105318213287909e-15 1.349335242789319e-16 4.105318213287909e-15 0.0041256274663066545" pbc="T T T"
Si       1.16393397       8.93058360       9.98775957
Si       3.16153366       8.93058360       3.49185479
Si       3.16153366       8.93058360       9.98775957
Si       1.16393397       8.93058360       3.49185479
Si       3.16250841       9.29415427      12.47995166
Si       1.16295922       9.29415427       0.99966269
Si       1.16295922       9.29415427      12.47995166
Si       3.16250841       9.29415427       0.99966269
Si       3.33510817       8.72867616       5.47345374
Si       0.99035946       8.72867616       8.00616061
Si       0.99035946       8.72867616       5.47345374
Si       3.33510817       8.72867616       8.00616061
Si       1.16347437       4.45243468      12.47910696
Si       3.16199326       4.45243468       1.00050739
Si       3.16199326       4.45243468      12.47910696
Si       1.16347437       4.45243468       1.00050739
Si       2.16273381       2.82781860      11.86664473
Si       2.16273381       2.82781860       1.61296962
18
Lattice="4.331012360481704 0.0 0.0 0.0 11.46490939088243 -1.1110496789813262e-15 0.0 1.2640811496786544e-15 13.467593323578683" Properties=species:S:1:pos:R:3 unique_starting_index=55 config_type=initial n_minim_iter=18 stress="-0.0001245755336177029 2.6647078277360255e-15 6.462325176596557e-17 2.6647078277360255e-15 0.0006135417907217705 1.9075273140089988e-15 6.462325176596557e-17 1.9075273140089988e-15 -0.0007925095769607207" pbc="T T T"
Si       1.16650146       8.93843061       9.97855818
Si       3.16451090       8.93843061       3.48903514
Si       3.16451090       8.93843061       9.97855818
Si       1.16650146       8.93843061       3.48903514
Si       3.16514812       9.29192287      12.46769479
Si       1.16586424       9.29192287       0.99989854
Si       1.16586424       9.29192287      12.46769479
Si       3.16514812       9.29192287       0.99989854
Si       3.33980004       8.75114980       5.47083146
Si       0.99121232       8.75114980       7.99676186
Si       0.99121232       8.75114980       5.47083146
Si       3.33980004       8.75114980       7.99676186
Si       1.16581621       4.43795159      12.46706285
Si       3.16519615       4.43795159       1.00053048
Si       3.16519615       4.43795159      12.46706285
Si       1.16581621       4.43795159       1.00053048
Si       2.16550618       2.81588448      11.84923500
Si       2.16550618       2.81588448       1.61835833
18
Lattice="4.327003632990821 0.0 0.0 0.0 11.434247579820894 -1.1074421397205483e-15 0.0 1.2666019820190058e-15 13.484909521229712" Properties=species:S:1:pos:R:3 unique_starting_index=55 config_type=initial n_minim_iter=19 stress="0.0017156419621055792 2.231423557356708e-15 -5.907390695877713e-17 2.231423557356708e-15 -0.0007769204318920121 1.8919042723692308e-15 -5.907390695877713e-17 1.8919042723692308e-15 -0.0014125186306141928" pbc="T T T"
Si       1.16415646       8.91109529       9.98741081
Si       3.16284718       8.91109529       3.49749871
Si       3.16284718       8.91109529       9.98741081
Si       1.16415646       8.91109529       3.49749871
Si       3.16311838       9.26144546      12.48494566
Si       1.16388525       9.26144546       0.99996386
Si       1.16388525       9.26144546      12.48494566
Si       3.16311838       9.26144546       0.99996386
Si       3.33539995       8.74486482       5.48113168
Si       0.99160368       8.74486482       8.00377784
Si       0.99160368       8.74486482       5.48113168
Si       3.33539995       8.74486482       8.00377784
Si       1.16352507       4.42146256      12.48460331
Si       3.16347857       4.42146256       1.00030621
Si       3.16347857       4.42146256      12.48460331
Si       1.16352507       4.42146256       1.00030621
Si       2.16350182       2.80147043      11.86087477
Si       2.16350182       2.80147043       1.62403475
18
Lattice="4.318556731160903 0.0 0.0 0.0 11.444449655326679 -1.107334741279591e-15 0.0 1.2703663245876335e-15 13.510908142070772" Properties=species:S:1:pos:R:3 unique_starting_index=55 config_type=initial n_minim_iter=20 stress="0.0005047819415635568 2.3638669018865905e-15 1.7000256068499156e-17 2.3638669018865905e-15 -0.00028876652996818536 1.7256299044983152e-15 1.7000256068499156e-17 1.7256299044983152e-15 -0.003136199374410157" pbc="T T T"
Si       1.15985810       8.92379531      10.00473056
Si       3.15869863       8.92379531       3.50617758
Si       3.15869863       8.92379531      10.00473056
Si       1.15985810       8.92379531       3.50617758
Si       3.15910815       9.25898895      12.51123370
Si       1.15944859       9.25898895       0.99967444
Si       1.15944859       9.25898895      12.51123370
Si       3.15910815       9.25898895       0.99967444
Si       3.32796429       8.77464148       5.49147714
Si       0.99059244       8.77464148       8.01943100
Si       0.99059244       8.77464148       5.49147714
Si       3.32796429       8.77464148       8.01943100
Si       1.15984522       4.41303047      12.51051095
Si       3.15871151       4.41303047       1.00039719
Si       3.15871151       4.41303047      12.51051095
Si       1.15984522       4.41303047       1.00039719
Si       2.15927837       2.79671734      11.87825017
Si       2.15927837       2.79671734       1.63265797
18
Lattice="4.316778953232259 0.0 0.0 0.0 11.440878735098536 -1.1062794950356573e-15 0.0 1.2727045663373014e-15 13.526384564971888" Properties=species:S:1:pos:R:3 unique_starting_index=55 config_type=initial n_minim_iter=21 stress="-6.773596462861402e-05 2.30516963735201e-15 -2.7754012362096267e-17 2.30516963735201e-15 0.0009321740774416822 1.794745616774659e-15 -2.7754012362096267e-17 1.794745616774659e-15 0.0008233297559498464" pbc="T T T"
Si       1.15927287       8.92713852      10.01805026
Si       3.15750609       8.92713852       3.50833431
Si       3.15750609       8.92713852      10.01805026
Si       1.15927287       8.92713852       3.50833431
Si       3.15796482       9.24551460      12.52646006
Si       1.15881413       9.24551460       0.99992451
Si       1.15881413       9.24551460      12.52646006
Si       3.15796482       9.24551460       0.99992451
Si       3.32642050       8.78381780       5.49455006
Si       0.99035846       8.78381780       8.03183451
Si       0.99035846       8.78381780       5.49455006
Si       3.32642050       8.78381780       8.03183451
Si       1.15870786       4.40667756      12.52591448
Si       3.15807110       4.40667756       1.00047009
Si       3.15807110       4.40667756      12.52591448
Si       1.15870786       4.40667756       1.00047009
Si       2.15838948       2.79088362      11.88954758
Si       2.15838948       2.79088362       1.63683699
