18
Lattice="4.288020419291985 0.0 0.0 0.0 12.607028953512241 -2.9830493201218423e-15 0.0 2.811346249740919e-15 11.8813736433242" Properties=species:S:1:pos:R:3 unique_starting_index=55 config_type=initial n_minim_iter=1 energy=-2920.5393275268652 free_energy=-2920.5393275268652 pbc="T T T"
Si       1.14169031       9.09302904       9.78035594
Si       3.14633011       9.09302904       2.10101771
Si       3.14633011       9.09302904       9.78035594
Si       1.14169031       9.09302904       2.10101771
Si       3.14730911      11.48865010      10.67683606
Si       1.14071131      11.48865010       1.20453758
Si       1.14071131      11.48865010      10.67683606
Si       3.14730911      11.48865010       1.20453758
Si       3.29142428       7.86826915       4.95471259
Si       0.99659614       7.86826915       6.92666105
Si       0.99659614       7.86826915       4.95471259
Si       3.29142428       7.86826915       6.92666105
Si       1.14336487       5.62984728      10.88330750
Si       3.14465555       5.62984728       0.99806615
Si       3.14465555       5.62984728      10.88330750
Si       1.14336487       5.62984728       0.99806615
Si       2.14401021       4.03564943      10.19632993
Si       2.14401021       4.03564943       1.68504372
18
Lattice="4.3036461093704155 0.0 0.0 0.0 12.704418617988326 -3.00470128939119e-15 0.0 2.76008558458689e-15 11.659189713515245" Properties=species:S:1:pos:R:3 unique_starting_index=55 config_type=initial n_minim_iter=2 stress="0.06455146757591863 9.339375101153432e-18 -1.739431399958413e-17 9.339375101153432e-18 0.0009743240248893148 1.8147559637113055e-16 -1.739431399958413e-17 1.8147559637113055e-16 0.05141022316487477" pbc="T T T"
Si       1.14816305       9.17314830       9.57729233
Si       3.15548306       9.17314830       2.08189738
Si       3.15548306       9.17314830       9.57729233
Si       1.14816305       9.17314830       2.08189738
Si       3.15684820      11.56675335      10.47031787
Si       1.14679790      11.56675335       1.18887184
Si       1.14679790      11.56675335      10.47031787
Si       3.15684820      11.56675335       1.18887184
Si       3.28852179       7.93992126       4.82717944
Si       1.01512432       7.93992126       6.83201028
Si       1.01512432       7.93992126       4.82717944
Si       3.28852179       7.93992126       6.83201028
Si       1.15025501       5.66790830      10.65385210
Si       3.15339110       5.66790830       1.00533762
Si       3.15339110       5.66790830      10.65385210
Si       1.15025501       5.66790830       1.00533762
Si       2.15182305       4.05748848      10.00861262
Si       2.15182305       4.05748848       1.65057709
18
Lattice="4.279278532321542 0.0 0.0 0.0 12.748999939793654 -3.0577853708238875e-15 0.0 2.6801448600916192e-15 11.488485109041891" Properties=species:S:1:pos:R:3 unique_starting_index=55 config_type=initial n_minim_iter=3 stress="-0.007979587001139344 -4.582776678406052e-16 1.2177930538100393e-17 -4.582776678406052e-16 -0.01322633951287233 1.3348783205109026e-15 1.2177930538100393e-17 1.3348783205109026e-15 0.03371904966799966" pbc="T T T"
Si       1.14286588       9.21009409       9.42747053
Si       3.13641265       9.21009409       2.06101458
Si       3.13641265       9.21009409       9.42747053
Si       1.14286588       9.21009409       2.06101458
Si       3.13789583      11.60218645      10.31373410
Si       1.14138270      11.60218645       1.17475100
Si       1.14138270      11.60218645      10.31373410
Si       3.13789583      11.60218645       1.17475100
Si       3.26423926       7.97308969       4.74057730
Si       1.01503927       7.97308969       6.74790781
Si       1.01503927       7.97308969       4.74057730
Si       3.26423926       7.97308969       6.74790781
Si       1.14523205       5.68516575      10.48640547
Si       3.13404648       5.68516575       1.00207964
Si       3.13404648       5.68516575      10.48640547
Si       1.14523205       5.68516575       1.00207964
Si       2.13963927       4.06717770       9.86345807
Si       2.13963927       4.06717770       1.62502704
18
Lattice="4.2872259183430925 0.0 0.0 0.0 12.805975559726695 -3.160566138867465e-15 0.0 2.5658779380188186e-15 11.354867944685326" Properties=species:S:1:pos:R:3 unique_starting_index=55 config_type=initial n_minim_iter=4 stress="0.0022290700521618925 -8.787285816129151e-16 -8.66406991940787e-17 -8.787285816129151e-16 -0.0011970302117586885 6.183278676296839e-16 -8.66406991940787e-17 6.183278676296839e-16 -0.026784303274448355" pbc="T T T"
Si       1.14475912       9.25375839       9.31279756
Si       3.14246680       9.25375839       2.04207039
Si       3.14246680       9.25375839       9.31279756
Si       1.14475912       9.25375839       2.04207039
Si       3.14417327      11.65130129      10.19196163
Si       1.14305265      11.65130129       1.16290632
Si       1.14305265      11.65130129      10.19196163
Si       3.14417327      11.65130129       1.16290632
Si       3.26923755       8.01164436       4.67824568
Si       1.01798837       8.01164436       6.67662226
Si       1.01798837       8.01164436       4.67824568
Si       3.26923755       8.01164436       6.67662226
Si       1.14720974       5.70948302      10.35908397
Si       3.14001618       5.70948302       0.99578398
Si       3.14001618       5.70948302      10.35908397
Si       1.14720974       5.70948302       0.99578398
Si       2.14361296       4.08215137       9.74918669
Si       2.14361296       4.08215137       1.60568125
18
Lattice="4.273978059606555 0.0 0.0 0.0 13.071061192214943 -3.2729853840700785e-15 0.0 2.456070385549514e-15 11.11612704307054" Properties=species:S:1:pos:R:3 unique_starting_index=55 config_type=initial n_minim_iter=5 stress="-0.0022399455984139015 -1.411227269804865e-17 1.1173612587528622e-18 -1.411227269804865e-17 0.028904472072142195 8.652845587782164e-17 1.1173612587528622e-18 8.652845587782164e-17 0.012519983812204849" pbc="T T T"
Si       1.13512010       9.45688731       9.09457458
Si       3.13885796       9.45688731       2.02155247
Si       3.13885796       9.45688731       9.09457458
Si       1.13512010       9.45688731       2.02155247
Si       3.13961979      11.87957984       9.96834642
Si       1.13435827      11.87957984       1.14778063
Si       1.13435827      11.87957984       9.96834642
Si       3.13961979      11.87957984       1.14778063
Si       3.27149202       8.19219370       4.54687037
Si       1.00248604       8.19219370       6.56925668
Si       1.00248604       8.19219370       4.54687037
Si       3.27149202       8.19219370       6.56925668
Si       1.13909562       5.82223274      10.11733365
Si       3.13488244       5.82223274       0.99879339
Si       3.13488244       5.82223274      10.11733365
Si       1.13909562       5.82223274       0.99879339
Si       2.13698903       4.15077410       9.54578335
Si       2.13698903       4.15077410       1.57034370
18
Lattice="4.283056713820694 0.0 0.0 0.0 12.948234180889996 -3.3937106656647056e-15 0.0 2.29292449644865e-15 11.022871692822276" Properties=species:S:1:pos:R:3 unique_starting_index=55 config_type=initial n_minim_iter=6 stress="0.016160347995412504 -2.1084336889072103e-16 3.5641893852859434e-17 -2.1084336889072103e-16 0.016981923130783016 1.9105871252590126e-16 3.5641893852859434e-17 1.9105871252590126e-16 0.012164839985817707" pbc="T T T"
Si       1.13507961       9.37197493       9.01106702
Si       3.14797710       9.37197493       2.01180467
Si       3.14797710       9.37197493       9.01106702
Si       1.13507961       9.37197493       2.01180467
Si       3.14775918      11.76341044       9.88073225
Si       1.13529753      11.76341044       1.14213945
Si       1.13529753      11.76341044       9.88073225
Si       3.14775918      11.76341044       1.14213945
Si       3.28446639       8.12067333       4.50194306
Si       0.99859032       8.12067333       6.52092863
Si       0.99859032       8.12067333       4.50194306
Si       3.28446639       8.12067333       6.52092863
Si       1.13928463       5.76392953      10.02289359
Si       3.14377208       5.76392953       0.99997811
Si       3.14377208       5.76392953      10.02289359
Si       1.13928463       5.76392953       0.99997811
Si       2.14152836       4.10920530       9.46693871
Si       2.14152836       4.10920530       1.55593299
18
Lattice="4.283502966200479 0.0 0.0 0.0 12.920526176001252 -3.5130414654190442e-15 0.0 2.178578564334293e-15 11.03698539449406" Properties=species:S:1:pos:R:3 unique_starting_index=55 config_type=initial n_minim_iter=7 stress="-0.014815167090420835 -6.871041193506992e-16 1.2995306636751698e-17 -6.871041193506992e-16 0.010322592171367153 4.990924758674148e-16 1.2995306636751698e-17 4.990924758674148e-16 0.03187115261466986" pbc="T T T"
Si       1.13530603       9.35509963       9.01768179
Si       3.14819694       9.35509963       2.01930360
Si       3.14819694       9.35509963       9.01768179
Si       1.13530603       9.35509963       2.01930360
Si       3.14684694      11.73399238       9.88650261
Si       1.13665603      11.73399238       1.15048278
Si       1.13665603      11.73399238       9.88650261
Si       3.14684694      11.73399238       1.15048278
Si       3.28716765       8.11012121       4.51481389
Si       0.99633532       8.11012121       6.52217151
Si       0.99633532       8.11012121       4.51481389
Si       3.28716765       8.11012121       6.52217151
Si       1.14466949       5.74824394      10.02918521
Si       3.13883348       5.74824394       1.00780018
Si       3.13883348       5.74824394      10.02918521
Si       1.14466949       5.74824394       1.00780018
Si       2.14175148       4.09559517       9.47873949
Si       2.14175148       4.09559517       1.55824591
18
Lattice="4.3405176780358214 0.0 0.0 0.0 12.584872916739739 -3.512610868016223e-15 0.0 2.1403178626847217e-15 11.116536821306703" Properties=species:S:1:pos:R:3 unique_starting_index=55 config_type=initial n_minim_iter=8 stress="0.03166047372157886 -8.989582507355346e-17 -1.1426951197858581e-17 -8.989582507355346e-17 -0.023682284418773562 1.166463178277404e-16 -1.1426951197858581e-17 1.166463178277404e-16 -0.012928102512966808" pbc="T T T"
Si       1.16233702       9.12233540       9.06760456
Si       3.17818066       9.12233540       2.04893226
Si       3.17818066       9.12233540       9.06760456
Si       1.16233702       9.12233540       2.04893226
Si       3.16996347      11.41379585       9.92789177
Si       1.17055421      11.41379585       1.18864505
Si       1.17055421      11.41379585       9.92789177
Si       3.16996347      11.41379585       1.18864505
Si       3.33547199       7.92659988       4.56252100
Si       1.00504569       7.92659988       6.55401582
Si       1.00504569       7.92659988       4.56252100
Si       3.33547199       7.92659988       6.55401582
Si       1.16667291       5.58435400      10.11309733
Si       3.17384477       5.58435400       1.00343949
Si       3.17384477       5.58435400      10.11309733
Si       1.16667291       5.58435400       1.00343949
Si       2.17025884       3.97419182       9.54532077
Si       2.17025884       3.97419182       1.57121605
18
Lattice="4.350938750200974 0.0 0.0 0.0 12.526702249239872 -3.56010431045149e-15 0.0 2.099975903041293e-15 11.168885856590732" Properties=species:S:1:pos:R:3 unique_starting_index=55 config_type=initial n_minim_iter=9 stress="0.014697489144351945 -8.562238913924958e-17 -1.823814452809683e-18 -8.562238913924958e-17 -0.02629280108892398 9.629740310835126e-17 -1.823814452809683e-18 9.629740310835126e-17 -0.01710535513665134" pbc="T T T"
Si       1.17662650       9.08357440       9.10402323
Si       3.17431225       9.08357440       2.06486263
Si       3.17431225       9.08357440       9.10402323
Si       1.17662650       9.08357440       2.06486263
Si       3.18291246      11.35520135       9.96424090
Si       1.16802629      11.35520135       1.20464496
Si       1.16802629      11.35520135       9.96424090
Si       3.18291246      11.35520135       1.20464496
Si       3.34740300       7.90146371       4.58766740
Si       1.00353575       7.90146371       6.58121846
Si       1.00353575       7.90146371       4.58766740
Si       3.34740300       7.90146371       6.58121846
Si       1.17377415       5.55323009      10.16674297
Si       3.17716460       5.55323009       1.00214288
Si       3.17716460       5.55323009      10.16674297
Si       1.17377415       5.55323009       1.00214288
Si       2.17546938       3.94830365       9.58914848
Si       2.17546938       3.94830365       1.57973737
18
Lattice="4.361154177653671 0.0 0.0 0.0 12.65366524096163 -3.631066486597306e-15 0.0 2.090308242495269e-15 11.288658535277616" Properties=species:S:1:pos:R:3 unique_starting_index=55 config_type=initial n_minim_iter=10 stress="-0.05159525081107481 -1.2191963963968512e-15 -5.293056885971511e-17 -1.2191963963968512e-15 -0.0017228927787619225 7.360378767361058e-16 -5.293056885971511e-17 7.360378767361058e-16 -0.0021436671696835052" pbc="T T T"
Si       1.18217371       9.18517507       9.17845118
Si       3.17898047       9.18517507       2.11020735
Si       3.17898047       9.18517507       9.17845118
Si       1.18217371       9.18517507       2.11020735
Si       3.18017212      11.45244762      10.04348228
Si       1.18098206      11.45244762       1.24517626
Si       1.18098206      11.45244762      10.04348228
Si       3.18017212      11.45244762       1.24517626
Si       3.36700347       8.01933046       4.64356446
Si       0.99415071       8.01933046       6.64509408
Si       0.99415071       8.01933046       4.64356446
Si       3.36700347       8.01933046       6.64509408
Si       1.18358645       5.59300694      10.28826951
Si       3.17756773       5.59300694       1.00038902
Si       3.17756773       5.59300694      10.28826951
Si       1.18358645       5.59300694       1.00038902
Si       2.18057709       3.96238710       9.68825421
Si       2.18057709       3.96238710       1.60040433
18
Lattice="4.371917094283097 0.0 0.0 0.0 12.656953830872506 -3.6810997598229124e-15 0.0 2.032712346788584e-15 11.251098303119058" Properties=species:S:1:pos:R:3 unique_starting_index=55 config_type=initial n_minim_iter=11 stress="-0.004637233506949045 -9.51975600176376e-16 4.877210808904602e-17 -9.51975600176376e-16 -0.007495474916876674 1.1113264263653923e-15 4.877210808904602e-17 1.1113264263653923e-15 0.0024579909947312958" pbc="T T T"
Si       1.17922540       9.19285078       9.13018927
Si       3.19269170       9.19285078       2.12090904
Si       3.19269170       9.19285078       9.13018927
Si       1.17922540       9.19285078       2.12090904
Si       3.19026331      11.44429394       9.99728745
Si       1.18165378      11.44429394       1.25381085
Si       1.18165378      11.44429394       9.99728745
Si       3.19026331      11.44429394       1.25381085
Si       3.37641618       8.04422144       4.62202556
Si       0.99550091       8.04422144       6.62907274
Si       0.99550091       8.04422144       4.62202556
Si       3.37641618       8.04422144       6.62907274
Si       1.19497204       5.58318449      10.25502098
Si       3.17694506       5.58318449       0.99607732
Si       3.17694506       5.58318449      10.25502098
Si       1.19497204       5.58318449       0.99607732
Si       2.18595855       3.95203839       9.65498049
Si       2.18595855       3.95203839       1.59611781
18
Lattice="4.366097381330116 0.0 0.0 0.0 12.82103392559826 -3.763661220637736e-15 0.0 1.942866614928088e-15 11.1198623294284" Properties=species:S:1:pos:R:3 unique_starting_index=55 config_type=initial n_minim_iter=12 stress="-0.004014074677012647 -7.915783034196542e-17 4.860275176608495e-18 -7.915783034196542e-17 0.016963216053912444 2.3061782764604713e-16 4.860275176608495e-18 2.3061782764604713e-16 0.00041572198471442954" pbc="T T T"
Si       1.17847884       9.32781893       8.96001137
Si       3.18761854       9.32781893       2.15985096
Si       3.18761854       9.32781893       8.96001137
Si       1.17847884       9.32781893       2.15985096
Si       3.18805193      11.55488400       9.84263782
Si       1.17804545      11.55488400       1.27722451
Si       1.17804545      11.55488400       9.84263782
Si       3.18805193      11.55488400       1.27722451
Si       3.36830180       8.22867207       4.55579707
Si       0.99779558       8.22867207       6.56406526
Si       0.99779558       8.22867207       4.55579707
Si       3.36830180       8.22867207       6.56406526
Si       1.18974958       5.61862092      10.12123575
Si       3.17634780       5.61862092       0.99862658
Si       3.17634780       5.61862092      10.12123575
Si       1.18974958       5.61862092       0.99862658
Si       2.18304869       3.96076668       9.53604687
Si       2.18304869       3.96076668       1.58381546
18
Lattice="4.365506312202663 0.0 0.0 0.0 12.849952385682965 -3.855114500904962e-15 0.0 1.8648030750600837e-15 11.131140920767432" Properties=species:S:1:pos:R:3 unique_starting_index=55 config_type=initial n_minim_iter=13 stress="0.0006119925337353738 -2.4966606279099707e-16 1.8846915141920642e-17 -2.4966606279099707e-16 0.014291735315614068 -2.5425555332968414e-17 1.8846915141920642e-17 -2.5425555332968414e-17 -0.007265211435084383" pbc="T T T"
Si       1.18103727       9.35576326       8.90632278
Si       3.18446905       9.35576326       2.22481815
Si       3.18446905       9.35576326       8.90632278
Si       1.18103727       9.35576326       2.22481815
Si       3.18781940      11.54925944       9.82122639
Si       1.17768692      11.54925944       1.30991453
Si       1.17768692      11.54925944       9.82122639
Si       3.18781940      11.54925944       1.30991453
Si       3.36414612       8.32853699       4.56499852
Si       1.00136019       8.32853699       6.56614240
Si       1.00136019       8.32853699       4.56499852
Si       3.36414612       8.32853699       6.56614240
Si       1.18597827       5.58801785      10.12984308
Si       3.17952805       5.58801785       1.00129784
Si       3.17952805       5.58801785      10.12984308
Si       1.18597827       5.58801785       1.00129784
Si       2.18275316       3.94320750       9.53844872
Si       2.18275316       3.94320750       1.59269220
18
Lattice="4.357534642290336 0.0 0.0 0.0 12.792400817837613 -3.935947654091077e-15 0.0 1.823880778201949e-15 11.270933465282527" Properties=species:S:1:pos:R:3 unique_starting_index=55 config_type=initial n_minim_iter=14 stress="-0.003991320007439976 -6.207217340640831e-16 -2.7080577405567885e-17 -6.207217340640831e-16 0.005160957816487555 8.82195090539132e-16 -2.7080577405567885e-17 8.82195090539132e-16 -0.013465760773508726" pbc="T T T"
Si       1.17784890       9.31369370       8.95523589
Si       3.17968574       9.31369370       2.31569757
Si       3.17968574       9.31369370       8.95523589
Si       1.17784890       9.31369370       2.31569757
Si       3.18248945      11.47132121       9.92023409
Si       1.17504520      11.47132121       1.35069938
Si       1.17504520      11.47132121       9.92023409
Si       3.18248945      11.47132121       1.35069938
Si       3.35548736       8.37126744       4.63480860
Si       1.00204729       8.37126744       6.63612487
Si       1.00204729       8.37126744       4.63480860
Si       3.35548736       8.37126744       6.63612487
Si       1.17959526       5.52134735      10.27093779
Si       3.17793938       5.52134735       0.99999568
Si       3.17793938       5.52134735      10.27093779
Si       1.17959526       5.52134735       0.99999568
Si       2.17876732       3.90152916       9.64490614
Si       2.17876732       3.90152916       1.62602732
18
Lattice="4.344029076376465 0.0 0.0 0.0 12.70850483892903 -3.974195498125504e-15 0.0 1.825649190424129e-15 11.428712920409508" Properties=species:S:1:pos:R:3 unique_starting_index=55 config_type=initial n_minim_iter=15 stress="0.007826751294233738 -5.830977546659619e-16 1.9114173042172068e-17 -5.830977546659619e-16 0.005525688666912561 7.014285629785341e-16 1.9114173042172068e-17 7.014285629785341e-16 -0.001955801151692009" pbc="T T T"
Si       1.17052656       9.24613533       9.04751423
Si       3.17350251       9.24613533       2.38119869
Si       3.17350251       9.24613533       9.04751423
Si       1.17052656       9.24613533       2.38119869
Si       3.17412797      11.38775334      10.05609172
Si       1.16990110      11.38775334       1.37262120
Si       1.16990110      11.38775334      10.05609172
Si       3.17412797      11.38775334       1.37262120
Si       3.34303344       8.35379842       4.71386074
Si       1.00099563       8.35379842       6.71485218
Si       1.00099563       8.35379842       4.71386074
Si       3.34303344       8.35379842       6.71485218
Si       1.16997397       5.46820442      10.42757597
Si       3.17405511       5.46820442       1.00113695
Si       3.17405511       5.46820442      10.42757597
Si       1.16997397       5.46820442       1.00113695
Si       2.17201454       3.86456795       9.76689380
Si       2.17201454       3.86456795       1.66181912
18
Lattice="4.321471898247411 0.0 0.0 0.0 12.511161467298306 -3.994422978113551e-15 0.0 1.8520213964667395e-15 11.661932760980969" Properties=species:S:1:pos:R:3 unique_starting_index=55 config_type=initial n_minim_iter=16 stress="-0.0018912529400281724 -3.200916842027956e-16 -8.965919807032542e-18 -3.200916842027956e-16 0.005297870378520834 1.0878231039014625e-15 -8.965919807032542e-18 1.0878231039014625e-15 -0.00535058212023997" pbc="T T T"
Si       1.15577359       9.08823135       9.19680333
Si       3.16569830       9.08823135       2.46512943
Si       3.16569830       9.08823135       9.19680333
Si       1.15577359       9.08823135       2.46512943
Si       3.16207648      11.20822089      10.27035096
Si       1.15939542      11.20822089       1.39158180
Si       1.15939542      11.20822089      10.27035096
Si       3.16207648      11.20822089       1.39158180
Si       3.32095410       8.25770816       4.83039811
Si       1.00051780       8.25770816       6.83153465
Si       1.00051780       8.25770816       4.83039811
Si       3.32095410       8.25770816       6.83153465
Si       1.16229469       5.37342773      10.66255271
Si       3.15917721       5.37342773       0.99938006
Si       3.15917721       5.37342773      10.66255271
Si       1.16229469       5.37342773       0.99938006
Si       2.16073595       3.79107086       9.94504199
Si       2.16073595       3.79107086       1.71689077
18
Lattice="4.303445359879442 0.0 0.0 0.0 12.376644875736014 -3.984858812427446e-15 0.0 1.860483924477391e-15 11.72270094606322" Properties=species:S:1:pos:R:3 unique_starting_index=55 config_type=initial n_minim_iter=17 stress="-0.007079574612644411 -4.553261071331199e-17 5.4950538470273745e-18 -4.553261071331199e-17 -0.004198979416280539 1.6954462190982401e-15 5.4950538470273745e-18 1.6954462190982401e-15 0.01196987182176294" pbc="T T T"
Si       1.14814707       8.97419786       9.24492736
Si       3.15529828       8.97419786       2.47777358
Si       3.15529828       8.97419786       9.24492736
Si       1.14814707       8.97419786       2.47777358
Si       3.15322284      11.10119898      10.35445154
Si       1.15022252      11.10119898       1.36824940
Si       1.15022252      11.10119898      10.35445154
Si       3.15322284      11.10119898       1.36824940
Si       3.30303766       8.15369067       4.85976719
Si       1.00040770       8.15369067       6.86293375
Si       1.00040770       8.15369067       4.85976719
Si       3.30303766       8.15369067       6.86293375
Si       1.15166124       5.32908998      10.72174086
Si       3.15178412       5.32908998       1.00096008
Si       3.15178412       5.32908998      10.72174086
Si       1.15166124       5.32908998       1.00096008
Si       2.15172268       3.75957126       9.98819987
Si       2.15172268       3.75957126       1.73450107
18
Lattice="4.303946408151345 0.0 0.0 0.0 12.286190335840045 -3.973653670631205e-15 0.0 1.865275211436953e-15 11.746791771070082" Properties=species:S:1:pos:R:3 unique_starting_index=55 config_type=initial n_minim_iter=18 stress="0.01035647468827257 -3.441765081368607e-16 -2.0287536823653443e-17 -3.441765081368607e-16 -0.0017086258518766522 1.907269155478364e-15 -2.0287536823653443e-17 1.907269155478364e-15 0.01218942352905083" pbc="T T T"
Si       1.14881921       8.89335551       9.26520249
Si       3.15512719       8.89335551       2.48158928
Si       3.15512719       8.89335551       9.26520249
Si       1.14881921       8.89335551       2.48158928
Si       3.15471725      11.03224469      10.41032803
Si       1.14922916      11.03224469       1.33646374
Si       1.14922916      11.03224469      10.41032803
Si       3.15471725      11.03224469       1.33646374
Si       3.30267520       8.07394162       4.87202024
Si       1.00127121       8.07394162       6.87477153
Si       1.00127121       8.07394162       4.87202024
Si       3.30267520       8.07394162       6.87477153
Si       1.15072765       5.30815021      10.74566286
Si       3.15321876       5.30815021       1.00112891
Si       3.15321876       5.30815021      10.74566286
Si       1.15072765       5.30815021       1.00112891
Si       2.15197320       3.74254643       9.99952626
Si       2.15197320       3.74254643       1.74726551
18
Lattice="4.316169627251905 0.0 0.0 0.0 12.242588410729397 -3.9533328906005355e-15 0.0 1.8591125559348596e-15 11.688281119068876" Properties=species:S:1:pos:R:3 unique_starting_index=55 config_type=initial n_minim_iter=19 stress="-0.006947384229119278 -2.1582455900843894e-16 1.026475444067338e-16 -2.1582455900843894e-16 -0.0074235698363653655 1.794881979525941e-15 1.026475444067338e-16 1.794881979525941e-15 0.0014502316252068858" pbc="T T T"
Si       1.15428636       8.85139520       9.20770767
Si       3.16188327       8.85139520       2.48057345
Si       3.16188327       8.85139520       9.20770767
Si       1.15428636       8.85139520       2.48057345
Si       3.16206818      10.99642040      10.39183432
Si       1.15410145      10.99642040       1.29644680
Si       1.15410145      10.99642040      10.39183432
Si       3.16206818      10.99642040       1.29644680
Si       3.31614504       8.03416499       4.84361565
Si       1.00002459       8.03416499       6.84466547
Si       1.00002459       8.03416499       4.84361565
Si       3.31614504       8.03416499       6.84466547
Si       1.15779757       5.30292354      10.68694386
Si       3.15837206       5.30292354       1.00133726
Si       3.15837206       5.30292354      10.68694386
Si       1.15779757       5.30292354       1.00133726
Si       2.15808481       3.73843204       9.94352100
Si       2.15808481       3.73843204       1.74476012
18
Lattice="4.348441783208468 0.0 0.0 0.0 12.210827664033433 -3.9345936724414464e-15 0.0 1.8532952850783122e-15 11.629958051924032" Properties=species:S:1:pos:R:3 unique_starting_index=55 config_type=initial n_minim_iter=20 stress="-0.0003168966732210493 8.838677316164516e-17 -5.0341766618803546e-17 8.838677316164516e-17 0.0023148109547662344 1.1763328894922844e-15 -5.0341766618803546e-17 1.1763328894922844e-15 0.0031407296249894535" pbc="T T T"
Si       1.17003169       8.82309383       9.12785381
Si       3.17841010       8.82309383       2.50210424
Si       3.17841010       8.82309383       9.12785381
Si       1.17003169       8.82309383       2.50210424
Si       3.17972080      10.95723286      10.37717606
Si       1.16872098      10.95723286       1.25278199
Si       1.16872098      10.95723286      10.37717606
Si       3.17972080      10.95723286       1.25278199
Si       3.34781533       8.02065424       4.81359723
Si       1.00062645       8.02065424       6.81636082
Si       1.00062645       8.02065424       4.81359723
Si       3.34781533       8.02065424       6.81636082
Si       1.17437459       5.29756748      10.62923250
Si       3.17406719       5.29756748       1.00072555
Si       3.17406719       5.29756748      10.62923250
Si       1.17437459       5.29756748       1.00072555
Si       2.17422089       3.72926282       9.88349540
Si       2.17422089       3.72926282       1.74646266
18
Lattice="4.8581927836835455 0.0 0.0 0.0 11.716237341402552 -3.721352632500421e-15 0.0 1.8881701673489852e-15 11.344262875754218" Properties=species:S:1:pos:R:3 unique_starting_index=55 config_type=initial n_minim_iter=21 stress="-0.005578655121380938 -1.2352109833881012e-15 1.1126178028477342e-16 -1.2352109833881012e-15 0.03814589785208847 3.750132568957727e-15 1.1126178028477342e-16 3.750132568957727e-15 0.01818550097619982" pbc="T T T"
Si       1.42764554       8.58984414       8.50974810
Si       3.43054725       8.58984414       2.83451478
Si       3.43054725       8.58984414       8.50974810
Si       1.42764554       8.58984414       2.83451478
Si       3.42726645      10.22031638      10.29275012
Si       1.43092633      10.22031638       1.05151276
Si       1.43092633      10.22031638      10.29275012
Si       3.42726645      10.22031638       1.05151276
Si       3.87096727       7.95170070       4.68431895
Si       0.98722551       7.95170070       6.65994393
Si       0.98722551       7.95170070       4.68431895
Si       3.87096727       7.95170070       6.65994393
Si       1.43482484       5.04806428      10.35219004
Si       3.42336795       5.04806428       0.99207283
Si       3.42336795       5.04806428      10.35219004
Si       1.43482484       5.04806428       0.99207283
Si       2.42909639       3.47419441       9.61231943
Si       2.42909639       3.47419441       1.73194345
