24
Lattice="10.747747378206196 -0.008737784752693045 -4.424707412237405 -5.2444284749429215 6.710941174330763 4.123979044095035 -4.7306087687598275 2.127713757174126 14.219796255479624" Properties=species:S:1:pos:R:3 unique_starting_index=90 config_type=initial n_minim_iter=1 energy=-3961.143409219953 free_energy=-3961.143409219953 pbc="T T T"
Si       4.73105957       1.49257530       6.53688956
Si      -1.45637121       2.62968278       3.22006587
Si       4.91630961       6.37696566       4.20875057
Si      -0.26126883       2.09688846       3.75224807
Si       2.65124957       4.34282022      12.56437738
Si      -8.02243044       6.71109927      14.44836246
Si      -0.93261207       2.34916157       4.93323652
Si       0.00879470       5.76446562      10.44621030
Si      -7.73799841       8.69896641      14.25123042
Si       5.45493340       3.94717611       5.51867763
Si       0.23908365       4.60266860       4.00007917
Si       2.95531837       6.40819894       4.62134023
Si       3.73857278       8.02732862       2.50286812
Si       3.93370215       3.59548745       9.16494894
Si      -2.49440651       3.74527100       1.89744533
Si      -9.47557501       8.09880871      14.21981736
Si      -2.13634644       2.10418312       4.39677050
Si       1.68731559       5.40482835      11.12196882
Si      -1.62268196       3.78014725      10.24605873
Si      -3.95633731       4.36687083       9.45401601
Si      -0.30587331       7.11780405       8.99442781
Si       7.53782752       0.59550748      -0.43899987
Si       5.87386376       3.71212939       4.16982198
Si       0.18915909       4.79784854       5.75271946
24
Lattice="10.756627648325418 -0.008025794362725127 -4.436016667761366 -5.249142216254544 6.720210133742745 4.132497089274648 -4.75171736935831 2.1390920026204596 14.213997036749491" Properties=species:S:1:pos:R:3 unique_starting_index=90 config_type=initial n_minim_iter=2 stress="-0.0007666594029387329 0.003158957719240521 -0.0014974104052827967 0.003158957719240521 -8.023038468269948e-05 0.0017117521883028893 -0.0014974104052827967 0.0017117521883028893 -0.0021639464267877635" pbc="T T T"
Si       4.72316312       1.50064183       6.52452030
Si      -1.46071531       2.63473332       3.22084392
Si       4.91347274       6.38952540       4.20204260
Si      -0.26588766       2.10215930       3.75031531
Si       2.63532098       4.35817426      12.55159481
Si      -8.04282125       6.72681825      14.45112932
Si      -0.93930561       2.35547845       4.93122046
Si      -0.00411426       5.77917808      10.44015854
Si      -7.75737321       8.71708596      14.25463531
Si       5.44917783       3.95791382       5.50791178
Si       0.23480612       4.61110180       3.99899178
Si       2.95172422       6.42052769       4.61704050
Si       3.73891445       8.04040084       2.50081975
Si       3.92240729       3.60805462       9.15285161
Si      -2.49650218       3.75039668       1.90167070
Si      -9.49513361       8.11570603      14.22588291
Si      -2.14270984       2.10947923       4.39677177
Si       1.67345410       5.42052806      11.11228710
Si      -1.63679055       3.79215868      10.24077290
Si      -3.96958500       4.37759892       9.45323523
Si      -0.31621994       7.13295650       8.99086276
Si       7.54014780       0.59922905      -0.44939905
Si       5.87054528       3.72180096       4.16011008
Si       0.18263083       4.80818683       5.75007837
24
Lattice="10.764183661544338 -0.017866329935339154 -4.442244890975874 -5.260311077874851 6.731381564796197 4.135031397297942 -4.76383617860658 2.144329955872549 14.217375967970058" Properties=species:S:1:pos:R:3 unique_starting_index=90 config_type=initial n_minim_iter=3 stress="0.0023344295664801716 -0.0008337763398452255 -0.00043344602221436764 -0.0008337763398452255 0.010050864069657463 -0.001539394954721231 -0.00043344602221436764 -0.001539394954721231 0.0012189920559910012" pbc="T T T"
Si       4.72055072       1.49625474       6.52223033
Si      -1.46586290       2.63808461       3.22183738
Si       4.90682849       6.39052955       4.19908614
Si      -0.26978131       2.10414102       3.75041394
Si       2.62602328       4.35816103      12.55156941
Si      -8.06099487       6.73954289      14.45662966
Si      -0.94487343       2.35841464       4.93155083
Si      -0.01489946       5.78366649      10.44075362
Si      -7.77719218       8.73127479      14.25895694
Si       5.44434307       3.95561981       5.50465063
Si       0.22804137       4.61452510       3.99848503
Si       2.94498622       6.42355028       4.61492737
Si       3.73179365       8.04452991       2.49823845
Si       3.91567011       3.60680257       9.15139021
Si      -2.50273773       3.75656421       1.90224039
Si      -9.51454641       8.13136976      14.23221850
Si      -2.14848427       2.11358211       4.39766687
Si       1.66288721       5.42377728      11.11129585
Si      -1.64704512       3.79715392      10.24172434
Si      -3.98110050       4.38447227       9.45511310
Si      -0.32767285       7.13936446       8.99048322
Si       7.54313793       0.59360487      -0.45412235
Si       5.86763710       3.71926627       4.15742779
Si       0.17511670       4.81241165       5.74961696
24
Lattice="10.770770244138843 -0.03545755812036641 -4.4522119133696805 -5.275479177109193 6.732179901980076 4.141963036612131 -4.783284112474962 2.15459716398158 14.217648410483045" Properties=species:S:1:pos:R:3 unique_starting_index=90 config_type=initial n_minim_iter=4 stress="-0.00576595500756211 -0.004922203779967411 -0.00212713512257851 -0.004922203779967411 -0.0020836696460701893 0.0016326097662031085 -0.00212713512257851 0.0016326097662031085 -0.0035809879391116733" pbc="T T T"
Si       4.71241619       1.48847675       6.51498323
Si      -1.47384518       2.63754666       3.22369481
Si       4.89226109       6.37658925       4.19494923
Si      -0.27631244       2.10346195       3.74987517
Si       2.60739509       4.35287787      12.54759142
Si      -8.08799954       6.74873229      14.46403396
Si      -0.95419857       2.35928975       4.93082625
Si      -0.03363881       5.78044036      10.43993361
Si      -7.80670449       8.73664294      14.26511225
Si       5.43188773       3.94398326       5.49744400
Si       0.21631751       4.60881786       3.99805781
Si       2.93239487       6.41304822       4.61203476
Si       3.71819651       8.02996685       2.49682112
Si       3.90070906       3.60003660       9.14587214
Si      -2.51162657       3.75679802       1.90459982
Si      -9.54184990       8.14100790      14.24246635
Si      -2.15742937       2.11681802       4.39823949
Si       1.64291692       5.42060143      11.10652426
Si      -1.66466135       3.80075024      10.24022946
Si      -3.99916023       4.38813323       9.45616020
Si      -0.34690309       7.13454541       8.98911241
Si       7.54341399       0.58386182      -0.46311599
Si       5.85882753       3.70745293       4.15236416
Si       0.16219769       4.80904837       5.74838539
24
Lattice="10.799056936598781 -0.026773790150924365 -4.459850586154409 -5.2846694269797005 6.72032448056981 4.147138997395342 -4.798231589939861 2.147802671832202 14.231969070506665" Properties=species:S:1:pos:R:3 unique_starting_index=90 config_type=initial n_minim_iter=5 stress="0.00526020259264607 -0.001159957101371627 -0.0014537013129578735 -0.001159957101371627 -0.0036843741790836635 0.0017278362043070413 -0.0014537013129578735 0.0017278362043070413 -8.66559396778082e-05" pbc="T T T"
Si       4.72380344       1.48778469       6.51910901
Si      -1.47663099       2.63260459       3.22749754
Si       4.90651634       6.37254280       4.19705217
Si      -0.27571526       2.10072596       3.75305110
Si       2.61389667       4.34833969      12.56004573
Si      -8.10798708       6.73422501      14.48121857
Si      -0.95671326       2.35607138       4.93449831
Si      -0.03113607       5.77313757      10.45039326
Si      -7.82392019       8.71907543      14.27983063
Si       5.44466437       3.94229281       5.49948786
Si       0.21835193       4.60222043       4.00071672
Si       2.94481924       6.40808322       4.61421155
Si       3.73332720       8.02397465       2.49771210
Si       3.90984397       3.59822930       9.15393553
Si      -2.51647076       3.75097117       1.90598544
Si      -9.56158686       8.12403812      14.26120619
Si      -2.16332982       2.11373376       4.40187571
Si       1.64745591       5.41717862      11.11491126
Si      -1.67011067       3.79703415      10.24887131
Si      -4.00977008       4.37906876       9.46415191
Si      -0.34375665       7.12593800       8.99558926
Si       7.56210092       0.59151034      -0.46730953
Si       5.87511342       3.70758893       4.15584355
Si       0.16504235       4.80447136       5.75231363
24
Lattice="10.78096832242606 -0.006041191165605671 -4.457850133564143 -5.264499409188999 6.711409451555051 4.1414009080295004 -4.782049773319955 2.1290297737282105 14.235574481679082" Properties=species:S:1:pos:R:3 unique_starting_index=90 config_type=initial n_minim_iter=6 stress="-0.004792432030559162 0.0028526645504056967 7.1461803032183665e-06 0.0028526645504056967 0.0006745166236783445 -0.00019152303294083222 7.1461803032183665e-06 -0.00019152303294083222 1.700535722982789e-05" pbc="T T T"
Si       4.72247351       1.48698435       6.52285986
Si      -1.46954807       2.62815090       3.22653591
Si       4.90817133       6.37865973       4.19605029
Si      -0.26966868       2.09790590       3.75285544
Si       2.62221239       4.34331934      12.56539532
Si      -8.08022240       6.71200447      14.48131732
Si      -0.95015099       2.35179059       4.93329463
Si      -0.01598279       5.76634868      10.45238629
Si      -7.79260982       8.69760243      14.27608196
Si       5.44222397       3.94601602       5.49998502
Si       0.22611306       4.59980626       3.99803528
Si       2.95455536       6.41158206       4.61128154
Si       3.74124458       8.03124564       2.49414233
Si       3.91271967       3.59744555       9.15871020
Si      -2.50660380       3.74677726       1.90267469
Si      -9.52628745       8.10069755      14.26173211
Si      -2.15560305       2.10894284       4.40051495
Si       1.65806540       5.41453111      11.11616194
Si      -1.65899685       3.79020351      10.24891366
Si      -3.99454831       4.36580914       9.46172337
Si      -0.32636997       7.12097165       8.99264200
Si       7.55097891       0.60624356      -0.46626280
Si       5.87374241       3.71467692       4.15950253
Si       0.17550862       4.80327436       5.74996741
24
Lattice="10.82081508433474 -0.015583857352701 -4.444304105703336 -5.292919051850246 6.70400620055412 4.12146010415691 -4.7977872371187145 2.1133895135952745 14.201035728570588" Properties=species:S:1:pos:R:3 unique_starting_index=90 config_type=initial n_minim_iter=7 stress="-0.0001007861055603382 0.0004881810205932979 0.0022811333674680042 0.0004881810205932979 0.0018199863538362374 0.00039168666685923144 0.0022811333674680042 0.00039168666685923144 -0.005637237443676411" pbc="T T T"
Si       4.74629786       1.45169842       6.50807037
Si      -1.48079710       2.62286566       3.21396433
Si       4.91610895       6.35476017       4.17842574
Si      -0.26886161       2.08764900       3.74136186
Si       2.62717363       4.32366060      12.53167571
Si      -8.11937586       6.69277828      14.44331582
Si      -0.95819480       2.34534268       4.91193401
Si      -0.00971044       5.74499754      10.42839856
Si      -7.82617295       8.67834112      14.22815249
Si       5.44607148       3.91505001       5.47935435
Si       0.22038398       4.58416280       3.97837824
Si       2.95926762       6.39233482       4.59090669
Si       3.74262289       8.01041070       2.48302071
Si       3.92414747       3.56983971       9.14415145
Si      -2.51969773       3.73551608       1.90082668
Si      -9.56179566       8.08602152      14.23663718
Si      -2.16688769       2.11031713       4.38434718
Si       1.66627146       5.39530138      11.08909936
Si      -1.67623599       3.78596202      10.21399609
Si      -4.02092441       4.34761112       9.42561278
Si      -0.31808519       7.09967184       8.96092844
Si       7.57882199       0.60120277      -0.46646830
Si       5.89199152       3.69277292       4.16029111
Si       0.17691295       4.79638355       5.72463195
24
Lattice="10.834367338961082 -0.014806297609062541 -4.497400502958078 -5.308130050937102 6.687916990288027 4.14891518742929 -4.839628239682785 2.09338511463077 14.284194720818617" Properties=species:S:1:pos:R:3 unique_starting_index=90 config_type=initial n_minim_iter=8 stress="-0.0016263980828509989 9.924545456429013e-05 -0.003391174493298553 9.924545456429013e-05 -0.0011889297530046138 -0.0028001604012256533 -0.003391174493298553 -0.0028001604012256533 0.001728553523325001" pbc="T T T"
Si       4.73057136       1.42786177       6.52600556
Si      -1.49207451       2.61252107       3.23185326
Si       4.90086093       6.33233470       4.17664028
Si      -0.27929327       2.07688688       3.75761281
Si       2.58784525       4.30378317      12.58056838
Si      -8.16611151       6.66353867      14.53486207
Si      -0.97525712       2.33610412       4.93245665
Si      -0.03521796       5.72175074      10.47718330
Si      -7.86876633       8.64823364      14.30965197
Si       5.42017500       3.89242847       5.48373911
Si       0.20733746       4.56989208       3.98879617
Si       2.94223589       6.37273272       4.59598258
Si       3.73172359       7.98961772       2.47613225
Si       3.89529910       3.54642227       9.17982028
Si      -2.52825644       3.72521401       1.91537507
Si      -9.60378036       8.05765959      14.33737297
Si      -2.18103572       2.10560849       4.40870382
Si       1.63549882       5.37342827      11.13616543
Si      -1.71396484       3.77393597      10.26094264
Si      -4.05572206       4.32621994       9.47489459
Si      -0.33447453       7.07432052       8.99762886
Si       7.57925867       0.59849580      -0.49085051
Si       5.87759736       3.67551341       4.16654059
Si       0.16198913       4.78482855       5.74281629
24
Lattice="10.837418510687884 -0.03123200538186877 -4.491805326338872 -5.308973783158929 6.700733318738825 4.170154786688677 -4.8230025759686574 2.135466052457358 14.31767525595982" Properties=species:S:1:pos:R:3 unique_starting_index=90 config_type=initial n_minim_iter=9 stress="-0.0008814260402308326 -0.0008800981079811136 0.0010739589195448418 -0.0008800981079811136 0.0020403186725429677 0.002418991544921639 0.0010739589195448418 0.002418991544921639 0.0035616579725242085" pbc="T T T"
Si       4.74789168       1.43240522       6.55400345
Si      -1.48882225       2.61797737       3.24772332
Si       4.90727530       6.33849172       4.21134578
Si      -0.27402153       2.08439080       3.77098947
Si       2.60614661       4.34479885      12.62574606
Si      -8.15460527       6.70431468      14.58270611
Si      -0.97107757       2.35164735       4.94481836
Si      -0.01266796       5.75357258      10.52133300
Si      -7.85367523       8.69291609      14.35471444
Si       5.42120054       3.90026840       5.51265271
Si       0.21377925       4.58305798       4.00758721
Si       2.94811208       6.38437836       4.62761864
Si       3.73430247       7.99340697       2.51276377
Si       3.90993804       3.56657677       9.22319615
Si      -2.53251467       3.73235361       1.92659374
Si      -9.59075548       8.10328093      14.39440530
Si      -2.17761733       2.12312869       4.42047023
Si       1.65548033       5.40830816      11.18373948
Si      -1.70998285       3.81257547      10.28789686
Si      -4.05356071       4.35076970       9.50077354
Si      -0.30648520       7.09774813       9.03984735
Si       7.58445889       0.59519355      -0.47884960
Si       5.88508673       3.68100389       4.20233450
Si       0.17394478       4.80760791       5.76548483
24
Lattice="10.87501590786445 -0.006946764437545928 -4.4682830735058365 -5.322392496103355 6.665792447021419 4.123435116303648 -4.8343656811325 2.0717855924113775 14.243124232787043" Properties=species:S:1:pos:R:3 unique_starting_index=90 config_type=initial n_minim_iter=10 stress="0.0036663339153069213 -0.0010051642689999515 0.00066203999221198 -0.0010051642689999515 0.0029491925502025096 -0.0035995721684310674 0.00066203999221198 -0.0035995721684310674 -0.001646174860056311" pbc="T T T"
Si       4.77129753       1.39306782       6.52227006
Si      -1.49298420       2.59458862       3.22356346
Si       4.92597302       6.30787130       4.16746649
Si      -0.27326954       2.06194269       3.74361178
Si       2.62457234       4.29244455      12.55422152
Si      -8.17422780       6.62542668      14.49399291
Si      -0.97209903       2.32756564       4.90743588
Si       0.00500017       5.70271507      10.45205606
Si      -7.86711079       8.61468744      14.24993410
Si       5.43268966       3.86748831       5.47006637
Si       0.22179844       4.56233560       3.96585070
Si       2.96223784       6.35389117       4.57967295
Si       3.75197542       7.96672283       2.47230949
Si       3.92734846       3.51877477       9.17225668
Si      -2.54111775       3.71693568       1.90309929
Si      -9.61345800       8.02638664      14.30881084
Si      -2.18389568       2.10351725       4.38924009
Si       1.67047897       5.35888506      11.11372095
Si      -1.72124809       3.77335645      10.21816067
Si      -4.07088522       4.29665837       9.43914166
Si      -0.27658057       7.04319382       8.97403335
Si       7.61031223       0.59954605      -0.47592450
Si       5.90435513       3.65324957       4.17442635
Si       0.18484159       4.78185623       5.71402520
24
Lattice="10.937512210845735 -0.008937019425545875 -4.477436153779616 -5.354072086486362 6.647333720104771 4.132144853836202 -4.861243705654764 2.066103865937491 14.275037442718844" Properties=species:S:1:pos:R:3 unique_starting_index=90 config_type=initial n_minim_iter=11 stress="0.006934395966210047 -0.0013953055169508399 0.0020020795507611224 -0.0013953055169508399 0.00271691639133873 5.3545738187973825e-05 0.0020020795507611224 5.3545738187973825e-05 0.0014431228210514686" pbc="T T T"
Si       4.80326856       1.36716241       6.54284317
Si      -1.50847494       2.58561071       3.22723801
Si       4.94116595       6.28403446       4.17610672
Si      -0.27729146       2.05197785       3.74706745
Si       2.64663611       4.28422582      12.58990923
Si      -8.21987885       6.60871826      14.53254917
Si      -0.97803210       2.32386723       4.91100791
Si       0.02325276       5.69016584      10.47698066
Si      -7.90547680       8.59353434      14.27553361
Si       5.44376133       3.84714666       5.47846902
Si       0.22768620       4.55851551       3.96524636
Si       2.97794856       6.33552727       4.58498967
Si       3.76776286       7.94025447       2.47885801
Si       3.94677111       3.49624365       9.19795685
Si      -2.55496206       3.70698887       1.91514827
Si      -9.66340317       8.01246112      14.36235400
Si      -2.19863982       2.10295338       4.39715748
Si       1.68213191       5.35073774      11.14151739
Si      -1.74870997       3.78072395      10.22837321
Si      -4.10922888       4.27631364       9.46355590
Si      -0.23877053       7.01564707       8.99840902
Si       7.65210147       0.59590364      -0.47575755
Si       5.92675040       3.62754282       4.18607570
Si       0.19420374       4.78005815       5.71573134
24
Lattice="11.07261129121393 0.0069732979595231144 -4.516034962591462 -5.430402670672801 6.583463288953379 4.11883350783122 -4.962830805499351 1.9833162407826286 14.289277115229545" Properties=species:S:1:pos:R:3 unique_starting_index=90 config_type=initial n_minim_iter=12 stress="0.014972137484609373 -0.0006911787955385129 -5.1800186653129075e-05 -0.0006911787955385129 0.005335132977328689 -0.0016886974639627834 -5.1800186653129075e-05 -0.0016886974639627834 0.004459835082705473" pbc="T T T"
Si       4.83904512       1.28225623       6.53814306
Si      -1.53786140       2.55133078       3.21905688
Si       4.95172218       6.20494370       4.12857671
Si      -0.30512108       2.01570078       3.72618728
Si       2.63524102       4.20004784      12.57728182
Si      -8.35786987       6.50476910      14.54704427
Si      -1.00665117       2.29431739       4.89008930
Si       0.02897990       5.59469185      10.46751405
Si      -8.02965010       8.47183626      14.25373871
Si       5.44288685       3.77553228       5.43887464
Si       0.21937693       4.52104902       3.92372725
Si       2.98905657       6.26850563       4.53684850
Si       3.77947046       7.86055597       2.43058239
Si       3.94890825       3.39850369       9.17859515
Si      -2.59054375       3.68196773       1.91850341
Si      -9.79837718       7.90935873      14.40724888
Si      -2.24006754       2.07881279       4.39573565
Si       1.67209855       5.26283227      11.13389276
Si      -1.83981952       3.74698966      10.19415220
Si      -4.22656449       4.18245006       9.47628881
Si      -0.19357365       6.91131041       8.96515341
Si       7.74081738       0.59426861      -0.50846541
Si       5.94750759       3.54733984       4.14718794
Si       0.19305300       4.74221309       5.66978059
24
Lattice="11.15412904159753 0.0237429409332766 -4.512229863261339 -5.4714386186457356 6.521591548057952 4.086916910141997 -4.994304497398024 1.9062018955060587 14.279839737877115" Properties=species:S:1:pos:R:3 unique_starting_index=90 config_type=initial n_minim_iter=13 stress="0.017140405439061788 0.0015175645814367441 0.001127775531691954 0.0015175645814367441 0.006237317973473243 -0.0007666780217715286 0.001127775531691954 -0.0007666780217715286 0.003324253240458574" pbc="T T T"
Si       4.88970760       1.20296602       6.54578511
Si      -1.55427191       2.52419552       3.20153755
Si       4.97231895       6.12982984       4.09824982
Si      -0.33052085       1.98208290       3.70362130
Si       2.67032548       4.11950483      12.57500724
Si      -8.41100170       6.40289275      14.52976816
Si      -1.01181464       2.27203369       4.86457536
Si       0.08060683       5.50459035      10.45337609
Si      -8.07163376       8.36351625      14.19722507
Si       5.44811423       3.70778123       5.42086687
Si       0.21836149       4.47762452       3.88504170
Si       3.00204854       6.20626328       4.50276275
Si       3.79115341       7.78463855       2.39180165
Si       3.96970627       3.30497759       9.16929465
Si      -2.60802591       3.66246530       1.91284436
Si      -9.84329255       7.81163915      14.41682300
Si      -2.24403244       2.05911920       4.38615276
Si       1.69989647       5.18086775      11.12994088
Si      -1.88307052       3.72573858      10.14935934
Si      -4.30683670       4.09079174       9.47699692
Si      -0.11272598       6.80381831       8.92995285
Si       7.80021586       0.59242574      -0.50853820
Si       5.96048258       3.47293197       4.12699959
Si       0.21505155       4.70796491       5.62284113
24
Lattice="11.225673358379419 0.02274587474537135 -4.521598839614759 -5.515369726011342 6.49028048459638 4.07531182915872 -5.0409785526507465 1.8700010463368244 14.27361784373987" Properties=species:S:1:pos:R:3 unique_starting_index=90 config_type=initial n_minim_iter=14 stress="0.016027599221445813 0.0027678107169292272 0.0004309444122202566 0.0027678107169292272 0.006941901620919495 -0.00025027812166669174 0.0004309444122202566 -0.00025027812166669174 0.002261227593499074" pbc="T T T"
Si       4.92207422       1.15866965       6.53693195
Si      -1.56935485       2.51246157       3.19220681
Si       4.97343655       6.08674127       4.07519067
Si      -0.35164706       1.96295187       3.68879302
Si       2.67101376       4.07408107      12.56182333
Si      -8.47943513       6.35389210      14.52387424
Si      -1.02391443       2.26069373       4.85180890
Si       0.09097954       5.45437372      10.43913539
Si      -8.13638747       8.31186969      14.16995051
Si       5.45450443       3.66595300       5.40350094
Si       0.20769820       4.45123203       3.86417707
Si       3.01143655       6.16778952       4.47797857
Si       3.79858081       7.73704635       2.36338835
Si       3.97242219       3.25121088       9.15405466
Si      -2.62843345       3.65483958       1.91133006
Si      -9.91682802       7.76351442      14.42621516
Si      -2.25813553       2.04909116       4.38352370
Si       1.70118549       5.13140823      11.12313512
Si      -1.92342420       3.71637287      10.12377714
Si      -4.37633394       4.04413634       9.48009664
Si      -0.09036917       6.74170618       8.90894710
Si       7.84533765       0.58190276      -0.51435737
Si       5.97099590       3.42755991       4.10632335
Si       0.21515678       4.68662237       5.59581509
24
Lattice="11.278130388290535 0.029871331447994018 -4.536522866984434 -5.547464881730041 6.453638538425748 4.0627018519645794 -5.080084112379416 1.820208243763524 14.279346535226088" Properties=species:S:1:pos:R:3 unique_starting_index=90 config_type=initial n_minim_iter=15 stress="0.004615491025181052 0.0031668934212637583 0.0015816047646040766 0.0031668934212637583 0.004905944300099827 0.0005663490403421458 0.0015816047646040766 0.0005663490403421458 0.0009667538775051052" pbc="T T T"
Si       4.96003147       1.11469320       6.52226365
Si      -1.58327894       2.50157764       3.18089059
Si       4.97399262       6.03928821       4.05126643
Si      -0.37269183       1.93856925       3.66959047
Si       2.67181521       4.01497293      12.55997245
Si      -8.53272024       6.29637526      14.52396577
Si      -1.03195451       2.24523011       4.84764846
Si       0.10567581       5.38920813      10.43033083
Si      -8.18905185       8.24902062      14.14769504
Si       5.45850935       3.62380540       5.39051341
Si       0.19898192       4.42530775       3.84643337
Si       3.01198563       6.12515209       4.45426575
Si       3.79598663       7.68460130       2.33234012
Si       3.96250592       3.19078406       9.14046084
Si      -2.64251072       3.65108454       1.90782233
Si      -9.97951968       7.69385198      14.44004574
Si      -2.27120996       2.03258976       4.38689603
Si       1.70128300       5.06968507      11.12431974
Si      -1.95503054       3.70437578      10.10626452
Si      -4.44416819       3.98996817       9.49509137
Si      -0.07570278       6.66859769       8.88991475
Si       7.88453820       0.57631246      -0.52462965
Si       5.96944985       3.38312498       4.08206410
Si       0.21572450       4.65998122       5.57149642
24
Lattice="11.376277149916403 0.010141171789614614 -4.5685934991843835 -5.624812995849676 6.424760646407228 4.051023015428188 -5.176196792623313 1.7754824245126353 14.263460268181552" Properties=species:S:1:pos:R:3 unique_starting_index=90 config_type=initial n_minim_iter=16 stress="0.0033250610524859377 0.003038175608570717 -0.0018293340250416818 0.003038175608570717 0.0029054253420164114 -0.0009636547073142431 -0.0018293340250416818 -0.0009636547073142431 0.0013849986483012535" pbc="T T T"
Si       4.98381713       1.05810078       6.47411816
Si      -1.62120900       2.49146427       3.16516013
Si       4.95871545       5.97053724       4.00746475
Si      -0.41562462       1.91002355       3.64032166
Si       2.64335819       3.94172110      12.51611765
Si      -8.66923912       6.25295498      14.50444502
Si      -1.06062299       2.22617936       4.83606172
Si       0.07804092       5.31049380      10.38857752
Si      -8.33191132       8.20565022      14.10711965
Si       5.46529137       3.56571143       5.35156495
Si       0.17057673       4.39495346       3.82442952
Si       2.99902348       6.06459584       4.41254647
Si       3.77689102       7.61404233       2.28429472
Si       3.92520516       3.11526971       9.09107489
Si      -2.68207969       3.65482065       1.90306947
Si     -10.11049088       7.63371139      14.42200551
Si      -2.29983934       2.01730394       4.38773180
Si       1.66378014       4.99213986      11.09080259
Si      -2.02494172       3.68889768      10.07307097
Si      -4.56121396       3.94619962       9.49964774
Si      -0.12478059       6.57850829       8.85145544
Si       7.95174216       0.54398778      -0.54830467
Si       5.96849881       3.32406337       4.03372634
Si       0.19047111       4.62613167       5.53642469
24
Lattice="11.454505561604435 -0.03250532486767133 -4.587449950661409 -5.6967948183151185 6.4156270965697235 4.051172723454333 -5.255573867320929 1.7788642738254983 14.235387937350504" Properties=species:S:1:pos:R:3 unique_starting_index=90 config_type=initial n_minim_iter=17 stress="-0.008156212652373124 -0.0018846930487371172 -0.0015320523702500451 -0.0018846930487371172 -0.006156184411376124 0.0005213963961467941 -0.0015320523702500451 0.0005213963961467941 0.0009746115864181818" pbc="T T T"
Si       5.00826191       1.02294685       6.41839543
Si      -1.65274808       2.49498263       3.15318435
Si       4.93729068       5.91567455       3.98478992
Si      -0.45991191       1.89564035       3.61504186
Si       2.61251107       3.90140698      12.47236686
Si      -8.79422985       6.24956299      14.49130976
Si      -1.08381601       2.21769631       4.82601269
Si       0.04984707       5.24893382      10.36345222
Si      -8.46758273       8.21985550      14.07324484
Si       5.47314393       3.51987504       5.32666909
Si       0.14176156       4.37420887       3.82038655
Si       2.98187201       6.01354634       4.39367063
Si       3.75442049       7.55335180       2.25971969
Si       3.88071314       3.06956991       9.04343535
Si      -2.71812671       3.66328295       1.90967443
Si     -10.23766346       7.63033530      14.38612404
Si      -2.31836425       2.01585620       4.38955937
Si       1.63603724       4.96250732      11.04263893