22
Lattice="7.25008453931314 -1.918705310992425 -1.6520238585022042 -4.559158198104005 10.73459723076234 0.18264554384719894 -4.857325516331001 -1.681907778499998 10.844027790334941" Properties=species:S:1:pos:R:3 unique_starting_index=18 config_type=initial n_minim_iter=1 energy=-3593.6266801179772 free_energy=-3593.6266801179772 pbc="T T T"
Si      -0.50402500       8.64427419       1.36546962
Si      -0.12071991       1.52529458       6.71396492
Si      -4.41485612      -1.41228487       8.62507123
Si       0.75664110       0.07170983       9.81018120
Si      -6.47530248       3.56360193      10.14406324
Si       4.65897402       1.64750014       0.42608419
Si       3.46371152      -0.36901764      -0.30411710
Si      -1.02762637       2.13274699       9.22642109
Si      -1.85311758      -0.72661708       9.11717056
Si      -4.29920949       3.23122533       6.89676570
Si       1.80092421       1.19274025       3.64209715
Si      -3.51020339       5.81276929       6.04094370
Si      -3.86892899      -0.23359342       7.10990577
Si      -1.69438627       6.92832220       0.38004252
Si       1.45631975       2.61743276       4.97321003
Si       0.00937363       6.80027721      -0.52043841
Si      -0.86526268      -0.73743756       3.36441041
Si       3.47262396      -3.96381708       5.97835393
Si       0.64652207       2.78093958       3.19136854
Si      -4.21794602       5.07962938       7.70243179
Si      -2.37531524       4.89974044       4.66307110
Si      -1.62562696       0.82676234       7.82101133
22
Lattice="7.262206073684563 -1.8100355297531245 -1.8621857804593263 -4.461166356405464 10.4551674274602 0.2877986152176293 -5.129569656219436 -1.6978151153429601 11.193526963676748" Properties=species:S:1:pos:R:3 unique_starting_index=18 config_type=initial n_minim_iter=2 stress="0.0050906234949970024 0.008877922731772415 -0.028883565421031123 0.008877922731772415 -0.027878336688899996 -0.014147389352109078 -0.028883565421031123 -0.014147389352109078 0.00017023533927985605" pbc="T T T"
Si      -0.45480965       8.44088111       1.40296314
Si      -0.26559492       1.48621646       6.84566410
Si      -4.62912944      -1.41245098       8.93177567
Si       0.51897749       0.07522961       9.98544905
Si      -6.69188426       3.39894252      10.51803477
Si       4.64973157       1.64579369       0.31922210
Si       3.46571820      -0.33358839      -0.39022468
Si      -1.22794660       2.05055497       9.43607400
Si      -2.07520196      -0.69939059       9.34024631
Si      -4.44349294       3.12714822       7.14335479
Si       1.72920887       1.19294252       3.67602507
Si      -3.62167221       5.62296244       6.23319110
Si      -4.04764064      -0.28376675       7.36314382
Si      -1.64524508       6.76085214       0.42961907
Si       1.35094261       2.55576043       5.04004030
Si       0.09538639       6.65787696      -0.54038974
Si      -0.96376361      -0.73178551       3.44825311
Si       3.32224215      -3.85149324       6.01453637
Si       0.60733056       2.73246244       3.24992338
Si      -4.35518155       4.92154831       7.97042264
Si      -2.45099036       4.76968333       4.82124539
Si      -1.81663989       0.77522364       8.04556485
22
Lattice="7.209505830115125 -1.8481066705438478 -1.8668464734976082 -4.44095057900934 10.531803166535282 0.38996757876677285 -5.0308552345238 -1.5760227682339887 11.322175576953757" Properties=species:S:1:pos:R:3 unique_starting_index=18 config_type=initial n_minim_iter=3 stress="0.02713366587522628 0.017643219695397963 -0.0034766077039470695 0.017643219695397963 0.008401833698924048 0.006251956795399442 -0.0034766077039470695 0.006251956795399442 0.04583565583407406" pbc="T T T"
Si      -0.44506488       8.50868662       1.53005718
Si      -0.22585435       1.57426615       6.96746707
Si      -4.54371094      -1.29892574       9.04131913
Si       0.57814070       0.19676262      10.14147708
Si      -6.60271297       3.53231605      10.68747685
Si       4.61725482       1.65236446       0.37283635
Si       3.44598007      -0.34239550      -0.37710784
Si      -1.15783429       2.15936304       9.60059372
Si      -1.99977778      -0.55755231       9.45747641
Si      -4.38818798       3.24358551       7.26668650
Si       1.75038034       1.25842291       3.76505781
Si      -3.58621395       5.70949456       6.36269342
Si      -3.99203682      -0.21581494       7.46445037
Si      -1.64323006       6.81386796       0.51585084
Si       1.36317747       2.61923012       5.16204788
Si       0.09944542       6.70520992      -0.46955434
Si      -0.94898869      -0.69515347       3.47929845
Si       3.37437840      -3.81056185       6.07934719
Si       0.63861745       2.80048521       3.35099750
Si      -4.28514712       5.05307199       8.13870170
Si      -2.42236841       4.86512133       4.95088359
Si      -1.76160353       0.86287815       8.18782165
22
Lattice="7.068219082202869 -1.9243657189310264 -1.8267657556355499 -4.450332695606219 10.550171192494185 0.42863348684344066 -4.86603688507853 -1.462798290162462 11.15784969892567" Properties=species:S:1:pos:R:3 unique_starting_index=18 config_type=initial n_minim_iter=4 stress="-0.06271006709201768 -0.014136549317431081 -0.013356420190501785 -0.014136549317431081 -0.04312578866694045 0.005068164368779851 -0.013356420190501785 0.005068164368779851 -0.020749323109471213" pbc="T T T"
Si      -0.50918170       8.49204120       1.56445128
Si      -0.21306689       1.60582946       6.89358857
Si      -4.39805321      -1.18871302       8.91676300
Si       0.60475882       0.24841592      10.01227667
Si      -6.46888210       3.63063670      10.54886177
Si       4.49860842       1.59823632       0.39199631
Si       3.37752660      -0.37494643      -0.36358074
Si      -1.11239957       2.19745928       9.48653081
Si      -1.90931692      -0.45007564       9.32176213
Si      -4.31261722       3.32710282       7.17921764
Si       1.72581138       1.27516375       3.73890331
Si      -3.55823657       5.73820897       6.28948588
Si      -3.89145384      -0.15676167       7.36948479
Si      -1.67681010       6.81254907       0.54702135
Si       1.31814208       2.61319617       5.12127400
Si       0.03968823       6.69380898      -0.42434434
Si      -0.92239796      -0.66448871       3.41851395
Si       3.39546139      -3.80303064       5.99106917
Si       0.62889921       2.81787800       3.34205334
Si      -4.21439131       5.12735481       8.05872935
Si      -2.41295534       4.90903931       4.92121898
Si      -1.70237935       0.90959533       8.10095993
22
Lattice="7.182613653627635 -1.956858738061374 -1.7717920200195487 -4.553927844547875 10.690336942237732 0.3319589492128659 -4.920422475074953 -1.5554317943836884 10.969172619757131" Properties=species:S:1:pos:R:3 unique_starting_index=18 config_type=initial n_minim_iter=5 stress="-0.015198070049960336 -0.0032957934157354404 -0.006488538497845965 -0.0032957934157354404 -0.008978413720867258 -0.006612504790523889 -0.006488538497845965 -0.006612504790523889 -0.02453753501215339" pbc="T T T"
Si      -0.53602328       8.57569152       1.47485422
Si      -0.21733212       1.56382904       6.77162433
Si      -4.45100541      -1.25152440       8.77065636
Si       0.63458870       0.17277015       9.82473846
Si      -6.57462630       3.60119537      10.31832038
Si       4.55802937       1.59202392       0.37096687
Si       3.43360918      -0.37877727      -0.36006690
Si      -1.11856386       2.12984028       9.29665928
Si      -1.91317508      -0.48790566       9.15275645
Si      -4.39516628       3.33537203       7.02066328
Si       1.76736554       1.27631809       3.67147857
Si      -3.62870117       5.75021535       6.11311246
Si      -3.95954437      -0.23050295       7.24801088
Si      -1.72511780       6.88604947       0.48113809
Si       1.32069305       2.58107645       5.01442973
Si       0.02917837       6.79064432      -0.46813735
Si      -0.94599282      -0.69512160       3.34879967
Si       3.50143178      -3.91051232       5.91633230
Si       0.65820068       2.83900690       3.27670242
Si      -4.28614074       5.13926056       7.87723578
Si      -2.47278952       4.94456178       4.80628523
Si      -1.71462845       0.84888545       7.95963082
22
Lattice="7.245089499770184 -2.0200389589721683 -1.8546989518879329 -4.6935121863501035 10.590999839270355 0.426869455508824 -4.977242087740906 -1.4091172880934237 11.213458361834565" Properties=species:S:1:pos:R:3 unique_starting_index=18 config_type=initial n_minim_iter=6 stress="0.00020436470180958203 -0.012144543081383446 -0.006371541241013459 -0.012144543081383446 -0.014844793958851552 -0.00921737592422632 -0.006371541241013459 -0.00921737592422632 -0.002945015979128514" pbc="T T T"
Si      -0.62406617       8.44897053       1.57613423
Si      -0.30297754       1.56638213       6.95922095
Si      -4.50647490      -1.12699374       8.96615090
Si       0.61013281       0.23547520      10.01115525
Si      -6.69801298       3.68377052      10.57824601
Si       4.55169977       1.50481425       0.35529322
Si       3.45622332      -0.37680195      -0.42473602
Si      -1.18348207       2.13472004       9.51131484
Si      -1.93813662      -0.34189451       9.34822708
Si      -4.51894571       3.39929700       7.20767151
Si       1.77039665       1.31336196       3.75592697
Si      -3.70950967       5.74037331       6.26826600
Si      -4.05803279      -0.19508022       7.43500734
Si      -1.81021948       6.77370839       0.53238123
Si       1.23990549       2.52507339       5.14715532
Si      -0.01816821       6.72021123      -0.42771154
Si      -0.99541245      -0.64727351       3.38584025
Si       3.56778497      -3.86404626       6.00101974
Si       0.66656947       2.84770347       3.38766845
Si      -4.41268825       5.16584006       8.10346877
Si      -2.58943644       4.94837823       4.97655075
Si      -1.74696782       0.88230548       8.13750162
22
Lattice="7.158645706911828 -1.941337039746582 -2.010646849609435 -4.480678065908707 10.479258901636245 0.7579797789220867 -5.061644468287045 -1.1931628196896447 11.441850757262516" Properties=species:S:1:pos:R:3 unique_starting_index=18 config_type=initial n_minim_iter=7 stress="0.03216537379843001 0.045476230558326426 -0.005583181992097379 0.045476230558326426 -0.010539888829038918 0.03034104047650866 -0.005583181992097379 0.03034104047650866 0.008716216732161795" pbc="T T T"
Si      -0.46860939       8.40654668       1.86190961
Si      -0.38414301       1.70839428       7.17805986
Si      -4.57053539      -0.96369091       9.14154624
Si       0.55273598       0.52370484      10.17959032
Si      -6.68005414       3.82996884      10.93014644
Si       4.51944922       1.54932231       0.33048419
Si       3.42436453      -0.25456245      -0.55710712
Si      -1.21652935       2.29038639       9.76998255
Si      -1.98295565      -0.02570596       9.53684989
Si      -4.55945685       3.52124960       7.47885399
Si       1.78580774       1.53577090       3.86472088
Si      -3.59937141       5.81266373       6.56778549
Si      -4.19231442      -0.18538483       7.64205654
Si      -1.66331976       6.64249839       0.69340974
Si       1.15210966       2.59844628       5.34036276
Si       0.11637925       6.74009850      -0.22172864
Si      -1.09989302      -0.56054759       3.37917862
Si       3.46388910      -3.64255015       5.99261980
Si       0.77191060       3.00420119       3.57449517
Si      -4.38874055       5.29131846       8.42014908
Si      -2.58685287       5.04555843       5.28314050
Si      -1.78780448       0.99981514       8.34604262
22
Lattice="7.117779479689354 -2.020712811961416 -2.115544812509381 -4.533893834211109 10.591705846807818 0.8084264627703267 -5.075613118632907 -1.1480345153574505 11.815726298826418" Properties=species:S:1:pos:R:3 unique_starting_index=18 config_type=initial n_minim_iter=8 stress="0.037013553081395936 0.029632060903699825 -0.011884482455587592 0.029632060903699825 0.03192470881603365 0.006432413784081163 -0.011884482455587592 0.006432413784081163 0.06432903079904585" pbc="T T T"
Si      -0.52934315       8.44280208       1.93892015
Si      -0.46735886       1.71021590       7.41590172
Si      -4.57439488      -0.92535410       9.43157390
Si       0.50914091       0.54476945      10.46144466
Si      -6.71839600       3.92214554      11.29164067
Si       4.45599044       1.49550884       0.28800444
Si       3.40097527      -0.23696326      -0.65287860
Si      -1.27570414       2.27942363      10.07451013
Si      -2.00746251       0.07259888       9.82083184
Si      -4.64528862       3.60889574       7.73208248
Si       1.76440488       1.60646169       3.98040012
Si      -3.63318641       5.89101555       6.79578212
Si      -4.26908167      -0.23388568       7.91835062
Si      -1.69288205       6.63831309       0.69131183
Si       1.03837640       2.56024908       5.52060501
Si       0.07404799       6.82881041      -0.20147689
Si      -1.15715293      -0.54108702       3.43808818
Si       3.45808664      -3.69655049       6.15946320
Si       0.78557903       3.07085755       3.71279547
Si      -4.46025018       5.37833865       8.67326462
Si      -2.67819269       5.13096357       5.49834955
Si      -1.83281512       0.97938154       8.61858347
22
Lattice="7.215584087385589 -2.0574820007302828 -2.1112727306855152 -4.680943618156585 10.410598145611328 0.8817896752015977 -5.058863084616112 -0.9734743431984022 11.90858784584138" Properties=species:S:1:pos:R:3 unique_starting_index=18 config_type=initial n_minim_iter=9 stress="0.0585028668761906 0.031148295396857793 0.002923151676763595 0.031148295396857793 0.001116575524846863 0.02082039134415286 0.002923151676763595 0.02082039134415286 0.05240212193282918" pbc="T T T"
Si      -0.57487319       8.25875676       2.05015643
Si      -0.46866110       1.72693903       7.52809701
Si      -4.56224290      -0.78226882       9.48872372
Si       0.61148828       0.64091613      10.57732823
Si      -6.76337323       3.99038699      11.40667818
Si       4.50456441       1.40631720       0.30955073
Si       3.44885707      -0.22123961      -0.69467775
Si      -1.23690735       2.29412089      10.20526816
Si      -1.96153736       0.23625320       9.90184104
Si      -4.74219869       3.65702089       7.82572670
Si       1.83038637       1.65985136       4.06169034
Si      -3.67875148       5.86568779       6.93239330
Si      -4.34021265      -0.21104217       8.00040607
Si      -1.76462392       6.46019374       0.72794322
Si       1.02336208       2.50086797       5.63631380
Si       0.04127006       6.72123118      -0.12015515
Si      -1.19880423      -0.47614234       3.41759245
Si       3.60789576      -3.58621150       6.23042716
Si       0.85867615       3.07741011       3.82053982
Si      -4.51931406       5.38124501       8.75103969
Si      -2.75958811       5.11689595       5.62847542
Si      -1.81113672       1.00713598       8.72703570
22
Lattice="7.160860602959596 -2.0710850072790943 -2.178131810038717 -4.627580788692117 10.51100364749096 0.9441239697844048 -5.104460447166856 -0.97078443937402 11.969475022644314" Properties=species:S:1:pos:R:3 unique_starting_index=18 config_type=initial n_minim_iter=10 stress="0.04311349083435781 0.023865250531615197 -0.004709914834544949 0.023865250531615197 0.029259696222832438 0.027046784135972068 -0.004709914834544949 0.027046784135972068 0.03525930051045288" pbc="T T T"
Si      -0.55959965       8.32376284       2.09430647
Si      -0.55069566       1.73399588       7.56504440
Si      -4.56408993      -0.76922325       9.51826634
Si       0.56084016       0.69049059      10.59891550
Si      -6.76435497       4.01835563      11.47684634
Si       4.47254005       1.40306985       0.24698168
Si       3.43464355      -0.17620076      -0.76845551
Si      -1.29538755       2.29452075      10.24031587
Si      -2.00889868       0.30226890       9.91016953
Si      -4.82124584       3.68505913       7.88261066
Si       1.80358524       1.74024231       4.05767895
Si      -3.68336741       5.96912838       7.02072927
Si      -4.41689304      -0.29854916       8.08886926
Si      -1.75246345       6.47949651       0.76087501
Si       0.94639470       2.49299309       5.65102341
Si       0.08744695       6.83105263      -0.07685263
Si      -1.25433179      -0.46308275       3.38484175
Si       3.53998372      -3.58553504       6.21952974
Si       0.88335134       3.15142283       3.85006543
Si      -4.54061236       5.45527083       8.78246746
Si      -2.80366524       5.19917277       5.70877969
Si      -1.85720192       0.98874759       8.75861266
22
Lattice="7.075845664649028 -1.964159465125604 -2.057707773884125 -4.518731128325186 10.31725515969126 0.7041282815138487 -4.929045638189149 -1.1585810882461431 12.025836617479902" Properties=species:S:1:pos:R:3 unique_starting_index=18 config_type=initial n_minim_iter=11 stress="0.03429994518080304 0.01800740370918688 0.01160220339227992 0.01800740370918688 0.00023633301774555543 0.015170693773616906 0.01160220339227992 0.015170693773616906 0.03721314907667257" pbc="T T T"
Si      -0.47231279       8.15814658       1.97750495
Si      -0.45935265       1.58363777       7.60608894
Si      -4.38560076      -0.90851287       9.53382007
Si       0.72177683       0.55511357      10.71338093
Si      -6.53314613       3.74068694      11.40610727
Si       4.47021864       1.38928735       0.26475359
Si       3.41606803      -0.10647421      -0.75323258
Si      -1.14798669       2.07426351      10.28004322
Si      -1.86143766       0.17943557       9.95192869
Si      -4.72729753       3.47960920       7.81781670
Si       1.86330559       1.70560105       4.09003604
Si      -3.53739133       5.77983816       6.94449609
Si      -4.32066009      -0.49777014       8.14222121
Si      -1.68591517       6.33244282       0.63111513
Si       1.01829098       2.35460416       5.67535203
Si       0.14599554       6.76414440      -0.15791272
Si      -1.22981673      -0.50068436       3.36931551
Si       3.57692480      -3.57385549       6.41055627
Si       0.98253229       3.07647977       3.85716614
Si      -4.37705807       5.22774600       8.69113323
Si      -2.70641574       5.04643100       5.66231682
Si      -1.73450360       0.80640851       8.79146666
22
Lattice="7.1652325760946916 -2.018988821690666 -2.066388647774139 -4.667972713980148 10.343612110113604 0.6224710580777222 -4.984507164145473 -1.2024419852802413 12.097357634452557" Properties=species:S:1:pos:R:3 unique_starting_index=18 config_type=initial n_minim_iter=12 stress="0.0380578790824059 8.381027226527701e-05 -0.0009174301711002293 8.381027226527701e-05 0.008012018258690549 0.00023586314742585608 -0.0009174301711002293 0.00023586314742585608 0.03441881164790025" pbc="T T T"
Si      -0.57258293       8.12081601       1.93588710
Si      -0.50570843       1.50057343       7.63890276
Si      -4.34442972      -0.92309240       9.54593733
Si       0.75103223       0.50351892      10.79258427
Si      -6.60111749       3.68358297      11.39640800
Si       4.52236092       1.29223336       0.17726962
Si       3.49069320      -0.06656896      -0.79195831
Si      -1.21684232       1.96415909      10.30946466
Si      -1.89197235       0.11475094       9.95997006
Si      -4.93190728       3.44374601       7.79784159
Si       1.84432670       1.68791665       4.05526926
Si      -3.69095897       5.75128349       6.97365880
Si      -4.36342111      -0.56171200       8.24561802
Si      -1.76566530       6.29078136       0.59545817
Si       1.01723742       2.26983808       5.65253068
Si       0.09849649       6.78936631      -0.14428672
Si      -1.25865600      -0.48812064       3.32985929
Si       3.60179753      -3.58939933       6.51221682
Si       0.97923738       3.02937077       3.83808656
Si      -4.51087825       5.19869414       8.67510020
Si      -2.83231798       5.06272330       5.70229835
Si      -1.79430353       0.69398542       8.79309461
22
Lattice="7.0794316072161365 -1.9578586530865119 -1.8766988335209562 -4.579961158694104 10.374573674699016 0.3177848829207819 -4.761549390055781 -1.4574853713766462 11.936867375767774" Properties=species:S:1:pos:R:3 unique_starting_index=18 config_type=initial n_minim_iter=13 stress="0.0681102953403592 0.041691810338860866 0.023513128024747858 0.041691810338860866 0.04385022149767276 -0.011039977925128331 0.023513128024747858 -0.011039977925128331 0.025481509869024737" pbc="T T T"
Si      -0.51978736       8.13725197       1.75891910
Si      -0.35564559       1.35892524       7.54232496
Si      -4.11924673      -1.12957518       9.40323783
Si       0.94100470       0.34890686      10.75440728
Si      -6.32926150       3.44371330      11.09962093
Si       4.55390540       1.31791636       0.22221278
Si       3.48236367      -0.03274858      -0.73094462
Si      -1.03861315       1.77599267      10.15575192
Si      -1.69703769      -0.11488420       9.81396501
Si      -4.83146858       3.29214968       7.55056037
Si       1.86084317       1.61397920       3.97857561
Si      -3.53950228       5.66053227       6.78907413
Si      -4.14812270      -0.70268463       8.12171671
Si      -1.72322190       6.29234189       0.45163418
Si       1.16175333       2.20323846       5.54388415
Si       0.13448376       6.83906601      -0.22345086
Si      -1.17849523      -0.53334441       3.26388296
Si       3.61541594      -3.68240933       6.62642535
Si       1.02346285       2.94270898       3.73554580
Si      -4.33416134       5.02768775       8.39945265
Si      -2.72126800       5.01314820       5.54804861
Si      -1.65769646       0.49816693       8.66116301
22
Lattice="7.212592561301236 -2.162781513716431 -1.8594765133260134 -4.9258337023735645 10.501481924181002 0.349634261862779 -4.737780618770497 -1.2780122858803333 11.90257917051322" Properties=species:S:1:pos:R:3 unique_starting_index=18 config_type=initial n_minim_iter=14 stress="0.00807820308506765 -0.025635515963903115 0.017433909892909393 -0.025635515963903115 0.02217542886113796 -0.003451111340698955 0.017433909892909393 -0.003451111340698955 0.020048667969594414" pbc="T T T"
Si      -0.77743170       8.15687358       1.81913745
Si      -0.34225623       1.38873960       7.54316749
Si      -4.07013380      -0.97188260       9.38613449
Si       0.99721487       0.41525705      10.79586065
Si      -6.44027142       3.62558118      11.06173105
Si       4.64123314       1.18557759       0.22786594
Si       3.55447654      -0.12086493      -0.75616110
Si      -1.07413021       1.81791779      10.12840289
Si      -1.61931888      -0.04178979       9.77234347
Si      -5.06018947       3.44740035       7.49799484
Si       1.80120570       1.57739559       3.94672929
Si      -3.73724122       5.79659966       6.82698319
Si      -4.11055036      -0.53860351       8.11735078
Si      -1.91628461       6.30002509       0.49628720
Si       1.16022487       2.20543311       5.50368911
Si      -0.05911732       6.84403007      -0.09756178
Si      -1.15018145      -0.44880923       3.20683954
Si       3.75143194      -3.73952400       6.62516836
Si       0.95504704       2.88703936       3.73068910
Si      -4.51866169       5.16299537       8.37329473
Si      -2.93738339       5.17445671       5.64845767
Si      -1.69744981       0.52683743       8.64810752
22
Lattice="7.1347589820386075 -2.146246547117037 -1.7853378503835984 -4.905951505179115 10.472313029391806 0.14032809570148083 -4.62168904983348 -1.444646474812276 11.906926038404572" Properties=species:S:1:pos:R:3 unique_starting_index=18 config_type=initial n_minim_iter=15 stress="-0.04284064593229499 -0.027845510090599192 0.012999114681832551 -0.027845510090599192 0.01434435762045761 -0.016183503889970148 0.012999114681832551 -0.016183503889970148 0.02062023153336108" pbc="T T T"
Si      -0.82090495       8.09764404       1.71894999
Si      -0.27808338       1.23699761       7.54422175
Si      -3.92733261      -1.08884371       9.42764552
Si       1.07403528       0.33197898      10.84992643
Si      -6.31053492       3.40706129      10.95566340
Si       4.70597380       1.13685750       0.20924941
Si       3.57835823      -0.09887888      -0.79427933
Si      -1.00164975       1.61232095      10.04451980
Si      -1.44751157      -0.19258355       9.70995813
Si      -5.15017993       3.31567154       7.33356511
Si       1.73079754       1.52975302       3.86244624
Si      -3.72216417       5.66188214       6.72116546
Si      -3.96793986      -0.64051544       8.15163329
Si      -1.91499178       6.18647671       0.41153520
Si       1.15907284       2.13411598       5.39907811
Si      -0.06758482       6.83981577      -0.06979063
Si      -1.10860016      -0.40887000       3.12417998
Si       3.75760855      -3.82855389       6.72700702
Si       0.96759836       2.76191247       3.66177670
Si      -4.44401773       5.01974228       8.19530617
Si      -3.05343463       5.20940916       5.75185419
Si      -1.65343114       0.31999863       8.63130265
22
Lattice="7.2568850950391735 -2.213972714805398 -1.7887080839892553 -5.083453722777284 10.457738357785628 0.15575122396913477 -4.687568846714444 -1.3734305490602687 11.8473430924583" Properties=species:S:1:pos:R:3 unique_starting_index=18 config_type=initial n_minim_iter=16 stress="-0.009740878821543928 -0.021429135124977038 0.03165183892486518 -0.021429135124977038 0.03643430133214544 -0.013894935247250481 0.03165183892486518 -0.013894935247250481 0.023384167607136172" pbc="T T T"
Si      -0.95781041       8.06147501       1.73836650
Si      -0.27545153       1.22105977       7.50383264
Si      -3.96566443      -1.03382943       9.40047724
Si       1.07664958       0.38091924      10.81689337
Si      -6.43369243       3.43816034      10.91093845
Si       4.84201966       1.04617588       0.18584812
Si       3.67932394      -0.14517778      -0.80902466
Si      -1.04488113       1.59026491       9.94237609
Si      -1.42179337      -0.17296604       9.64162424
Si      -5.35522497       3.35179963       7.23973391
Si       1.68433329       1.49373577       3.79804768
Si      -3.85118332       5.68864960       6.71742725
Si      -3.99564944      -0.57530662       8.14397228
Si      -1.98526300       6.11864871       0.43359986
Si       1.11285776       2.14612293       5.31190869
Si      -0.15741691       6.79278502       0.02792273
Si      -1.09775485      -0.33033257       3.06459979
Si       3.84675666      -3.85134133       6.69018899
Si       0.93680343       2.69105743       3.61156752
Si      -4.55802194       5.03432899       8.11886403
Si      -3.29509246       5.29291393       5.86780881
Si      -1.68815125       0.32561706       8.57722503
22
Lattice="7.2721643818496355 -2.1931652217803377 -2.0035221991643373 -5.068092600708589 10.323546819350799 0.30973139768274 -4.9332474877147545 -1.3137418810612453 12.175998822782159" Properties=species:S:1:pos:R:3 unique_starting_index=18 config_type=initial n_minim_iter=17 stress="-0.007068222412213561 0.008141784731635635 0.03533832939542743 0.008141784731635635 0.05807283607996569 -0.012273869243646424 0.03533832939542743 -0.012273869243646424 0.05266471062837292" pbc="T T T"
Si      -1.02011935       7.97413268       1.83634950
Si      -0.39015747       1.20059724       7.66401720
Si      -4.13672692      -1.00580510       9.68999927
Si       0.82795332       0.50110120      11.03456669
Si      -6.64110389       3.41879290      11.27759880
Si       4.98199281       0.97537975       0.04380444
Si       3.77079066      -0.16526420      -0.95047571
Si      -1.24098201       1.54344580      10.05918333
Si      -1.53540181      -0.13234606       9.87873660
Si      -5.61806182       3.36895888       7.36975602
Si       1.53274094       1.46767470       3.80384382
Si      -4.08361195       5.69164959       7.05662757
Si      -4.12578224      -0.52837676       8.44740981
Si      -1.96692785       5.93343943       0.53076983
Si       0.90902354       2.20676655       5.28520039
Si      -0.16516382       6.70387954       0.20012957
Si      -1.15324092      -0.19808089       3.08256332
Si       3.71933921      -3.82537500       6.72506979
Si       0.85968586       2.59906402       3.63186493
Si      -4.69004218       4.97268374       8.31845196
Si      -3.63876315       5.31989671       6.24835132
Si      -1.80710047       0.35197358       8.72829423
22
Lattice="7.575613667421371 -2.2544244567154146 -2.3943890470944047 -5.311359576030971 10.109219478978197 0.7697619628407111 -5.545189339488436 -0.970563793287208 12.4873761400483" Properties=species:S:1:pos:R:3 unique_starting_index=18 config_type=initial n_minim_iter=18 stress="0.1187099542436682 0.09404391879089952 0.00012749725187784214 0.09404391879089952 0.09059252794157434 0.0008284117566026394 0.00012749725187784214 0.0008284117566026394 0.046507009510415635" pbc="T T T"
Si      -1.23288810       7.82202480       2.10438832
Si      -0.68163323       1.29367764       7.81478088
Si      -4.56687087      -0.74844397       9.95919109
Si       0.41731614       0.81828556      11.16957735
Si      -7.28578247       3.63398036      11.78929758
Si       5.32715546       0.82027641      -0.19850708
Si       4.02717219      -0.24220363      -1.19048486
Si      -1.64992364       1.63300015      10.11981299
Si      -1.91932968       0.14071859      10.02236784
Si      -6.25051558       3.53272812       7.55306671
Si       1.33233515       1.45684961       3.80037209
Si      -4.61884039       5.81256590       7.58725621
Si      -4.55601611      -0.29460090       8.80473061
Si      -2.05065231       5.66923640       0.76937499
Si       0.57367089       2.32667302       5.23883615
Si      -0.25212091       6.54886468       0.56922509
Si      -1.30402362       0.00969085       3.06644258
Si       3.59488275      -3.66864365       6.58140462
Si       0.72290404       2.53311414       3.66549536
Si      -5.16628313       5.04622926       8.61952462
Si      -4.26663361       5.43567778       6.79433062