8
Lattice="3.4612533204753793 -0.12332095107245274 0.19134023728021657 -0.3700756382229078 6.717373683197837 -0.0293768378696817 -0.38429278638464254 -1.1189512405719846 9.702095995857047" Properties=species:S:1:pos:R:3 unique_starting_index=25 config_type=initial n_minim_iter=1 energy=-1313.0681235593286 free_energy=-1313.0681235593286 pbc="T T T"
Si       0.77039922       5.93359055       3.98175159
Si       1.93648568      -0.45848906       5.88230780
Si       1.86959171       1.00281311       7.16708300
Si       0.83729318       4.47228838       2.69697640
Si      -0.38962812       6.02545577       2.29948760
Si       3.09651302      -0.55035427       7.56457180
Si       0.38458357       5.86541674       8.99659483
Si       2.32230133      -0.39031525       0.86746457
8
Lattice="3.457650524047394 -0.12198793315910923 0.18869713873567792 -0.36724874543205865 6.714783823549285 -0.028010912411575207 -0.390929539752064 -1.1171327394204544 9.688743314319705" Properties=species:S:1:pos:R:3 unique_starting_index=25 config_type=initial n_minim_iter=2 stress="-0.005699418811456489 -0.00020809150229965387 -0.009039345626671037 -0.00020809150229965387 -8.999106152493983e-05 0.002882127394428756 -0.009039345626671037 0.002882127394428756 -0.013272579792323505" pbc="T T T"
Si       0.76913196       5.93234260       3.97660833
Si       1.93034028      -0.45667945       5.87282121
Si       1.86328952       1.00412723       7.15586938
Si       0.83618272       4.47153592       2.69356016
Si      -0.38880880       6.02363050       2.29734849
Si       3.08828104      -0.54796734       7.55208106
Si       0.38033008       5.86495348       8.98466695
Si       2.31914215      -0.38929032       0.86476259
8
Lattice="3.4513738477404843 -0.11519488396694978 0.19429182868754127 -0.3535681248059852 6.702097411755363 -0.0338991322113673 -0.37718804684707546 -1.1235327233254881 9.69260643035437" Properties=species:S:1:pos:R:3 unique_starting_index=25 config_type=initial n_minim_iter=3 stress="-0.012056318701415115 0.0010122936530624993 0.00034031008235216667 0.0010122936530624993 -0.007193307630870669 0.002641852746180603 0.00034031008235216667 0.002641852746180603 -0.0061436931618485445" pbc="T T T"
Si       0.78660896       5.91982080       3.97407957
Si       1.93400872      -0.45645099       5.87891955
Si       1.87367361       0.99879394       7.15819766
Si       0.84694407       4.46457586       2.69480147
Si      -0.37530714       6.01223228       2.29083095
Si       3.09592481      -0.54886248       7.56216818
Si       0.40704109       5.84956299       8.98269814
Si       2.31357659      -0.38619319       0.87030098
8
Lattice="3.458666450594475 -0.10872859857619042 0.19191229787111805 -0.34089654823444016 6.710634453010258 -0.044347518384583694 -0.3874180688560778 -1.1413321724536856 9.693072947573791" Properties=species:S:1:pos:R:3 unique_starting_index=25 config_type=initial n_minim_iter=4 stress="0.0029470538622425884 0.0031073979699997117 -0.0031717712182215527 0.0031073979699997117 -0.0031018014274951213 0.0007129828906006234 -0.0031717712182215527 0.0007129828906006234 -0.0035055442487885525" pbc="T T T"
Si       0.79836302       5.92322858       3.96313561
Si       1.93198881      -0.46265490       5.87750212
Si       1.87543264       0.99047895       7.15010608
Si       0.85491920       4.47009473       2.69053165
Si      -0.36856870       6.01917843       2.27964051
Si       3.09892054      -0.55860475       7.56099722
Si       0.41619001       5.84616235       8.97044727
Si       2.31416183      -0.38558867       0.87019045
8
Lattice="3.451835104716327 -0.1102831815750736 0.19350297292370813 -0.3418927668203124 6.731288887098031 -0.05462261747766188 -0.3824191258856342 -1.159274471241837 9.694548603053274" Properties=species:S:1:pos:R:3 unique_starting_index=25 config_type=initial n_minim_iter=5 stress="-0.0003841188915332027 -0.0015131996475459693 0.0015388594882543743 -0.0015131996475459693 0.006502681432452715 -0.0016613639943853435 0.0015388594882543743 -0.0016613639943853435 -0.001610626990198085" pbc="T T T"
Si       0.79732343       5.93608665       3.95406772
Si       1.93019978      -0.47435542       5.87936124
Si       1.87524987       0.97954236       7.14425027
Si       0.85227335       4.48218887       2.68917869
Si      -0.36965191       6.03780426       2.27168580
Si       3.09717512      -0.57607303       7.56174316
Si       0.42143527       5.85282099       8.96206480
Si       2.30608794      -0.39108976       0.87136416
8
Lattice="3.4490143245080933 -0.1059463513366663 0.19109060646705203 -0.33357414475643615 6.715402570002727 -0.057262391184818795 -0.3916746558014372 -1.1613213478202777 9.71863973999276" Properties=species:S:1:pos:R:3 unique_starting_index=25 config_type=initial n_minim_iter=6 stress="0.0016479358776527822 0.001023478104879645 0.001855566280775289 0.001023478104879645 -0.001248020391061363 -0.0040615788341825726 0.001855566280775289 -0.0040615788341825726 0.008500760627733282" pbc="T T T"
Si       0.79985841       5.92448294       3.96006995
Si       1.92390712      -0.47634807       5.89239800
Si       1.87147149       0.97154132       7.15158906
Si       0.85229403       4.47659355       2.70087890
Si      -0.36396510       6.02703845       2.27849588
Si       3.08773062      -0.57890358       7.57397208
Si       0.42485718       5.83969536       8.98178644
Si       2.29890835      -0.39156049       0.87068151
8
Lattice="3.4555054950502178 -0.10981835524586148 0.19988872570783245 -0.34581189019120867 6.6959142534944025 0.0017123299219573519 -0.36283200101492025 -1.070640221409524 9.711058580387709" Properties=species:S:1:pos:R:3 unique_starting_index=25 config_type=initial n_minim_iter=7 stress="0.013431311229261812 -0.005425773684419723 0.01271417381008679 -0.005425773684419723 0.003830144583006684 -0.001435500214408098 0.01271417381008679 -0.001435500214408098 0.01922365092940223" pbc="T T T"
Si       0.79857171       5.95741326       4.02166702
Si       1.94828990      -0.44195758       5.89099262
Si       1.90281123       1.01144593       7.13683893
Si       0.84405038       4.50400975       2.77582071
Si      -0.37070212       6.05138465       2.34105387
Si       3.11756373      -0.53592897       7.57160576
Si       0.44421069       5.91875241       9.03596499
Si       2.30265091      -0.40329673       0.87669465
8
Lattice="3.4373168476442286 -0.09538485100513903 0.20055748089401187 -0.316413986871578 6.6877287136334385 0.006435496881187258 -0.3656664185857038 -1.064111320365646 9.752573596559222" Properties=species:S:1:pos:R:3 unique_starting_index=25 config_type=initial n_minim_iter=8 stress="0.004938886521734009 -0.006865057964624597 0.0025441552638618635 -0.006865057964624597 0.00541526914477536 0.0004078165205420126 0.0025441552638618635 0.0004078165205420126 0.022442318915429613" pbc="T T T"
Si       0.81149470       5.97544629       4.05661211
Si       1.94374174      -0.44721375       5.90295447
Si       1.90432350       1.01257110       7.14061528
Si       0.85091294       4.51566144       2.81895130
Si      -0.34942383       6.06573242       2.35893900
Si       3.10466027      -0.53749988       7.60062758
Si       0.46271180       5.92926141       9.08528048
Si       2.29252464      -0.40102886       0.87428609
8
Lattice="3.422637781046535 -0.034273520289859846 0.23829349676106948 -0.19614439167961353 6.654816343899834 -0.022365949770077262 -0.27606732766624725 -1.1024341425307576 9.692616268889935" Properties=species:S:1:pos:R:3 unique_starting_index=25 config_type=initial n_minim_iter=9 stress="0.0011695953804719873 -0.013746489512412112 0.009455345095301102 -0.013746489512412112 -0.009195184940927168 -0.010347704819489824 0.009455345095301102 -0.010347704819489824 -0.006005529912258875" pbc="T T T"
Si       0.92804412       5.99810098       4.04394448
Si       2.02238195      -0.47999230       5.86459934
Si       2.00926202       0.99025338       7.04147814
Si       0.94116404       4.52785530       2.86706568
Si      -0.22529344       6.07919162       2.32834330
Si       3.17571951      -0.56108294       7.58020052
Si       0.65719171       5.89737919       9.02857455
Si       2.29323435      -0.37927051       0.87996926
8
Lattice="3.4041733278546435 0.02228062451901568 0.2636465663043477 -0.08433611981703515 6.66082190031172 -0.023789414146985093 -0.2210196431032481 -1.1088893296875062 9.684579796016974" Properties=species:S:1:pos:R:3 unique_starting_index=25 config_type=initial n_minim_iter=10 stress="-0.005732488137871215 -0.01735852750966155 0.03128712808189359 -0.01735852750966155 -0.0026633981727153897 -0.010308875418872146 0.03128712808189359 -0.010308875418872146 0.01336048289131926" pbc="T T T"
Si       1.02502897       6.05908386       4.06556995
Si       2.07378860      -0.48487066       5.85886700
Si       2.07865885       1.00473506       6.99622252
Si       1.02015871       4.56947814       2.92821443
Si      -0.11319971       6.12454962       2.33164029
Si       3.21201728      -0.55033642       7.59279666
Si       0.81236023       5.92907085       9.03899300
Si       2.28645734      -0.35485765       0.88544395
8
Lattice="3.3951257758731974 0.05590975355002304 0.2717186922262486 -0.015508900073218099 6.6599939043748435 -0.07249835731073466 -0.210408035951435 -1.1824935733651905 9.675996593919917" Properties=species:S:1:pos:R:3 unique_starting_index=25 config_type=initial n_minim_iter=11 stress="-0.008587056622516595 -0.018248773186649022 0.031060704484665334 -0.018248773186649022 -0.007057964259638533 -0.01906619937784397 0.031060704484665334 -0.01906619937784397 0.004510091167131606" pbc="T T T"
Si       1.06537365       6.06306667       4.02434867
Si       2.10383519      -0.52965658       5.85086826
Si       2.10060910       0.96992050       6.95980922
Si       1.06859974       4.56348958       2.91540771
Si      -0.04916659       6.12352913       2.27989724
Si       3.21837543      -0.59011904       7.59531969
Si       0.88253698       5.87020607       8.98465306
Si       2.28667186      -0.33679598       0.89056387
8
Lattice="3.4084119011810703 0.12750023398293628 0.2874394429432131 0.12192266772498786 6.716382510585476 -0.03701320142258091 -0.18643082707355635 -1.1474351888409804 9.616649186868786" Properties=species:S:1:pos:R:3 unique_starting_index=25 config_type=initial n_minim_iter=12 stress="-0.012011971867186659 0.0029192129289579614 0.016055725448694578 0.0029192129289579614 0.0002451217250234363 0.006391203307116724 0.016055725448694578 0.006391203307116724 -0.01740224467566905" pbc="T T T"
Si       1.18617066       6.17838335       4.04974543
Si       2.15773308      -0.48193579       5.81733000
Si       2.15518742       1.06080186       6.94581131
Si       1.18871632       4.63564570       2.92126412
Si       0.08864229       6.18178598       2.29267542
Si       3.25526145      -0.48533842       7.57440001
Si       1.05446236       5.96887636       8.97302119
Si       2.28944139      -0.27242881       0.89405424
8
Lattice="3.4012809481519 0.12385641732092216 0.2650706941804432 0.11876608691459561 6.737689889929616 -0.07687617569394647 -0.25362137495234566 -1.211751101768439 9.692043086153776" Properties=species:S:1:pos:R:3 unique_starting_index=25 config_type=initial n_minim_iter=13 stress="-0.006938628910894352 0.002460081658692923 -0.013864961205133173 0.002460081658692923 0.008566344998465255 0.0019352490060956361 -0.013864961205133173 0.0019352490060956361 -0.021006984691583887" pbc="T T T"
Si       1.15296708       6.16817011       4.03237648
Si       2.11345858      -0.51837491       5.84786112
Si       2.08699362       1.02590349       7.00823849
Si       1.17943204       4.62389171       2.87199911
Si       0.08075639       6.16743755       2.27615689
Si       3.18566927      -0.51764234       7.60408071
Si       0.99233891       5.92723345       8.96744980
Si       2.27408675      -0.27743825       0.91278780
8
Lattice="3.4009461965273333 0.12587910954756273 0.2672236686488529 0.1211396373192348 6.692855461293516 -0.07738139210466306 -0.24882598838875203 -1.2048152536307197 9.707779459186527" Properties=species:S:1:pos:R:3 unique_starting_index=25 config_type=initial n_minim_iter=14 stress="0.002623167809398403 0.001944104720534486 0.0008235513323833781 0.001944104720534486 -0.004962060275218416 -0.00167756125373267 0.0008235513323833781 -0.00167756125373267 0.0023985686256482418" pbc="T T T"
Si       1.14556432       6.14491602       4.04979969
Si       2.12769553      -0.53099671       5.84782205
Si       2.08466405       1.01097894       7.00903763
Si       1.18859580       4.60294037       2.88858410
Si       0.08475130       6.13930452       2.28061655
Si       3.18850855      -0.52538520       7.61700519
Si       1.00823465       5.89310751       8.98108228
Si       2.26502520      -0.27918819       0.91653945
8
Lattice="3.405767514164452 0.10938033263825994 0.26171903891831444 0.08784561763144605 6.679887459446732 -0.07116828977992808 -0.25920329647640333 -1.1923332548198158 9.71122811841493" Properties=species:S:1:pos:R:3 unique_starting_index=25 config_type=initial n_minim_iter=15 stress="0.004795469463628406 0.0023739003263569115 -0.008009440977234805 0.0023739003263569115 -0.0061306715291026374 0.0028330522243095167 -0.008009440977234805 0.0028330522243095167 0.0013278165839851394" pbc="T T T"
Si       1.11074816       6.13424660       4.05282211
Si       2.12366168      -0.53731207       5.84895676
Si       2.05818942       0.99754760       7.01760847
Si       1.17622042       4.59938694       2.88417040
Si       0.04819018       6.12607422       2.28617499
Si       3.18621965      -0.52913968       7.61560387
Si       0.96780416       5.88006004       8.99302791
Si       2.26660567      -0.28312550       0.90875096
8
Lattice="3.4053522045441915 0.1135353812443889 0.2669805156537175 0.09828785804022866 6.701489574889012 -0.10027404068091032 -0.24668957457116364 -1.2379322636384014 9.698795717369839" Properties=species:S:1:pos:R:3 unique_starting_index=25 config_type=initial n_minim_iter=16 stress="-5.904778439339752e-05 0.001901336706228899 -0.00042053527506208274 0.001901336706228899 0.0008605864432431566 0.003793623971658174 -0.00042053527506208274 0.003793623971658174 0.005379219264656528" pbc="T T T"
Si       1.12003740       6.15766522       4.02713942
Si       2.13691309      -0.58057253       5.83836277
Si       2.03974418       0.94505796       7.01293771
Si       1.21720631       4.63203473       2.85256448
Si       0.05844527       6.13310428       2.25694674
Si       3.19850522      -0.55601159       7.60855545
Si       0.98871336       5.85173299       8.95517695
Si       2.26823712      -0.27464029       0.91032525
8
Lattice="3.408542212424015 0.11102788627238644 0.26827191453237886 0.09484204485010764 6.702763710494267 -0.1315183951227359 -0.24388166413566711 -1.282946332298729 9.692728391379442" Properties=species:S:1:pos:R:3 unique_starting_index=25 config_type=initial n_minim_iter=17 stress="-0.00024245524232716445 -0.0005817845362384742 0.003873324133838849 -0.0005817845362384742 0.001161189818565875 0.0010663286598509996 0.003873324133838849 0.0010663286598509996 0.00935231692925832" pbc="T T T"
Si       1.11683407       6.15886783       3.99517002
Si       2.14266853      -0.62802257       5.83431190
Si       2.01201835       0.88764692       7.01550134
Si       1.24748424       4.64319835       2.81398057
Si       0.05703604       6.12379445       2.22577408
Si       3.20246655      -0.59294919       7.60370783
Si       0.98630138       5.80050667       8.91518889
Si       2.27320122      -0.26966141       0.91429302
8
Lattice="3.419655412607997 0.1315150871868167 0.2753586535180023 0.1369059537713038 6.715600412497097 -0.1875000153315802 -0.23339027885047325 -1.3678883810626494 9.665409746456753" Properties=species:S:1:pos:R:3 unique_starting_index=25 config_type=initial n_minim_iter=18 stress="0.005027630273271199 -0.004136709209202641 0.009390076328932514 -0.004136709209202641 0.008121696233732729 -0.0025300667160977138 0.009390076328932514 -0.0025300667160977138 0.010533458853959263" pbc="T T T"
Si       1.17241602       6.18883022       3.93326734
Si       2.15075507      -0.70960310       5.82000105
Si       1.97484185       0.79486393       7.01388983
Si       1.34832924       4.68436318       2.73937856
Si       0.11246822       6.13685429       2.16377712
Si       3.21070287      -0.65762718       7.58949126
Si       1.03316401       5.72228174       8.82746610
Si       2.29000708      -0.24305462       0.92580229
8
Lattice="3.4190321186513177 0.17549979291283796 0.27772420800499736 0.2216870723048561 6.6870268621674676 -0.1945542938976242 -0.2414936704260364 -1.3785980614631426 9.669072259290331" Properties=species:S:1:pos:R:3 unique_starting_index=25 config_type=initial n_minim_iter=19 stress="0.008860790454152659 0.0013530480484630026 0.0014912672936016962 0.0013530480484630026 -0.007009487788973581 -0.004685356498613242 0.0014912672936016962 -0.004685356498613242 0.003866003086735706" pbc="T T T"
Si       1.25737177       6.20333641       3.93089874
Si       2.14185375      -0.71940782       5.82134344
Si       1.96686907       0.78576242       7.01196158
Si       1.43235645       4.69816618       2.74028059
Si       0.20522851       6.16241365       2.15936447
Si       3.19399701      -0.67848506       7.59287771
Si       1.10600483       5.69862672       8.82565137
Si       2.29322069      -0.21469812       0.92659081
8
Lattice="3.417069590400711 0.16560577877327126 0.2773902410530928 0.20254292961948575 6.693809608846649 -0.18737605050339223 -0.2383486993333685 -1.3681147162429517 9.663805201352162" Properties=species:S:1:pos:R:3 unique_starting_index=25 config_type=initial n_minim_iter=20 stress="-0.0031210418707884953 -0.0008069220811705146 -0.0021623839915247303 -0.0008069220811705146 -0.002025583961596364 0.00037254865009055463 -0.0021623839915247303 0.00037254865009055463 -0.006383414739953644" pbc="T T T"
Si       1.24306798       6.20422899       3.93501286
Si       2.13819584      -0.71292832       5.81880653
Si       1.95967819       0.78486805       7.01937889
Si       1.42158563       4.70643262       2.73444050
Si       0.18679386       6.16980401       2.16328162
Si       3.19446996      -0.67850334       7.59053777
Si       1.08914800       5.71191681       8.83145015
Si       2.29211582      -0.22061613       0.92236924
8
Lattice="3.4167354614203314 0.17133783401930275 0.2774367012470459 0.2143833510052022 6.704951264346018 -0.19250854691915736 -0.24064146985091825 -1.3781676596546122 9.668307105011394" Properties=species:S:1:pos:R:3 unique_starting_index=25 config_type=initial n_minim_iter=21 stress="0.00019107834714426674 -0.0009035768773604731 0.0006574832901918262 -0.0009035768773604731 0.003982070944638002 0.00034721515499831323 0.0006574832901918262 0.00034721515499831323 0.002338880586191872" pbc="T T T"
Si       1.25286887       6.21667592       3.93088001
Si       2.13760847      -0.71855448       5.82235525
Si       1.95340930       0.77261729       7.02892836
Si       1.43706805       4.72550415       2.72430690
Si       0.19574101       6.18478841       2.16011885
Si       3.19473633      -0.68666697       7.59311641
Si       1.09806463       5.71750035       8.83308386
Si       2.29241271      -0.21937892       0.92015140
