12
Lattice="4.9787921097041306 -1.0490054678322932e-16 -1.9130382056929556e-21 1.3574463103361079e-16 6.442714729804332 2.3512879208059737e-16 3.540777316394267e-21 -3.3630697457517936e-16 9.215076893214881" Properties=species:S:1:pos:R:3 unique_starting_index=60 config_type=initial n_minim_iter=1 energy=-1959.8593612085413 free_energy=-1959.8593612085413 pbc="T T T"
Si       2.57753215       2.32078360      -0.43320476
Si       2.57753215       4.12193113       9.64828165
Si       0.08813610       0.90057376       4.17433369
Si       0.08813610       5.54214097       5.04074320
Si       4.06655869       4.07263552       4.10621732
Si       4.06655869       2.37007921       5.10885957
Si       1.57716263       5.59143658       8.71375577
Si       1.57716263       0.85127815       0.50132112
Si       0.61680432       2.33574126       8.75718290
Si       0.61680432       4.10697347       0.45789399
Si       3.10620038       0.88561610       4.14964446
Si       3.10620038       5.55709863       5.06543244
12
Lattice="4.993868415109309 -1.0776741732077733e-16 -1.9191690642397136e-21 1.320774060514545e-16 6.416758703655462 2.3418979062592696e-16 3.5400675349457666e-21 -3.362857664239345e-16 9.214830269368333" Properties=species:S:1:pos:R:3 unique_starting_index=60 config_type=initial n_minim_iter=2 stress="-0.006090702164374963 1.5716157345375649e-16 1.633653197742995e-16 1.5716157345375649e-16 -0.002523996859240647 -2.1714992045028003e-15 1.633653197742995e-16 -2.1714992045028003e-15 -0.0008879698376254734" pbc="T T T"
Si       2.58554152       2.31153685      -0.43292951
Si       2.58554152       4.10522186       9.64775978
Si       0.08860732       0.89684251       4.17448562
Si       0.08860732       5.51991620       5.04034465
Si       4.07892136       4.05656488       4.10676173
Si       4.07892136       2.36019382       5.10806854
Si       1.58198715       5.56857317       8.71417686
Si       1.58198715       0.84818553       0.50065341
Si       0.61841903       2.32621177       8.75728663
Si       0.61841903       4.09054694       0.45754364
Si       3.11535324       0.88216758       4.14987150
Si       3.11535324       5.53459112       5.06495877
12
Lattice="4.999685501269826 -1.0775933060564843e-16 -1.9180581838484595e-21 1.3231836386663606e-16 6.420355225438737 2.343189086620181e-16 3.5467781802981794e-21 -3.363481885468728e-16 9.21645785068259" Properties=species:S:1:pos:R:3 unique_starting_index=60 config_type=initial n_minim_iter=3 stress="0.00023398946334976748 4.559536772362627e-16 -1.876352581219188e-18 4.559536772362627e-16 0.001989127688613962 -2.957694573775806e-15 -1.876352581219188e-18 -2.957694573775806e-15 0.0009181027013209889" pbc="T T T"
Si       2.58875506       2.31294694      -0.43290951
Si       2.58875506       4.10740828       9.64936736
Si       0.08891231       0.89723067       4.17531942
Si       0.08891231       5.52312456       5.04113843
Si       4.08369079       4.05902893       4.10787432
Si       4.08369079       2.36132629       5.10858353
Si       1.58384804       5.57150390       8.71610325
Si       1.58384804       0.84885132       0.50035460
Si       0.61891950       2.32742980       8.75902846
Si       0.61891950       4.09292542       0.45742939
Si       3.11876225       0.88274781       4.15079954
Si       3.11876225       5.53760742       5.06565831
12
Lattice="5.005407698016673 -1.0765066011768324e-16 -1.9327501643363347e-21 1.3310652959948316e-16 6.4433443895773514 2.3515842068118247e-16 3.515714494149178e-21 -3.3559111107548424e-16 9.195735162488548" Properties=species:S:1:pos:R:3 unique_starting_index=60 config_type=initial n_minim_iter=4 stress="0.00032371135235273777 3.7135104053940684e-16 3.812478078118469e-17 3.7135104053940684e-16 -0.0036628606563580044 -3.761052322882481e-15 3.812478078118469e-17 -3.761052322882481e-15 -0.008990745218995714" pbc="T T T"
Si       2.59529071       2.32318147      -0.42929887
Si       2.59529071       4.12016292       9.62503403
Si       0.09258687       0.89849073       4.16856871
Si       0.09258687       5.54485366       5.02716645
Si       4.08906425       4.07933548       4.10850862
Si       4.08906425       2.36400891       5.08722654
Si       1.58636040       5.58568111       8.70637620
Si       1.58636040       0.85766328       0.48935896
Si       0.61535544       2.33342533       8.74438643
Si       0.61535544       4.10991906       0.45134873
Si       3.11805929       0.88824687       4.14651885
Si       3.11805929       5.55509752       5.04921632
12
Lattice="4.98982712495334 -1.0717493796441829e-16 -1.911104458080132e-21 1.3372612103346982e-16 6.462904287881709 2.358705694726176e-16 3.592071263964162e-21 -3.4021030028582147e-16 9.322233908030046" Properties=species:S:1:pos:R:3 unique_starting_index=60 config_type=initial n_minim_iter=5 stress="0.007782330353942342 -3.3273753976836915e-16 1.2371484552985978e-17 -3.3273753976836915e-16 0.001991864443359038 -4.683714797444266e-15 1.2371484552985978e-17 -4.683714797444266e-15 0.007186443912355363" pbc="T T T"
Si       2.59436925       2.33615563      -0.43072196
Si       2.59436925       4.12674866       9.75295586
Si       0.09945569       0.89529651       4.23039500
Si       0.09945569       5.56760777       5.09183891
Si       4.07894582       4.09592687       4.18201845
Si       4.07894582       2.36697742       5.14021546
Si       1.58403225       5.59842956       8.84313541
Si       1.58403225       0.86447472       0.47909850
Si       0.60367317       2.34053916       8.87321084
Si       0.60367317       4.12236513       0.44902306
Si       3.09858673       0.89091298       4.21209389
Si       3.09858673       5.57199130       5.11014002
12
Lattice="4.981768490978973 -1.072097238312842e-16 -1.9649548416881517e-21 1.3370987522467006e-16 6.474373622649779 2.36298858625998e-16 3.487773882291225e-21 -3.4030421977215173e-16 9.325186387065939" Properties=species:S:1:pos:R:3 unique_starting_index=60 config_type=initial n_minim_iter=6 stress="0.030255440032802988 1.5835387727588508e-16 -3.9108609084801924e-16 1.5835387727588508e-16 0.007031815902324788 -5.4301722345117614e-15 -3.9108609084801924e-16 -5.4301722345117614e-15 0.008196881673583876" pbc="T T T"
Si       2.59511340       2.34458559      -0.42856858
Si       2.59511340       4.12978803       9.75375497
Si       0.10422915       0.89260122       4.23402461
Si       0.10422915       5.58177240       5.09116178
Si       4.07466295       4.10264244       4.19280552
Si       4.07466295       2.37173119       5.13238087
Si       1.58377871       5.60891800       8.85539871
Si       1.58377871       0.86545563       0.46978767
Si       0.59545946       2.34696995       8.88040168
Si       0.59545946       4.12740367       0.44478471
Si       3.08634371       0.89021686       4.21780849
Si       3.08634371       5.58415677       5.10737790
12
Lattice="4.9531823975742775 -1.0669394051294905e-16 -1.979807707011183e-21 1.3383731464079484e-16 6.484657735694291 2.366795119037114e-16 3.435982075055056e-21 -3.398404797751643e-16 9.312690358066263" Properties=species:S:1:pos:R:3 unique_starting_index=60 config_type=initial n_minim_iter=7 stress="-0.007122130317405211 4.1087650510804345e-16 -5.411544213618134e-16 4.1087650510804345e-16 0.005608179977912851 -3.859436873748612e-15 -5.411544213618134e-16 -3.859436873748612e-15 0.003912858793813424" pbc="T T T"
Si       2.58242830       2.35531019      -0.42604289
Si       2.58242830       4.12934754       9.73873325
Si       0.10583710       0.88701867       4.23030229
Si       0.10583710       5.59763906       5.08238807
Si       4.05406372       4.10340481       4.19812242
Si       4.05406372       2.38125292       5.11456794
Si       1.57747252       5.62358179       8.85446760
Si       1.57747252       0.86107595       0.45822276
Si       0.58705484       2.35566978       8.87341781
Si       0.58705484       4.12898795       0.43927255
Si       3.06364604       0.88665908       4.21707263
Si       3.06364604       5.59799865       5.09561773
12
Lattice="4.950221755947069 -1.066867939031579e-16 -1.995673380981791e-21 1.3389992808683304e-16 6.4907650397519205 2.3689829797389766e-16 3.397892860760909e-21 -3.392433537382342e-16 9.296169985636027" Properties=species:S:1:pos:R:3 unique_starting_index=60 config_type=initial n_minim_iter=8 stress="-0.007926949302356628 -7.998856351296356e-16 1.979270914063806e-17 -7.998856351296356e-16 9.314744425465304e-05 -4.892516098421288e-15 1.979270914063806e-17 -4.892516098421288e-15 9.346619071923728e-05" pbc="T T T"
Si       2.58193754       2.35758926      -0.42441030
Si       2.58193754       4.13317578       9.72058029
Si       0.10682666       0.88779326       4.22367469
Si       0.10682666       5.60297178       5.07249529
Si       4.05397034       4.10495973       4.19880887
Si       4.05397034       2.38580531       5.09736111
Si       1.57885946       5.63118783       8.84689387
Si       1.57885946       0.85957721       0.44927612
Si       0.58332128       2.35993086       8.86249794
Si       0.58332128       4.13083418       0.43367204
Si       3.05843216       0.88545166       4.21441295
Si       3.05843216       5.60531338       5.08175704
12
Lattice="4.95052348818031 -1.0690465552777144e-16 -2.009260440274752e-21 1.3364601000206523e-16 6.491690459181626 2.36929519166144e-16 3.3722293391620677e-21 -3.391826252715529e-16 9.2944062136138" Properties=species:S:1:pos:R:3 unique_starting_index=60 config_type=initial n_minim_iter=9 stress="0.0038108811042385075 -4.657262559700148e-16 2.5321309806829417e-16 -4.657262559700148e-16 -0.00019582559109645846 -6.242887625915697e-15 2.5321309806829417e-16 -6.242887625915697e-15 -0.00015593059623281226" pbc="T T T"
Si       2.58235860       2.35805063      -0.42436109
Si       2.58235860       4.13363983       9.71876730
Si       0.10709686       0.88779460       4.22284202
Si       0.10709686       5.60389586       5.07156419
Si       4.05421384       4.10529257       4.19893770
Si       4.05421384       2.38639789       5.09546851
Si       1.57895209       5.63224312       8.84614081
Si       1.57895209       0.85944734       0.44826540
Si       0.58309676       2.36016121       8.86171459
Si       0.58309676       4.13152925       0.43269162
Si       3.05835850       0.88568402       4.21451149
Si       3.05835850       5.60600644       5.07989473
12
Lattice="4.955583903594865 -1.0710107960354186e-16 -2.0210361980810215e-21 1.3361482909621403e-16 6.495789728060297 2.370749018633265e-16 3.3510109147167163e-21 -3.3894587534969126e-16 9.287754271523099" Properties=species:S:1:pos:R:3 unique_starting_index=60 config_type=initial n_minim_iter=10 stress="-0.00018126657657034547 1.1868053408227235e-15 1.2607021689903463e-16 1.1868053408227235e-15 -4.204438259214626e-05 -5.6384393914431274e-15 1.2607021689903463e-16 -5.6384393914431274e-15 -0.00023430647397174904" pbc="T T T"
Si       2.58395246       2.35893977      -0.42463305
Si       2.58395246       4.13684996       9.71238733
Si       0.10616051       0.88895509       4.21924408
Si       0.10616051       5.60683464       5.06851019
Si       4.05800752       4.10693458       4.19756930
Si       4.05800752       2.38885515       5.09018498
Si       1.58021556       5.63675001       8.84144643
Si       1.58021556       0.85903972       0.44630784
Si       0.58508916       2.36069069       8.85858421
Si       0.58508916       4.13509904       0.42917006
Si       3.06288111       0.88720417       4.21470708
Si       3.06288111       5.60858556       5.07304719
12
Lattice="4.954881954109953 -1.0721599063869792e-16 -2.0264919447354495e-21 1.334707112793572e-16 6.4968558134736965 2.3711354025921784e-16 3.3416192690099342e-21 -3.3904894365486017e-16 9.290567839249137" Properties=species:S:1:pos:R:3 unique_starting_index=60 config_type=initial n_minim_iter=11 stress="0.0011455408299657593 1.8327134093837426e-15 6.923254017623414e-17 1.8327134093837426e-15 0.0006078829148666185 -5.37805054049969e-15 6.923254017623414e-17 -5.37805054049969e-15 0.0003022768269231736" pbc="T T T"
Si       2.58333679       2.35915113      -0.42439775
Si       2.58333679       4.13770468       9.71496559
Si       0.10589581       0.88927677       4.22088617
Si       0.10589581       5.60757904       5.06968167
Si       4.05829529       4.10769931       4.19895384
Si       4.05829529       2.38915650       5.09161400
Si       1.58085431       5.63758441       8.84423776
Si       1.58085431       0.85927141       0.44633008
Si       0.58439335       2.36143291       8.86201820
Si       0.58439335       4.13542290       0.42854964
Si       3.06183433       0.88699499       4.21673428
Si       3.06183433       5.60986082       5.07383356
12
Lattice="4.953623175317039 -1.0733776720191275e-16 -2.033250085831779e-21 1.3326483840308497e-16 6.496164743488825 2.370888884123559e-16 3.3281747763665392e-21 -3.3903800286875835e-16 9.290290313814324" Properties=species:S:1:pos:R:3 unique_starting_index=60 config_type=initial n_minim_iter=12 stress="0.00027486231417838905 1.3729363329493648e-15 2.1353486379385575e-17 1.3729363329493648e-15 3.976219468642572e-05 -7.186840785340162e-15 2.1353486379385575e-17 -7.186840785340162e-15 4.198372048835779e-05" pbc="T T T"
Si       2.58272602       2.35940041      -0.42431320
Si       2.58272602       4.13676434       9.71460352
Si       0.10591443       0.88868196       4.22083196
Si       0.10591443       5.60748278       5.06945836
Si       4.05768243       4.10704728       4.19844911
Si       4.05768243       2.38911746       5.09184121
Si       1.58087084       5.63719983       8.84359426
Si       1.58087084       0.85896491       0.44669605
Si       0.58378122       2.36109962       8.86269384
Si       0.58378122       4.13506512       0.42759647
Si       3.06059281       0.88698275       4.21754869
Si       3.06059281       5.60918199       5.07274163
12
Lattice="4.95351593934308 -1.0747813888373717e-16 -2.0406992745334718e-21 1.3307352562883534e-16 6.495850716952999 2.3707730537579577e-16 3.31376051129967e-21 -3.3898941829071307e-16 9.288954286570126" Properties=species:S:1:pos:R:3 unique_starting_index=60 config_type=initial n_minim_iter=13 stress="-0.00018729560145187442 3.276139521400322e-16 3.107132323867766e-16 3.276139521400322e-16 -0.00038421244155213664 -6.889179104695212e-15 3.107132323867766e-16 -6.889179104695212e-15 -0.00018968731395105397" pbc="T T T"
Si       2.58232192       2.35946680      -0.42427706
Si       2.58232192       4.13638392       9.71323135
Si       0.10556395       0.88845856       4.22020008
Si       0.10556395       5.60739216       5.06875421
Si       4.05832042       4.10653140       4.19703932
Si       4.05832042       2.38931931       5.09191497
Si       1.58156246       5.63724467       8.84151646
Si       1.58156246       0.85860605       0.44743782
Si       0.58339094       2.36041513       8.86310719
Si       0.58339094       4.13543559       0.42584709
Si       3.06014891       0.88751023       4.21863005
Si       3.06014891       5.60834049       5.07032424
12
Lattice="4.953570432262784 -1.0761740302237989e-16 -2.047481412389331e-21 1.3289723327906018e-16 6.495964648366967 2.3708406935842535e-16 3.301317934022855e-21 -3.389922331748874e-16 9.289133550382443" Properties=species:S:1:pos:R:3 unique_starting_index=60 config_type=initial n_minim_iter=14 stress="-0.0002090869502961257 1.1179941303823545e-16 2.8414136536295724e-16 1.1179941303823545e-16 -0.00017571838526226767 -7.98288666021354e-15 2.8414136536295724e-16 -7.98288666021354e-15 -6.528288769069583e-05" pbc="T T T"
Si       2.58204820       2.35948649      -0.42436249
Si       2.58204820       4.13647816       9.71349604
Si       0.10526298       0.88849584       4.22020428
Si       0.10526298       5.60746881       5.06892927
Si       4.05894131       4.10641079       4.19646167
Si       4.05894131       2.38955386       5.09267188
Si       1.58215610       5.63753618       8.84102845
Si       1.58215610       0.85842846       0.44810510
Si       0.58312324       2.35978029       8.86438255
Si       0.58312324       4.13618436       0.42475100
Si       3.05990846       0.88820203       4.21981577
Si       3.05990846       5.60776261       5.06931778
12
Lattice="4.953744427204516 -1.0776073756710945e-16 -2.0543771622324707e-21 1.3271358461614473e-16 6.495838751904937 2.3707680197402515e-16 3.2886380805169084e-21 -3.3899354463676275e-16 9.289064730081716" Properties=species:S:1:pos:R:3 unique_starting_index=60 config_type=initial n_minim_iter=15 stress="-2.87213310866281e-05 4.100515722535126e-16 2.1653991542010675e-16 4.100515722535126e-16 -4.450638933267293e-05 -7.32354336585927e-15 2.1653991542010675e-16 -7.32354336585927e-15 -3.470990431788961e-05" pbc="T T T"
Si       2.58204668       2.35935011      -0.42445732
Si       2.58204668       4.13648864       9.71352205
Si       0.10517446       0.88856926       4.22007505
Si       0.10517446       5.60726949       5.06898968
Si       4.05920165       4.10630281       4.19619602
Si       4.05920165       2.38953594       5.09286871
Si       1.58232944       5.63745532       8.84072838
Si       1.58232944       0.85838343       0.44833635
Si       0.58311817       2.35951747       8.86432575
Si       0.58311817       4.13632128       0.42473898
Si       3.05999039       0.88840191       4.21979339
Si       3.05999039       5.60743685       5.06927134
