22
Lattice="9.27183799639073 -3.1056118819917 -1.144863064941242 -8.647960291169213 9.394965788490744 -1.7850339554098869 -4.969165009521367 -1.247975871193843 11.719745519578192" Properties=species:S:1:pos:R:3 unique_starting_index=18 config_type=initial n_minim_iter=1 energy=-4253.730492907797 free_energy=-4253.730492907797 pbc="T T T"
Si      -1.08539954       6.17352900      -0.05592441
Si       1.14122057       0.15873332       9.48986747
Si      -4.19657796      -1.15732387       9.43398067
Si       0.80390051       0.39059498      10.52914776
Si      -8.44181716       4.10657771      10.73687093
Si       6.12494651       0.84951156      -1.45269528
Si       3.46689240       0.40500951      -1.79757908
Si      -1.61606974       0.12427627       9.02237860
Si      -1.80949210       0.04147967       9.92999224
Si      -8.30463889       2.79597537       5.22487916
Si       1.15494448      -0.16415941       3.12101136
Si      -6.12988405       4.70519179       5.56438148
Si      -4.10630634      -0.77806452       8.50841156
Si      -3.76199605       5.60579814      -0.10201018
Si       0.63774525       0.62808919       4.11341636
Si      -0.74222701       5.32738146      -0.27667409
Si      -1.64635274      -0.77968827       3.53072943
Si       5.44967594      -4.83072833       7.54992920
Si       0.82370312       0.77068197       3.14644189
Si      -5.83005836       3.73884350       5.72030269
Si      -5.75369850       4.15813004       4.79261860
Si      -1.31107635      -0.76050711       9.01149864
22
Lattice="9.271735809211341 -3.1056492597844567 -1.1448798199611445 -8.64789267487327 9.394976750573733 -1.7850073779940152 -4.969118391700029 -1.2479421151225578 11.719718732672304" Properties=species:S:1:pos:R:3 unique_starting_index=18 config_type=initial n_minim_iter=2 stress="-0.0011262855095864417 -0.00029535583767491903 -0.00035498879362522374 -0.00029535583767491903 3.0983243577748215e-06 -0.000231420801000457 -0.00035498879362522374 -0.000231420801000457 8.638086594010232e-05" pbc="T T T"
Si      -1.08541292       6.17351482      -0.05592066
Si       1.14118579       0.15873139       9.48983439
Si      -4.19653689      -1.15729569       9.43395897
Si       0.80386650       0.39059102      10.52911238
Si      -8.44175066       4.10660851      10.73685639
Si       6.12486458       0.84947897      -1.45270131
Si       3.46684981       0.40499115      -1.79758025
Si      -1.61606817       0.12428808       9.02235396
Si      -1.80948717       0.04148977       9.92996671
Si      -8.30455379       2.79601227       5.22488123
Si       1.15492375      -0.16416259       3.12100005
Si      -6.12984055       4.70520650       5.56437696
Si      -4.10626363      -0.77804047       8.50839455
Si      -3.76197890       5.60579840      -0.10200083
Si       0.63772353       0.62808498       4.11340214
Si      -0.74224510       5.32736663      -0.27667145
Si      -1.64633912      -0.77967596       3.53071949
Si       5.44961434      -4.83073709       7.54988920
Si       0.82368151       0.77067521       3.14643098
Si      -5.83001731       3.73886001       5.72029931
Si      -5.75365487       4.15814906       4.79261760
Si      -1.31107486      -0.76049717       9.01147491
22
Lattice="9.271960962424663 -3.1058112562075464 -1.1445056725413578 -8.648490256370119 9.394374069047918 -1.7845986401788048 -4.968545958688242 -1.2467951153042507 11.718213848050915" Properties=species:S:1:pos:R:3 unique_starting_index=18 config_type=initial n_minim_iter=3 stress="5.7953427024583444e-05 6.234480594721197e-05 0.00046976334538382174 6.234480594721197e-05 -0.0008645727200629496 9.293883673040841e-05 0.00046976334538382174 9.293883673040841e-05 -0.0015308766779242183" pbc="T T T"
Si      -1.08542564       6.17314873      -0.05555071
Si       1.14174368       0.15946021       9.48892147
Si      -4.19606808      -1.15638390       9.43270023
Si       0.80444917       0.39121600      10.52811267
Si      -8.44147000       4.10727419      10.73566974
Si       6.12482481       0.84921379      -1.45206726
Si       3.46684622       0.40477943      -1.79717278
Si      -1.61562654       0.12505976       9.02140364
Si      -1.80887600       0.04216642       9.92899937
Si      -8.30440125       2.79658064       5.22415006
Si       1.15511976      -0.16389439       3.12079325
Si      -6.12984643       4.70533562       5.56378313
Si      -4.10570363      -0.77733798       8.50735481
Si      -3.76241863       5.60549610      -0.10180679
Si       0.63784954       0.62831766       4.11307287
Si      -0.74250115       5.32694288      -0.27636865
Si      -1.64638897      -0.77929358       3.53012215
Si       5.45029272      -4.82997784       7.54889683
Si       0.82382254       0.77077658       3.14624614
Si      -5.83014540       3.73906078       5.71977278
Si      -5.75364203       4.15849578       4.79218643
Si      -1.31063358      -0.75984974       9.01057225
22
Lattice="9.272109947944545 -3.106223785258011 -1.144991327756624 -8.648683496988955 9.395099844160184 -1.7843789330289577 -4.968888570597282 -1.246518402305022 11.719857064281133" Properties=species:S:1:pos:R:3 unique_starting_index=18 config_type=initial n_minim_iter=4 stress="6.619576563992211e-05 5.2694974521202395e-06 -0.00011470094691198746 5.2694974521202395e-06 -6.943412069764415e-05 2.06760541347995e-05 -0.00011470094691198746 2.06760541347995e-05 0.00039935270846914566" pbc="T T T"
Si      -1.08546403       6.17361496      -0.05543289
Si       1.14149691       0.15968651       9.49008319
Si      -4.19634233      -1.15619826       9.43401577
Si       0.80413809       0.39142593      10.52945471
Si      -8.44188934       4.10790069      10.73741316
Si       6.12485009       0.84916294      -1.45235922
Si       3.46691404       0.40471660      -1.79747995
Si      -1.61589024       0.12532581       9.02263034
Si      -1.80912354       0.04235526       9.93040381
Si      -8.30461771       2.79709495       5.22514019
Si       1.15503516      -0.16382934       3.12118292
Si      -6.13013925       4.70582003       5.56475235
Si      -4.10586797      -0.77718796       8.50859511
Si      -3.76262954       5.60594159      -0.10160588
Si       0.63766717       0.62843794       4.11360647
Si      -0.74261471       5.32729395      -0.27631450
Si      -1.64658827      -0.77922506       3.53056677
Si       5.45020499      -4.83024697       7.54951055
Si       0.82372630       0.77086673       3.14665675
Si      -5.83051348       3.73946609       5.72081488
Si      -5.75388720       4.15905570       4.79308623
Si      -1.31090104      -0.75974507       9.01182132
22
Lattice="9.272002922601462 -3.1069243806207627 -1.1446369689585094 -8.648840916354413 9.396675880718458 -1.7844357640019433 -4.968375348999883 -1.2464243293078372 11.718902544584557" Properties=species:S:1:pos:R:3 unique_starting_index=18 config_type=initial n_minim_iter=5 stress="-0.0001299933023450019 0.00023516709910621558 -0.0002731353552219701 0.00023516709910621558 0.0012089608244432238 0.0001467541604956597 -0.0002731353552219701 0.0001467541604956597 -0.0006595458600207577" pbc="T T T"
Si      -1.08563577       6.17460765      -0.05559003
Si       1.14188605       0.15983273       9.48937712
Si      -4.19592766      -1.15633032       9.43319510
Si       0.80440922       0.39176522      10.52876953
Si      -8.44136099       4.10885302      10.73661807
Si       6.12457944       0.84919036      -1.45194469
Si       3.46670192       0.40460762      -1.79717993
Si      -1.61547029       0.12551334       9.02204941
Si      -1.80872892       0.04238249       9.92978351
Si      -8.30451254       2.79788486       5.22452640
Si       1.15508895      -0.16377208       3.12105299
Si      -6.12988324       4.70662494       5.56417816
Si      -4.10530513      -0.77724843       8.50794399
Si      -3.76277456       5.60687912      -0.10172596
Si       0.63761811       0.62860345       4.11339562
Si      -0.74268055       5.32820357      -0.27629054
Si      -1.64642478      -0.77913914       3.53015821
Si       5.45050064      -4.83107602       7.54890619
Si       0.82390647       0.77103724       3.14652663
Si      -5.83040864       3.74009593       5.72043134
Si      -5.75369684       4.16008545       4.79269331
Si      -1.31053177      -0.75979687       9.01131332
22
Lattice="9.272278976558914 -3.1071738708895986 -1.1439292282000761 -8.649748500742794 9.396269027969925 -1.785446235240832 -4.967437575138657 -1.2461740969558073 11.719499664905266" Properties=species:S:1:pos:R:3 unique_starting_index=18 config_type=initial n_minim_iter=6 stress="0.00012181828352202246 -0.0001324292086457094 7.521496066135296e-05 -0.0001324292086457094 -6.208104680485284e-05 -0.00016146417054301477 7.521496066135296e-05 -0.00016146417054301477 0.00011068089222418327" pbc="T T T"
Si      -1.08610703       6.17405911      -0.05599193
Si       1.14273510       0.15959390       9.49014987
Si      -4.19515964      -1.15630582       9.43362319
Si       0.80518925       0.39164361      10.52967139
Si      -8.44080619       4.10874747      10.73687067
Si       6.12442261       0.84882392      -1.45149861
Si       3.46651418       0.40430427      -1.79698087
Si      -1.61469286       0.12540965       9.02272585
Si      -1.80796570       0.04216856       9.93054032
Si      -8.30456787       2.79814566       5.22423101
Si       1.15534943      -0.16380609       3.12143277
Si      -6.12977887       4.70631523       5.56402896
Si      -4.10449373      -0.77719817       8.50837568
Si      -3.76326764       5.60655320      -0.10218558
Si       0.63777782       0.62845986       4.11381071
Si      -0.74301173       5.32780283      -0.27650412
Si      -1.64611140      -0.77888315       3.53023331
Si       5.45154594      -4.83112156       7.54985651
Si       0.82422096       0.77087377       3.14687089
Si      -5.83034969       3.73986741       5.72049454
Si      -5.75366228       4.16010457       4.79261185
Si      -1.30974734      -0.75983009       9.01208646
22
Lattice="9.2717042161562 -3.1068066296666057 -1.1439435220891725 -8.649145424628134 9.395156174428944 -1.7849208656232554 -4.96676166101982 -1.2450019213153376 11.7198459012984" Properties=species:S:1:pos:R:3 unique_starting_index=18 config_type=initial n_minim_iter=7 stress="-0.0004936857790185424 0.0009364529183424374 -0.0001790020226383713 0.0009364529183424374 -0.0004697489990641838 0.00023114660403314376 -0.0001790020226383713 0.00023114660403314376 0.00022957763948783453" pbc="T T T"
Si      -1.08579067       6.17372595      -0.05564590
Si       1.14318007       0.16049998       9.49068684
Si      -4.19455746      -1.15580315       9.43382521
Si       0.80549478       0.39285790      10.53026422
Si      -8.43973416       4.10924871      10.73764039
Si       6.12387363       0.84903985      -1.45119840
Si       3.46615210       0.40391896      -1.79674851
Si      -1.61402703       0.12611814       9.02335315
Si      -1.80756597       0.04296341       9.93108078
Si      -8.30420507       2.79843316       5.22446556
Si       1.15547245      -0.16330009       3.12165806
Si      -6.12905890       4.70625312       5.56467522
Si      -4.10379540      -0.77651905       8.50867355
Si      -3.76299227       5.60622838      -0.10175638
Si       0.63781637       0.62903938       4.11418298
Si      -0.74287757       5.32747838      -0.27608710
Si      -1.64607421      -0.77825722       3.53011182
Si       5.45158880      -4.83001167       7.54978231
Si       0.82451093       0.77127464       3.14724185
Si      -5.82980181       3.73990674       5.72102825
Si      -5.75309512       4.16023084       4.79314608
Si      -1.30923741      -0.75882212       9.01262294
22
Lattice="9.272802347164264 -3.1086377189786627 -1.1433777373904956 -8.651569221236242 9.396921301212098 -1.785135117014986 -4.965920958992299 -1.2435015644432013 11.71956299679854" Properties=species:S:1:pos:R:3 unique_starting_index=18 config_type=initial n_minim_iter=8 stress="0.00019622188669546337 -0.0002149793033415598 -0.00012641501845568197 -0.0002149793033415598 4.9029151072506265e-05 0.00031428291255803265 -0.00012641501845568197 0.00031428291255803265 -1.3309549629496754e-05" pbc="T T T"
Si      -1.08686629       6.17432341      -0.05565301
Si       1.14414659       0.16070401       9.49086691
Si      -4.19379955      -1.15507729       9.43351719
Si       0.80621844       0.39343253      10.53043365
Si      -8.44007726       4.11141250      10.73740569
Si       6.12380304       0.84815450      -1.45062838
Si       3.46606689       0.40289500      -1.79631217
Si      -1.61322067       0.12673216       9.02354902
Si      -1.80699384       0.04366742       9.93111847
Si      -8.30517219       2.80049558       5.22400452
Si       1.15591502      -0.16321072       3.12181039
Si      -6.12982355       4.70770626       5.56464555
Si      -4.10309058      -0.77546357       8.50848772
Si      -3.76434456       5.60733090      -0.10176136
Si       0.63796109       0.62940622       4.11436904
Si      -0.74392988       5.32787793      -0.27593923
Si      -1.64596147      -0.77752889       3.52981582
Si       5.45361879      -4.83094632       7.54987498
Si       0.82484596       0.77146182       3.14748576
Si      -5.83046096       3.74125964       5.72086699
Si      -5.75384309       4.16172680       4.79303971
Si      -1.30833027      -0.75808902       9.01277884
22
Lattice="9.272303868946533 -3.1088339615621066 -1.14107051860094 -8.651924279310698 9.397653383677314 -1.7885541010510082 -4.963358674198638 -1.2453574812722177 11.719352406779324" Properties=species:S:1:pos:R:3 unique_starting_index=18 config_type=initial n_minim_iter=9 stress="-0.0001595537811856915 0.00011451109229607768 0.00033612837629023225 0.00011451109229607768 0.0002539264092330567 -0.0003442211165332408 0.00033612837629023225 -0.0003442211165332408 5.1175310397014376e-05" pbc="T T T"
Si      -1.08684850       6.17475881      -0.05725354
Si       1.14614334       0.15898965       9.49134620
Si      -4.19157057      -1.15734267       9.43325015
Si       0.80793418       0.39182312      10.53090870
Si      -8.43760748       4.10976012      10.73557831
Si       6.12292677       0.84835909      -1.44953739
Si       3.46550478       0.40268305      -1.79562533
Si      -1.61121884       0.12504522       9.02379001
Si      -1.80495112       0.04179620       9.93128117
Si      -8.30428527       2.80021710       5.22209654
Si       1.15648771      -0.16370065       3.12219976
Si      -6.12859451       4.70695907       5.56315925
Si      -4.10107594      -0.77687976       8.50831871
Si      -3.76447139       5.60786518      -0.10354435
Si       0.63861412       0.62906128       4.11457681
Si      -0.74414213       5.32815561      -0.27702423
Si      -1.64550998      -0.77773932       3.52964944
Si       5.45521139      -4.83282976       7.55197939
Si       0.82554283       0.77109085       3.14774182
Si      -5.82937040       3.74031485       5.71917450
Si      -5.75267511       4.16112660       4.79148376
Si      -1.30643345      -0.75978472       9.01323168
22
Lattice="9.27322539483262 -3.109282070624648 -1.1412819837778156 -8.653309286023573 9.397169946380766 -1.788150885311736 -4.963700723111115 -1.244343206271467 11.719506954827867" Properties=species:S:1:pos:R:3 unique_starting_index=18 config_type=initial n_minim_iter=10 stress="0.0003853955971293848 6.359953422281151e-05 -0.0005568555482431825 6.359953422281151e-05 -0.00026742713248826996 -0.00030016789449129804 -0.0005568555482431825 -0.00030016789449129804 -0.0002848579089112334" pbc="T T T"
Si      -1.08737829       6.17433401      -0.05720302
Si       1.14631865       0.15919604       9.49137523
Si      -4.19171949      -1.15712975       9.43332950
Si       0.80759650       0.39245883      10.53098572
Si      -8.43844086       4.11029795      10.73596891
Si       6.12309322       0.84776420      -1.44952128
Si       3.46571350       0.40198868      -1.79557894
Si      -1.61132329       0.12538834       9.02400401
Si      -1.80509502       0.04207082       9.93150880
Si      -8.30543941       2.80104902       5.22229481
Si       1.15652348      -0.16358493       3.12221305
Si      -6.12942092       4.70707223       5.56378191
Si      -4.10125014      -0.77621259       8.50864028
Si      -3.76521352       5.60774645      -0.10338759
Si       0.63846737       0.62943415       4.11461585
Si      -0.74461703       5.32765559      -0.27678241
Si      -1.64590304      -0.77694965       3.52961244
Si       5.45601382      -4.83270466       7.55168665
Si       0.82564472       0.77123123       3.14785522
Si      -5.83028945       3.74039531       5.71917734
Si      -5.75325165       4.16119179       4.79181985
Si      -1.30652931      -0.75948248       9.01344354
22
Lattice="9.27304634046815 -3.1097883179197527 -1.1406930068685006 -8.653738950837061 9.397347546006433 -1.7883922008836117 -4.962412269324489 -1.2432390949402865 11.71958836100045" Properties=species:S:1:pos:R:3 unique_starting_index=18 config_type=initial n_minim_iter=11 stress="-8.979718983169688e-05 -2.0588977767183388e-05 0.00023455264730754623 -2.0588977767183388e-05 7.697076813335368e-05 0.00033373109070304076 0.00023455264730754623 0.00033373109070304076 0.0001058155776747639" pbc="T T T"
Si      -1.08766788       6.17441427      -0.05695250
Si       1.14723981       0.15976790       9.49197000
Si      -4.19058674      -1.15653661       9.43337238
Si       0.80846889       0.39331289      10.53162860
Si      -8.43734188       4.11141591      10.73605370
Si       6.12265988       0.84739053      -1.44893126
Si       3.46543978       0.40154771      -1.79529948
Si      -1.61039367       0.12606003       9.02437121
Si      -1.80405893       0.04273347       9.93192160
Si      -8.30502011       2.80194877       5.22197129
Si       1.15675568      -0.16338708       3.12246890
Si      -6.12894551       4.70768993       5.56400760
Si      -4.10025210      -0.77544242       8.50879873
Si      -3.76540548       5.60800866      -0.10341417
Si       0.63876123       0.62987132       4.11492404
Si      -0.74491958       5.32763085      -0.27644715
Si      -1.64561607      -0.77635419       3.52958685
Si       5.45684702      -4.83253512       7.55216791
Si       0.82595720       0.77150107       3.14817146
Si      -5.82986261       3.74095136       5.71905694
Si      -5.75277816       4.16171044       4.79185815
Si      -1.30561289      -0.75890405       9.01379695
22
Lattice="9.27387588782859 -3.1102515076908195 -1.1399043597102654 -8.655294639786263 9.39740391427919 -1.7898472633251654 -4.961944115162724 -1.2437631879004456 11.719823885175874" Properties=species:S:1:pos:R:3 unique_starting_index=18 config_type=initial n_minim_iter=12 stress="3.740326030943515e-05 5.656309795931632e-05 3.9434583425543854e-05 5.656309795931632e-05 -1.4298215981638816e-05 -3.1180984842415135e-05 3.9434583425543854e-05 -3.1180984842415135e-05 -1.829608291347378e-05" pbc="T T T"
Si      -1.08838489       6.17421298      -0.05781884
Si       1.14790063       0.15855915       9.49228949
Si      -4.18999388      -1.15771739       9.43371805
Si       0.80910800       0.39229652      10.53187980
Si      -8.43745834       4.11083335      10.73551570
Si       6.12258351       0.84710107      -1.44856208
Si       3.46548150       0.40102514      -1.79525226
Si      -1.60976159       0.12522909       9.02458275
Si      -1.80344798       0.04151736       9.93221973
Si      -8.30589362       2.80237956       5.22133105
Si       1.15687580      -0.16368982       3.12261937
Si      -6.12933691       4.70715079       5.56377729
Si      -4.09977592      -0.77595688       8.50946873
Si      -3.76620735       5.60837508      -0.10449835
Si       0.63880376       0.62983845       4.11495051
Si      -0.74567614       5.32726905      -0.27673849
Si      -1.64570763      -0.77571201       3.52978796
Si       5.45807239      -4.83374936       7.55290656
Si       0.82640682       0.77132219       3.14822583
Si      -5.83041715       3.74027558       5.71814221
Si      -5.75312637       4.16128594       4.79130525
Si      -1.30502579      -0.75992941       9.01415936
22
Lattice="9.275608913665181 -3.111532869996608 -1.1391488328809696 -8.65831713475711 9.398007270596208 -1.791178199418075 -4.961662401719358 -1.2436012959377998 11.72005729976385" Properties=species:S:1:pos:R:3 unique_starting_index=18 config_type=initial n_minim_iter=13 stress="5.0827852180581255e-05 4.6604544073365445e-05 4.7676386056838694e-05 4.6604544073365445e-05 -6.007209920901397e-05 2.1179366098124375e-05 4.7676386056838694e-05 2.1179366098124375e-05 9.56855499748708e-06" pbc="T T T"
Si      -1.08936051       6.17429650      -0.05869320
Si       1.14835567       0.15731826       9.49265473
Si      -4.18948130      -1.15869039       9.43440598
Si       0.80962425       0.39188176      10.53219359
Si      -8.43854706       4.11101534      10.73485190
Si       6.12275976       0.84605265      -1.44807577
Si       3.46573792       0.39984672      -1.79534237
Si      -1.60895984       0.12448611       9.02486369
Si      -1.80271670       0.04055477       9.93241049
Si      -8.30775929       2.80383269       5.22071216
Si       1.15687500      -0.16400756       3.12272524
Si      -6.13035708       4.70692208       5.56361929
Si      -4.09945520      -0.77613520       8.51063058
Si      -3.76772644       5.60886075      -0.10575566
Si       0.63887473       0.63010382       4.11492958
Si      -0.74712567       5.32687138      -0.27660519
Si      -1.64606412      -0.77447027       3.53020795
Si       5.46022568      -4.83539537       7.55339791
Si       0.82687338       0.77114888       3.14818641
Si      -5.83156807       3.73992393       5.71726199
Si      -5.75454352       4.16155963       4.79065907
Si      -1.30439070      -0.76065535       9.01437571
22
Lattice="9.277211044223918 -3.1128351640167526 -1.1386311495917705 -8.660977732416407 9.399115172592856 -1.7921347265709597 -4.961704605493159 -1.2435962222322134 11.719936621292648" Properties=species:S:1:pos:R:3 unique_starting_index=18 config_type=initial n_minim_iter=14 stress="5.7720921638007045e-05 5.82925742433247e-05 8.426590248246791e-05 5.82925742433247e-05 -1.175906167149318e-05 -7.65650032615604e-05 8.426590248246791e-05 -7.65650032615604e-05 -4.872506997326438e-06" pbc="T T T"
Si      -1.09048817       6.17455005      -0.05961274
Si       1.14874693       0.15634936       9.49277385
Si      -4.18922935      -1.15963703       9.43476493
Si       0.80987838       0.39132739      10.53208890
Si      -8.43950211       4.11138163      10.73395065
Si       6.12296724       0.84526172      -1.44767520
Si       3.46610503       0.39886858      -1.79540907
Si      -1.60874348       0.12371693       9.02473897
Si      -1.80236497       0.03976582       9.93221593
Si      -8.30948856       2.80521362       5.22020795
Si       1.15686514      -0.16433382       3.12269211
Si      -6.13134105       4.70693818       5.56330303
Si      -4.09946520      -0.77639742       8.51133178
Si      -3.76886966       5.60958886      -0.10667096
Si       0.63911487       0.63035459       4.11480147
Si      -0.74855052       5.32681424      -0.27654269
Si      -1.64666737      -0.77357618       3.53041653
Si       5.46197399      -4.83699308       7.55349308
Si       0.82713973       0.77098079       3.14800186
Si      -5.83267007       3.73982348       5.71653569
Si      -5.75592323       4.16221936       4.78999179
Si      -1.30424158      -0.76133563       9.01413725
22
Lattice="9.278609490083275 -3.114018908040341 -1.138833413183563 -8.663095258644512 9.400035850511319 -1.7918191752417236 -4.962290829888308 -1.2427705864725127 11.719799329964799" Properties=species:S:1:pos:R:3 unique_starting_index=18 config_type=initial n_minim_iter=15 stress="7.712924255198944e-05 4.1257690958935794e-05 4.00749963178493e-05 4.1257690958935794e-05 -1.445830691130417e-05 3.3367401524858624e-05 4.00749963178493e-05 3.3367401524858624e-05 4.827675845787568e-06" pbc="T T T"
Si      -1.09126190       6.17476086      -0.05985555
Si       1.14858386       0.15620352       9.49275322
Si      -4.18942068      -1.15970839       9.43495072
Si       0.80943053       0.39136771      10.53182576
Si      -8.44092913       4.11251453      10.73363302
Si       6.12309869       0.84455715      -1.44753154
Si       3.46657811       0.39810733      -1.79551299
Si      -1.60904866       0.12382268       9.02454851
Si      -1.80251382       0.03987806       9.93206620
Si      -8.31119968       2.80669856       5.22033184
Si       1.15671892      -0.16440387       3.12258603
Si      -6.13242944       4.70744322       5.56359652
Si      -4.09996191      -0.77594288       8.51170493
Si      -3.76978171       5.61020214      -0.10676274
Si       0.63915458       0.63071203       4.11465104
Si      -0.74942542       5.32688009      -0.27611103
Si      -1.64699834      -0.77255695       3.53054679
Si       5.46296939      -4.83768878       7.55289958
Si       0.82707635       0.77098454       3.14783177
Si      -5.83387701       3.74026110       5.71644563
Si      -5.75721809       4.16323266       4.78996746
Si      -1.30452604      -0.76118377       9.01381493
22
Lattice="9.280561520441792 -3.1156294808688196 -1.1390488094438465 -8.6659247871434 9.401725002063761 -1.7916906978396991 -4.96330349978214 -1.242350065802934 11.719379287673519" Properties=species:S:1:pos:R:3 unique_starting_index=18 config_type=initial n_minim_iter=16 stress="8.702464598625979e-05 4.0742074081268535e-05 4.55285726896839e-05 4.0742074081268535e-05 4.765917039984275e-05 -1.4559493276292274e-05 4.55285726896839e-05 -1.4559493276292274e-05 1.0712889793977878e-05" pbc="T T T"
Si      -1.09225553       6.17514882      -0.06064115
Si       1.14813205       0.15549353       9.49240543
Si      -4.18967698      -1.16041993       9.43486758
Si       0.80900650       0.39114353      10.53127662
Si      -8.44336845       4.11362759      10.73275496
Si       6.12346759       0.84367931      -1.44726574
Si       3.46700422       0.39738176      -1.79571664
Si      -1.60953397       0.12371512       9.02403674
Si      -1.80292929       0.03944060       9.93166636
Si      -8.31347083       2.80849094       5.22048205
Si       1.15670035      -0.16461537       3.12245251
Si      -6.13413580       4.70803614       5.56383528
Si      -4.10079105      -0.77551049       8.51171791
Si      -3.77077531       5.61101247      -0.10717213
Si       0.63917985       0.63083053       4.11428738
Si      -0.75071135       5.32695708      -0.27594204
Si      -1.64754290      -0.77151278       3.53051396
Si       5.46409010      -4.83902561       7.55204527
Si       0.82704970       0.77081337       3.14749324
Si      -5.83574962       3.74071132       5.71598864
Si      -5.75918007       4.16445514       4.78971286
Si      -1.30506676      -0.76142532       9.01323824
22
Lattice="9.28293743653716 -3.1173737271891326 -1.1396330963379473 -8.669226896743233 9.40315531339538 -1.790963647146356 -4.964800610474746 -1.2413494680866264 11.718932771000544" Properties=species:S:1:pos:R:3 unique_starting_index=18 config_type=initial n_minim_iter=17 stress="0.0001014481702539646 1.5784557643964337e-05 -5.31660617440708e-07 1.5784557643964337e-05 7.507172740061048e-05 4.818895790380581e-05 -5.31660617440708e-07 4.818895790380581e-05 1.838391432158593e-05" pbc="T T T"
Si      -1.09327781       6.17529364      -0.06146135
Si       1.14724824       0.15514763       9.49199460
Si      -4.19060583      -1.16068547       9.43453122
Si       0.80845936       0.39117938      10.53064304
Si      -8.44625170       4.11505130      10.73213000
Si       6.12410547       0.84253108      -1.44696588
Si       3.46772409       0.39645949      -1.79594171
Si      -1.61044293       0.12392957       9.02361533
Si      -1.80359139       0.03956593       9.93119197
Si      -8.31632230       2.81040283       5.22095641
Si       1.15630623      -0.16489218       3.12227388
Si      -6.13622787       4.70885582       5.56470268
Si      -4.10195895      -0.77445202       8.51179226
Si      -3.77211780       5.61177398      -0.10739767
Si       0.63889620       0.63105797       4.11386404
Si      -0.75207422       5.32656568      -0.27557770
Si      -1.64820738      -0.77029373       3.53043372
Si       5.46532026      -4.83998988       7.55046487
Si       0.82705565       0.77065411       3.14708314
Si      -5.83780147       3.74145460       5.71571262
Si      -5.76167994       4.16576090       4.78983300
Si      -1.30609635      -0.76120347       9.01264172
22
Lattice="9.28580416011886 -3.1191738252703423 -1.1399305614175614 -8.673250679818445 9.404393222727569 -1.7909463039510407 -4.966358539019853 -1.240871703372969 11.718545253673382" Properties=species:S:1:pos:R:3 unique_starting_index=18 config_type=initial n_minim_iter=18 stress="0.00014485235032369952 1.839765746323279e-05 -2.443474348993358e-05 1.839765746323279e-05 0.00010402182015364594 5.04997773938513e-05 -2.443474348993358e-05 5.04997773938513e-05 6.54588677247775e-05" pbc="T T T"
Si      -1.09440894       6.17490805      -0.06310730
Si       1.14639899       0.15381862       9.49174453
Si      -4.19110365      -1.16126624       9.43427600
Si       0.80769933       0.39053528      10.52998121
Si      -8.44930213       4.11589107      10.73115437
Si       6.12478994       0.84105567      -1.44663079
Si       3.46854874       0.39538998      -1.79603189
Si      -1.61129667       0.12363604       9.02323191
Si      -1.80421147       0.03910889       9.93080621
Si      -8.31954611       2.81207511       5.22128829
Si       1.15584979      -0.16557327       3.12219850
Si      -6.13893196       4.70913593       5.56548584
Si      -4.10326575      -0.77363087       8.51216814
Si      -3.77380399       5.61249947      -0.10829645
Si       0.63883717       0.63118302       4.11343971
Si      -0.75371234       5.32563288      -0.27539732
Si      -1.64890893      -0.76896009       3.53031037