22
Lattice="4.654920532874997 0.5443039377650961 2.5459732519766844 2.7531190788249056 6.651328344431545 2.1218923443356927 8.600530360869566 0.5094270553404574 33.073991922242314" Properties=species:S:1:pos:R:3 unique_starting_index=40 config_type=initial n_minim_iter=1 energy=-4076.1598648330073 free_energy=-4076.1598648330073 pbc="T T T"
Si      12.80690848       4.16015589      33.08314934
Si       4.27131923       3.14391069      10.57795684
Si       8.20941170       1.05323944      17.85401430
Si       8.50350823       2.87090530      30.05532908
Si      10.50731138       3.66779587      31.80702129
Si       8.92355631       6.47732811      18.38146535
Si       4.81475467       2.42539031       9.73702117
Si       8.46647277       6.32379310      19.24957557
Si       3.75069546       2.59842888       1.06863333
Si      12.38576930       4.03338611      33.88111457
Si       8.73946308       1.82637822      24.83110081
Si       7.33281166       4.73264706      24.25533541
Si       1.51074433       2.88982850      -0.48575431
Si       5.54452613       0.65429608      17.22555466
Si      10.48959636       2.78974336      32.02859569
Si      11.16234315       6.75444230      19.81448117
Si       6.97141280       3.82889794      11.08381514
Si       8.75608276       7.44640176      18.47747852
Si       4.76898868       3.63385711       9.56942670
Si       7.93064839       0.37287732      18.50987180
Si      12.79296786       3.03134126      33.35064258
Si       6.89496866       2.81015548      11.43937434
22
Lattice="4.6551264984569345 0.5443285766611456 2.546084011446187 2.7532482365708075 6.651501976728565 2.1219984809750727 8.60134475250077 0.5096024621238092 33.0746049765353" Properties=species:S:1:pos:R:3 unique_starting_index=40 config_type=initial n_minim_iter=2 stress="0.0023084692664356895 0.0004448102425549192 0.0013498216639996532 0.0004448102425549192 -0.0006598839950673093 5.127996648723091e-05 0.0013498216639996532 5.127996648723091e-05 0.0006594948426010114" pbc="T T T"
Si      12.80787655       4.16043419      33.08384660
Si       4.27164805       3.14405180      10.57818706
Si       8.20998453       1.05334531      17.85440384
Si       8.50427282       2.87111760      30.05590899
Si      10.50817376       3.66804228      31.80766504
Si       8.92414986       6.47757393      18.38188537
Si       4.81507955       2.42550217       9.73725411
Si       8.46705746       6.32404350      19.25001958
Si       3.75083828       2.59850419       1.06872708
Si      12.38673098       4.03365695      33.88181421
Si       8.74015775       1.82654755      24.83160207
Si       7.33344284       4.73287644      24.25581999
Si       1.51080206       2.88987423      -0.48572015
Si       5.54498581       0.65439313      17.22589854
Si      10.49044920       2.78997308      32.02923259
Si      11.16304049       6.75470779      19.81497334
Si       6.97182970       3.82905069      11.08410610
Si       8.75668831       7.44667831      18.47792271
Si       4.76929810       3.63398560       9.56965022
Si       7.93122086       0.37297643      18.51025917
Si      12.79394075       3.03158049      33.35132360
Si       6.89538314       2.81027015      11.43966199
22
Lattice="4.6549223540885425 0.5442751472010561 2.5459160722417797 2.752339444053011 6.655121855130909 2.122385870485938 8.598621430326425 0.5111979026847127 33.07636110479981" Properties=species:S:1:pos:R:3 unique_starting_index=40 config_type=initial n_minim_iter=3 stress="-0.0003167734625269168 0.00026585165531991194 -0.0007526143657419562 0.00026585165531991194 0.0029752949513461202 0.00034717033928715447 -0.0007526143657419562 0.00034717033928715447 0.0008451837321280539" pbc="T T T"
Si      12.80489056       4.16399059      33.08554094
Si       4.27084203       3.14640116      10.57872002
Si       8.20862092       1.05405197      17.85510927
Si       8.50154193       2.87370118      30.05762419
Si      10.50521757       3.67112765      31.80949514
Si       8.92182651       6.48143781      18.38255210
Si       4.81415016       2.42713391       9.73789941
Si       8.46452450       6.32803601      19.25127323
Si       3.75031517       2.59981638       1.06887155
Si      12.38359686       4.03702438      33.88353613
Si       8.73802756       1.82837725      24.83279816
Si       7.33091631       4.73624524      24.25725816
Si       1.51084076       2.89071861      -0.48559188
Si       5.54347418       0.65522419      17.22691265
Si      10.48724996       2.79268501      32.03087639
Si      11.16063969       6.75873621      19.81598655
Si       6.97051212       3.83132877      11.08472716
Si       8.75468350       7.45127521      18.47921311
Si       4.76795749       3.63597355       9.57004633
Si       7.92986173       0.37355275      18.51087903
Si      12.79108212       3.03419472      33.35259116
Si       6.89401090       2.81161801      11.44018576
22
Lattice="4.6552365952441415 0.5428963468359765 2.545818488764648 2.7511301224169826 6.652026562368815 2.1219150501003052 8.602403513505996 0.5076051989165906 33.06973220303465" Properties=species:S:1:pos:R:3 unique_starting_index=40 config_type=initial n_minim_iter=4 stress="-0.0003428336169304701 -3.501738660006108e-05 -1.425023002265402e-05 -3.501738660006108e-05 6.441068582041531e-05 0.0001998794569494428 -1.425023002265402e-05 0.0001998794569494428 -0.00030747741215185037" pbc="T T T"
Si      12.80814045       4.15858990      33.07921340
Si       4.27201202       3.14434077      10.57646311
Si       8.21081810       1.05072848      17.85187933
Si       8.50441148       2.86929414      30.05160569
Si      10.50818919       3.66597853      31.80340789
Si       8.92241368       6.47624539      18.37853855
Si       4.81495275       2.42495548       9.73635762
Si       8.46506067       6.32310389      19.24767057
Si       3.74975385       2.59834396       1.06911888
Si      12.38684565       4.03141053      33.87696129
Si       8.74068552       1.82476190      24.82796555
Si       7.33265412       4.73154762      24.25221365
Si       1.51052664       2.88846019      -0.48534748
Si       5.54532603       0.65275865      17.22378173
Si      10.49009715       2.78807162      32.02454124
Si      11.16142451       6.75305611      19.81241063
Si       6.97099565       3.82804166      11.08301368
Si       8.75566955       7.44583144      18.47585214
Si       4.76804449       3.63284103       9.56796353
Si       7.93221214       0.37078234      18.50732383
Si      12.79452374       3.02882482      33.34591366
Si       6.89459010       2.80819277      11.43831083
22
Lattice="4.655551436745333 0.5410954749607676 2.5455557703138014 2.7497585525541766 6.6501053196764595 2.1202502385823045 8.600664207198788 0.49727126542317973 33.07241187629717" Properties=species:S:1:pos:R:3 unique_starting_index=40 config_type=initial n_minim_iter=5 stress="8.983931957693283e-05 0.000334741757897603 -0.0008340046303747853 0.000334741757897603 -0.00028673686205151063 -0.00069165183983801 -0.0008340046303747853 -0.00069165183983801 0.0014374254098226235" pbc="T T T"
Si      12.80669292       4.14736025      33.08039214
Si       4.27198480       3.14136801      10.57615987
Si       8.21073038       1.04415639      17.85273663
Si       8.50212144       2.85968555      30.05316314
Si      10.50624341       3.65555348      31.80530392
Si       8.92025154       6.46883919      18.37751172
Si       4.81431717       2.42144293       9.73682568
Si       8.46267380       6.31573611      19.24749984
Si       3.74944997       2.59746480       1.06817199
Si      12.38525366       4.01973466      33.87870140
Si       8.73951278       1.81656024      24.82932962
Si       7.33035602       4.72265756      24.25276740
Si       1.50982411       2.88676465      -0.48576703
Si       5.54460768       0.64679698      17.22545528
Si      10.48835459       2.77702274      32.02595957
Si      11.15922781       6.74461999      19.81153905
Si       6.96997181       3.82340372      11.08316151
Si       8.75402394       7.43823236      18.47561096
Si       4.76662975       3.62837459       9.56706998
Si       7.93145889       0.36408998      18.50845142
Si      12.79202120       3.01709918      33.34788557
Si       6.89360839       2.80287013      11.43849131
22
Lattice="4.655780596148172 0.5403062755785867 2.5453771042784394 2.7484256632368296 6.6506166176800035 2.12061503469528 8.60661883537965 0.49907630211676485 33.05943406686263" Properties=species:S:1:pos:R:3 unique_starting_index=40 config_type=initial n_minim_iter=6 stress="-0.0005049559504166309 0.0003138638276949444 0.0003558518056328599 0.0003138638276949444 0.0006472998105176234 -5.346577031127001e-05 0.0003558518056328599 -5.346577031127001e-05 -0.0008505918491521592" pbc="T T T"
Si      12.81196713       4.14883592      33.06858035
Si       4.27367737       3.14267080      10.57249488
Si       8.21399494       1.04439048      17.84648517
Si       8.50672012       2.86159266      30.04174946
Si      10.51110293       3.65741665      31.79399226
Si       8.92167451       6.46965725      18.37157010
Si       4.81541718       2.42187964       9.73396056
Si       8.46434307       6.31679535      19.24117230
Si       3.74879568       2.59727532       1.06865848
Si      12.39078438       4.02132063      33.86650084
Si       8.74366173       1.81772766      24.82013155
Si       7.33351528       4.72394698      24.24379818
Si       1.50888886       2.88624860      -0.48465866
Si       5.54772392       0.64744542      17.21918097
Si      10.49360328       2.77843831      32.01360537
Si      11.16075933       6.74495244      19.80543434
Si       6.97084355       3.82357045      11.08038448
Si       8.75559001       7.43921097      18.47020603
Si       4.76724600       3.62851987       9.56375080
Si       7.93456009       0.36425019      18.50177725
Si      12.79686567       3.01821488      33.33603008
Si       6.89479375       2.80262707      11.43523200
22
Lattice="4.6562685461306605 0.5375721075384007 2.5450407101891876 2.74428057430607 6.647710898630152 2.1219192105629436 8.60380294638254 0.5006523876160296 33.06097679479249" Properties=species:S:1:pos:R:3 unique_starting_index=40 config_type=initial n_minim_iter=7 stress="4.944717819639838e-06 -0.0010391969375578875 -6.950301585775877e-05 -0.0010391969375578875 -2.4653771660119737e-05 0.0005288444064687213 -6.950301585775877e-05 0.0005288444064687213 0.0005041730816669862" pbc="T T T"
Si      12.80842803       4.14680106      33.07012103
Si       4.27197223       3.14280404      10.57327853
Si       8.21345574       1.04278274      17.84692205
Si       8.50231777       2.86217084      30.04373114
Si      10.50646468       3.65700071      31.79690815
Si       8.91653956       6.46624818      18.37293743
Si       4.81335647       2.42038387       9.73501950
Si       8.45916924       6.31383079      19.24245678
Si       3.74739293       2.59464785       1.06905745
Si      12.38708259       4.01995987      33.86831696
Si       8.74138126       1.81737768      24.82112908
Si       7.32854928       4.72257715      24.24543182
Si       1.50759955       2.88384637      -0.48373132
Si       5.54651230       0.64740904      17.22038089
Si      10.48990885       2.77812581      32.01404156
Si      11.15592915       6.73989819      19.80656327
Si       6.96824293       3.82041424      11.08193051
Si       8.75008632       7.43555862      18.47243513
Si       4.76461148       3.62619593       9.56377927
Si       7.93357431       0.36285905      18.50238961
Si      12.79297930       3.01625540      33.33767387
Si       6.89306698       2.79959896      11.43615318
22
Lattice="4.656890578261165 0.5376055298203286 2.5439372930218935 2.7452101827918916 6.646971166039171 2.120218047518484 8.601517645045819 0.49657384632804624 33.05380086872035" Properties=species:S:1:pos:R:3 unique_starting_index=40 config_type=initial n_minim_iter=8 stress="0.000345336890571152 0.0010881494965295467 -0.0005617161854464826 0.0010881494965295467 -0.0004414326386483089 0.0008709956006999959 -0.0005617161854464826 0.0008709956006999959 -0.0001961400522790729" pbc="T T T"
Si      12.80789917       4.14268124      33.06170089
Si       4.27237209       3.14250698      10.57029468
Si       8.21334264       1.04086173      17.84237424
Si       8.50025089       2.85842601      30.03690132
Si      10.50475451       3.65351128      31.79017703
Si       8.91632635       6.46372474      18.36730692
Si       4.81291348       2.41915397       9.73265824
Si       8.45883092       6.31094786      19.23643422
Si       3.74779918       2.59466452       1.06827589
Si      12.38638248       4.01606436      33.85985191
Si       8.74042443       1.81472916      24.81512394
Si       7.32733944       4.71845095      24.23907582
Si       1.50860949       2.88309188      -0.48393187
Si       5.54582006       0.64536701      17.21687370
Si      10.48821095       2.77458003      32.00554257
Si      11.15598212       6.73712792      19.80043703
Si       6.96842243       3.81899496      11.07918037
Si       8.75021791       7.43276986      18.46713957
Si       4.76500531       3.62466084       9.56009088
Si       7.93286526       0.36074607      18.49802373
Si      12.79129371       3.01206019      33.32970606
Si       6.89338859       2.79812720      11.43308533
22
Lattice="4.657295936428773 0.534569018278252 2.5438579128547056 2.743219749265261 6.645381143704711 2.1166365068112025 8.60511985195844 0.47531507547781243 33.051490255620706" Properties=species:S:1:pos:R:3 unique_starting_index=40 config_type=initial n_minim_iter=9 stress="-0.00015343483259329645 -0.00012832869020537195 0.000502567554142098 -0.00012832869020537195 0.00021531079525548155 -0.0007501420936817039 0.000502567554142098 -0.0007501420936817039 0.0002490350670915095" pbc="T T T"
Si      12.81099300       4.12010527      33.05755703
Si       4.27309320       3.13682863      10.56804974
Si       8.21549039       1.02800952      17.84080745
Si       8.50221699       2.83907558      30.03366297
Si      10.50685768       3.63346618      31.78732310
Si       8.91605662       6.45089689      18.36271841
Si       4.81271019       2.41215310       9.73140091
Si       8.45887501       6.29754554      19.23150999
Si       3.74693411       2.59303181       1.06747880
Si      12.38982960       3.99362573      33.85561805
Si       8.74300384       1.79849125      24.81265989
Si       7.32828274       4.70188794      24.23467362
Si       1.50800393       2.88215980      -0.48498341
Si       5.54793481       0.63397173      17.21602623
Si      10.49109363       2.75399454      32.00128785
Si      11.15581521       6.72254251      19.79602291
Si       6.96838165       3.81060060      11.07758628
Si       8.74981504       7.41995251      18.46253280
Si       4.76551138       3.61782616       9.55670163
Si       7.93519611       0.34761055      18.49692629
Si      12.79393394       2.98904868      33.32658287
Si       6.89418355       2.78941600      11.43150322
22
Lattice="4.659257220697978 0.5316919837025529 2.5409589836233635 2.7406562455303596 6.642044035469774 2.114225499196137 8.59833458452192 0.4682058859278855 33.03380653655118" Properties=species:S:1:pos:R:3 unique_starting_index=40 config_type=initial n_minim_iter=10 stress="0.001813701274669219 -0.00039069388667459855 -0.00035886629276299527 -0.00039069388667459855 -4.151492332159098e-05 -0.0003698727854409845 -0.00035886629276299527 -0.0003698727854409845 -0.0008483881524171782" pbc="T T T"
Si      12.80579281       4.10985693      33.03804832
Si       4.27110149       3.13618659      10.56185851
Si       8.21395265       1.02112492      17.82956972
Si       8.49409561       2.83064790      30.01743622
Si      10.49942033       3.62745425      31.77072836
Si       8.91105320       6.44293456      18.34997637
Si       4.80935155       2.40771882       9.72634170
Si       8.45387164       6.28936928      19.21844795
Si       3.74735198       2.59102642       1.06628451
Si      12.38516707       3.98370785      33.83559781
Si       8.73918228       1.79253368      24.79808170
Si       7.32113469       4.69266048      24.22007947
Si       1.50760579       2.87849791      -0.48461704
Si       5.54550955       0.62941415      17.20730643
Si      10.48546642       2.74669152      31.98108269
Si      11.15115694       6.71286733      19.78274447
Si       6.96643515       3.80472425      11.07170566
Si       8.74469900       7.41188677      18.45125767
Si       4.76522512       3.61350042       9.54824852
Si       7.93379086       0.34203484      18.48536719
Si      12.78773440       2.97831296      33.30714239
Si       6.89344832       2.78394256      11.42409392
22
Lattice="4.658807310429247 0.531569488919249 2.541838713413792 2.7400298889648194 6.64115956382239 2.1154864487267804 8.600019738707488 0.47091537529869665 33.04003019280376" Properties=species:S:1:pos:R:3 unique_starting_index=40 config_type=initial n_minim_iter=11 stress="-0.0003708970107862148 0.00025531093208391777 0.0008679522471215115 0.00025531093208391777 -0.0005078719713237644 0.0004166114356149575 0.0008679522471215115 0.0004166114356149575 0.001260777841749719" pbc="T T T"
Si      12.80685872       4.11188113      33.04491141
Si       4.27149882       3.13781564      10.56441849
Si       8.21446067       1.02199854      17.83324153
Si       8.49493244       2.83226910      30.02341399
Si      10.50015870       3.63056755      31.77775143
Si       8.91065936       6.44325768      18.35391340
Si       4.80866605       2.40783091       9.72915599
Si       8.45400217       6.28972075      19.22267946
Si       3.74683948       2.59094448       1.06733457
Si      12.38673919       3.98578477      33.84264927
Si       8.74022060       1.79462648      24.80298045
Si       7.32175416       4.69301779      24.22478810
Si       1.50738081       2.87707189      -0.48383363
Si       5.54640614       0.63050698      17.21096307
Si      10.48683922       2.74947371      31.98660332
Si      11.15049582       6.71289403      19.78758296
Si       6.96607601       3.80481179      11.07522239
Si       8.74447967       7.41211635      18.45596572
Si       4.76609630       3.61360583       9.54974250
Si       7.93441514       0.34341226      18.48910380
Si      12.78836562       2.98016908      33.31426392
Si       6.89338049       2.78415561      11.42690083
22
Lattice="4.660734726746516 0.5294206398145395 2.538787745664254 2.7385931757873467 6.639413341192513 2.1124142020318217 8.596245324287247 0.4631846104973397 33.01503068542181" Properties=species:S:1:pos:R:3 unique_starting_index=40 config_type=initial n_minim_iter=12 stress="0.0010990009303660246 -0.00010440506890921757 0.000544853193747574 -0.00010440506890921757 -0.0002856067251193712 -2.589352826580762e-05 0.000544853193747574 -2.589352826580762e-05 0.00017658061987247263" pbc="T T T"
Si      12.80463471       4.10267399      33.01764748
Si       4.27058567       3.13802491      10.55599265
Si       8.21492366       1.01615515      17.81845961
Si       8.49022559       2.82354227      30.00026465
Si      10.49545350       3.62485396      31.75407758
Si       8.90785104       6.43691984      18.33652363
Si       4.80604281       2.40392050       9.72277563
Si       8.45178870       6.28326494      19.20590261
Si       3.74833177       2.59045691       1.06577253
Si      12.38436243       3.97630310      33.81574303
Si       8.73865816       1.78900207      24.78314841
Si       7.31741805       4.68398420      24.20453016
Si       1.50825774       2.87384819      -0.48313423
Si       5.54497978       0.62511924      17.19795280
Si      10.48414054       2.74290236      31.95889369
Si      11.14866303       6.70433820      19.76986773
Si       6.96577594       3.80063535      11.06707277
Si       8.74139996       7.40579405      18.44028347
Si       4.76791627       3.61012322       9.53924054
Si       7.93413055       0.33804622      18.47462417
Si      12.78534756       2.97000189      33.28891066
Si       6.89331530       2.77937880      11.41668517
22
Lattice="4.661773059177462 0.5291638579635657 2.5369096448237483 2.7388917141157427 6.6390993865355235 2.110822197556405 8.595457486246861 0.46210391691224184 32.995760512506266" Properties=species:S:1:pos:R:3 unique_starting_index=40 config_type=initial n_minim_iter=13 stress="0.001022578195908599 8.316925663181896e-06 0.0007355984473907222 8.316925663181896e-06 -0.0002173393027836461 -7.788479479757644e-05 0.0007355984473907222 -7.788479479757644e-05 7.611473555612244e-05" pbc="T T T"
Si      12.80514506       4.10124275      32.99686617
Si       4.27093191       3.14046793      10.54979397
Si       8.21529548       1.01514564      17.80667567
Si       8.48854944       2.82168295      29.98300473
Si      10.49396900       3.62541198      31.73687772
Si       8.90808200       6.43620717      18.32400208
Si       4.80446874       2.40304334       9.71920182
Si       8.45260019       6.28209906      19.19418146
Si       3.74966121       2.59104011       1.06608979
Si      12.38494009       3.97608420      33.79579755
Si       8.73894572       1.78906307      24.76829401
Si       7.31649900       4.68060919      24.18921302
Si       1.50886650       2.87150001      -0.48238269
Si       5.54506650       0.62343261      17.18821283
Si      10.48526555       2.74296929      31.93771830
Si      11.14873925       6.70216385      19.75720893
Si       6.96700164       3.80089175      11.06153183
Si       8.74148824       7.40488050      18.42908464
Si       4.77070573       3.60911984       9.53168139
Si       7.93408625       0.33733064      18.46414730
Si      12.78538077       2.96852726      33.26919045
Si       6.89366768       2.77817136      11.40898512
22
Lattice="4.662675256819973 0.5296036933695282 2.535127350103527 2.7394548161946317 6.638638960262427 2.1105303351530074 8.592571265095243 0.467618767057636 32.979840948771184" Properties=species:S:1:pos:R:3 unique_starting_index=40 config_type=initial n_minim_iter=14 stress="0.0009372033362119349 8.334567025053768e-05 0.0006852855591371998 8.334567025053768e-05 -0.00025411562722878607 -0.00017786578680086955 0.0006852855591371998 -0.00017786578680086955 -5.452625941196356e-05" pbc="T T T"
Si      12.80358123       4.10617954      32.98030040
Si       4.27064940       3.14468648      10.54492412
Si       8.21476402       1.01710907      17.79664750
Si       8.48570902       2.82611525      29.96863133
Si      10.49047479       3.63201354      31.72316983
Si       8.90737402       6.43878902      18.31432388
Si       4.80236952       2.40410101       9.71742955
Si       8.45212255       6.28375284      19.18485095
Si       3.75098219       2.59185640       1.06656465
Si      12.38360786       3.98302836      33.77927096
Si       8.73767977       1.79399526      24.75611226
Si       7.31432025       4.68169252      24.17706583
Si       1.50961332       2.86885090      -0.48078806
Si       5.54361827       0.62538594      17.18011160
Si      10.48441663       2.74817076      31.91996800
Si      11.14848540       6.70432513      19.74831782
Si       6.96803131       3.80358570      11.05730162
Si       8.74019320       7.40718946      18.42020576
Si       4.77274800       3.60928817       9.52579020
Si       7.93375262       0.34074019      18.45529638
Si      12.78348942       2.97391795      33.25371312
Si       6.89373735       2.77941326      11.40244236
22
Lattice="4.663173224448782 0.5301967451429881 2.5340690953996257 2.7390314339437203 6.639070784545949 2.1124179475885367 8.588011870704184 0.4804014606762169 32.973497654674595" Properties=species:S:1:pos:R:3 unique_starting_index=40 config_type=initial n_minim_iter=15 stress="0.0008501722327906372 -7.963267353356998e-05 0.00041065664215672007 -7.963267353356998e-05 -0.00010392150080102299 8.486847061711996e-05 0.00041065664215672007 8.486847061711996e-05 6.98098556032833e-05" pbc="T T T"
Si      12.79948148       4.11823145      32.97420765
Si       4.26934131       3.15082924      10.54376432
Si       8.21275231       1.02287106      17.79181290
Si       8.48149932       2.83749951      29.96303987
Si      10.48545179       3.64505576      31.71944624
Si       8.90532479       6.44553876      18.31222288
Si       4.79983555       2.40725373       9.71874045
Si       8.45034479       6.28970101      19.18247161
Si       3.75143797       2.59308106       1.06721466
Si      12.37950748       3.99672092      33.77338356
Si       8.73478704       1.80400680      24.75142289
Si       7.31046055       4.68894819      24.17314811
Si       1.51048165       2.86623419      -0.47915815
Si       5.54160318       0.63142529      17.17701337
Si      10.48113519       2.76073175      31.91318446
Si      11.14570945       6.71077553      19.74636581
Si       6.96746320       3.80840621      11.05653735
Si       8.73709513       7.41394141      18.41852739
Si       4.77300842       3.61145396       9.52381466
Si       7.93160096       0.34782004      18.45111994
Si      12.77921479       2.98659863      33.24843574
Si       6.89333653       2.78357131      11.39984664
22
Lattice="4.663408670891779 0.5309721514630049 2.5334630372023788 2.7390391320259426 6.64032144294612 2.113911730614139 8.585216045125494 0.4903484620707751 32.96956020843297" Properties=species:S:1:pos:R:3 unique_starting_index=40 config_type=initial n_minim_iter=16 stress="0.0005443893250562261 -7.240919361794595e-05 0.00017474438126138214 -7.240919361794595e-05 0.0002239005140547567 4.5632913134592855e-05 0.00017474438126138214 4.5632913134592855e-05 8.506628843013233e-05" pbc="T T T"
Si      12.79752941       4.12788326      32.97057917
Si       4.26875399       3.15669538      10.54323135
Si       8.21181374       1.02802271      17.78844039
Si       8.47913552       2.84664423      29.95990791
Si      10.48189103       3.65612040      31.71739657
Si       8.90402272       6.45195046      18.31120878
Si       4.79792739       2.40984235       9.72107830
Si       8.44952309       6.29504043      19.18089946
Si       3.75191898       2.59506984       1.06800037
Si      12.37737819       4.00805778      33.77020404
Si       8.73302272       1.81219847      24.74863092
Si       7.30814996       4.69475682      24.17055351
Si       1.51048208       2.86387768      -0.47814445
Si       5.54021733       0.63583197      17.17479057
Si      10.47908240       2.77115502      31.90894508
Si      11.14416479       6.71645421      19.74575721
Si       6.96684755       3.81308580      11.05619669
Si       8.73497717       7.42026912      18.41785494
Si       4.77355903       3.61310028       9.52227344
Si       7.93014715       0.35349996      18.44868200
Si      12.77711778       2.99743876      33.24529974
Si       6.89392459       2.78792713      11.39811110
22
Lattice="4.663471679533374 0.5318384468565098 2.533162496379998 2.7392030424793843 6.641411628064356 2.115459817554142 8.583489617156921 0.4998175916808772 32.967174259479535" Properties=species:S:1:pos:R:3 unique_starting_index=40 config_type=initial n_minim_iter=17 stress="0.00014395417429754692 -9.345053265652793e-05 -9.949028280781942e-05 -9.345053265652793e-05 0.0003868372050461372 4.809716024830099e-05 -9.949028280781942e-05 4.809716024830099e-05 4.6412426894644914e-05" pbc="T T T"
Si      12.79612459       4.13679226      32.96855833
Si       4.26861573       3.16277678      10.54332977
Si       8.21138002       1.03308895      17.78586009
Si       8.47760110       2.85506161      29.95844242
Si      10.47996305       3.66706880      31.71709095
Si       8.90302809       6.45826666      18.31087290
Si       4.79642634       2.41198741       9.72455575
Si       8.44893317       6.30009894      19.18030453
Si       3.75203526       2.59687811       1.06875349
Si      12.37569509       4.01903568      33.76831827
Si       8.73188590       1.82006335      24.74717867
Si       7.30667126       4.69995217      24.16891646
Si       1.51092637       2.86187028      -0.47642393
Si       5.53906120       0.63943325      17.17316839
Si      10.47876004       2.78123606      31.90630191
Si      11.14325690       6.72165005      19.74637939
Si       6.96597351       3.81780458      11.05631775
Si       8.73365621       7.42622747      18.41823801
Si       4.77428276       3.61418762       9.52092286
Si       7.92921577       0.35910702      18.44726772
Si      12.77553343       3.00784962      33.24342826
Si       6.89516461       2.79264982      11.39698084
22
Lattice="4.663265623158409 0.5333492273641519 2.5331797667265894 2.7397106915113016 6.643079658523813 2.1179135211969333 8.58140650204337 0.5134327612191814 32.96790269705716" Properties=species:S:1:pos:R:3 unique_starting_index=40 config_type=initial n_minim_iter=18 stress="-0.0005905469258305248 -0.0001289927885112807 -0.000667900401119122 -0.0001289927885112807 0.0005836074240223012 -3.4816354717409905e-05 -0.000667900401119122 -3.4816354717409905e-05 0.0001262944559120008" pbc="T T T"
Si      12.79468047       4.14993091      32.97040230
Si       4.26878102       3.17303956      10.54507449
Si       8.21029263       1.03980434      17.78369487
Si       8.47672607       2.86669077      29.96024232
Si      10.47665847       3.68311680      31.72103090
Si       8.90219670       6.46796280      18.31227073
Si       4.79453958       2.41436931       9.73269390
Si       8.44833260       6.30725520      19.18237229
Si       3.75255972       2.59915814       1.06997496
Si      12.37363156       4.03580900      33.76980302
Si       8.73031008       1.83161329      24.74847306
Si       7.30487313       4.70673922      24.16911522
Si       1.51125131       2.85963958      -0.47408034
Si       5.53740701       0.64359158      17.17315187
Si      10.47832344       2.79651114      31.90512660
Si      11.14143170       6.72927816      19.74989962
Si       6.96407620       3.82565297      11.05794807
Si       8.73286102       7.43530500      18.42139130
Si       4.77549563       3.61477727       9.51914122