22
Lattice="4.65223571941911 0.5424813280721209 2.5514178508932464 2.716580596130118 6.664013589549532 2.182629124499553 8.653507282191226 0.7743509948270225 32.982044751496744" Properties=species:S:1:pos:R:3 unique_starting_index=40 config_type=initial n_minim_iter=1 energy=-4076.4736198185774 free_energy=-4076.4736198185774 pbc="T T T"
Si      12.84448505       4.41043938      33.03164010
Si       4.28055359       3.48959222      10.52119894
Si       8.30040120       1.16977915      17.67991833
Si       8.53558963       3.10682815      30.01647935
Si      10.54065483       3.91694207      31.76289246
Si       8.93547309       6.69641359      18.32486527
Si       4.64800188       2.40578002      10.08607742
Si       8.48708840       6.47233832      19.18955647
Si       3.72061663       2.60058987       1.12803289
Si      12.42062898       4.29351194      33.82976877
Si       8.75087644       1.92466458      24.79723148
Si       7.36082978       4.82579447      24.15445926
Si       1.48926402       2.87843540      -0.43752434
Si       5.56794208       0.77437384      17.17131515
Si      10.51945069       3.03959831      31.98856887
Si      11.12208350       6.85550589      19.87844640
Si       6.89565577       3.93640476      11.23211528
Si       8.72982625       7.64808376      18.49682992
Si       4.87968074       3.41642220       9.44381663
Si       7.94602206       0.64824101      18.43669924
Si      12.81806992       3.27865964      33.32042480
Si       6.95484985       2.86541149      11.35327314
22
Lattice="4.65224208512164 0.5424101305588844 2.5514198178211833 2.7164390627230413 6.663906834939567 2.1827323941293493 8.65342949462314 0.7746646910347484 32.98214529906506" Properties=species:S:1:pos:R:3 unique_starting_index=40 config_type=initial n_minim_iter=2 stress="-2.787566791559536e-05 1.8822864692303198e-06 -1.0574059176442347e-05 1.8822864692303198e-06 -2.8431922960360838e-05 1.8387850441974782e-05 -1.0574059176442347e-05 1.8387850441974782e-05 -1.8997810758686544e-05" pbc="T T T"
Si      12.84436987       4.41064727      33.03182686
Si       4.28047622       3.48957626      10.52126146
Si       8.30035447       1.16985646      17.68000359
Si       8.53550361       3.10706274      30.01655246
Si      10.54049949       3.91715453      31.76305837
Si       8.93531571       6.69642574      18.32497210
Si       4.64794209       2.40582791      10.08614947
Si       8.48691224       6.47237411      19.18971079
Si       3.72058234       2.60049859       1.12802153
Si      12.42051234       4.29371127      33.82990040
Si       8.75080991       1.92482976      24.79731440
Si       7.36068774       4.82589971      24.15458316
Si       1.48922947       2.87834679      -0.43746186
Si       5.56789742       0.77449565      17.17138567
Si      10.51932818       3.03985642      31.98865617
Si      11.12194632       6.85550478      19.87855988
Si       6.89556884       3.93639843      11.23219075
Si       8.72965977       7.64809038      18.49698332
Si       4.87958627       3.41639141       9.44390185
Si       7.94598158       0.64838291      18.43673344
Si      12.81787641       3.27883030      33.32062875
Si       6.95478396       2.86540387      11.35334404
22
Lattice="4.6522713681281695 0.5423958194438452 2.551436158943285 2.716441237647386 6.663923054513363 2.1827327585207126 8.65353035215368 0.7745844401458009 32.98228467416069" Properties=species:S:1:pos:R:3 unique_starting_index=40 config_type=initial n_minim_iter=3 stress="0.0004926296388475254 5.8871713015181964e-05 0.0002500703752211392 5.8871713015181964e-05 2.317483463226131e-05 4.830457807935649e-05 0.0002500703752211392 4.830457807935649e-05 0.0001691058854038158" pbc="T T T"
Si      12.84449189       4.41057151      33.03196696
Si       4.28051196       3.48954892      10.52129880
Si       8.30042751       1.16981191      17.68008829
Si       8.53559158       3.10699621      30.01667608
Si      10.54060279       3.91709224      31.76319758
Si       8.93537984       6.69639844      18.32503830
Si       4.64797852       2.40581175      10.08619535
Si       8.48697154       6.47234432      19.18978628
Si       3.72059545       2.60049938       1.12802865
Si      12.42063214       4.29363638      33.83004281
Si       8.75089743       1.92476809      24.79741905
Si       7.36075815       4.82584094      24.15467512
Si       1.48922720       2.87834822      -0.43746113
Si       5.56795531       0.77445084      17.17146208
Si      10.51943020       3.03978557      31.98878310
Si      11.12202500       6.85547188      19.87863485
Si       6.89561665       3.93638142      11.23223706
Si       8.72972410       7.64806612      18.49705535
Si       4.87961751       3.41636865       9.44394284
Si       7.94605429       0.64833669      18.43681438
Si      12.81798952       3.27874834      33.32076884
Si       6.95483342       2.86537823      11.35339583
22
Lattice="4.652249172161362 0.5422347076840035 2.5514267135247692 2.71624918231482 6.664023795266967 2.1826090127240696 8.653235828159232 0.7736973605713815 32.982764038966636" Properties=species:S:1:pos:R:3 unique_starting_index=40 config_type=initial n_minim_iter=4 stress="4.023140790852734e-05 -1.207372485122784e-05 -0.00012892143152092947 -1.207372485122784e-05 0.00024753068664822535 -5.667552997019405e-07 -0.00012892143152092947 -5.667552997019405e-07 0.00019862431928560243" pbc="T T T"
Si      12.84416948       4.40969058      33.03233684
Si       4.28036262       3.48923243      10.52133978
Si       8.30026230       1.16930362      17.68034420
Si       8.53524490       3.10623584      30.01706156
Si      10.54025561       3.91635152      31.76363937
Si       8.93506314       6.69601941      18.32508338
Si       4.64783316       2.40559815      10.08631530
Si       8.48661420       6.47194265      19.18990892
Si       3.72049644       2.60047609       1.12797693
Si      12.42029148       4.29276426      33.83043263
Si       8.75066761       1.92407423      24.79771997
Si       7.36044339       4.82517161      24.15489510
Si       1.48913245       2.87834513      -0.43749429
Si       5.56779825       0.77395603      17.17171882
Si      10.51907063       3.03896950      31.98911586
Si      11.12169627       6.85502614      19.87867897
Si       6.89543234       3.93614016      11.23228234
Si       8.72941063       7.64771066      18.49715037
Si       4.87942565       3.41609457       9.44402043
Si       7.94588756       0.64781230      18.43703513
Si      12.81759024       3.27781812      33.32113666
Si       6.95466278       2.86506345      11.35349062
22
Lattice="4.6522752712650615 0.5420276803067501 2.5514475950347304 2.7161064001302027 6.663679747547005 2.182447431781551 8.654053769744843 0.7726581173601652 32.98178919464616" Properties=species:S:1:pos:R:3 unique_starting_index=40 config_type=initial n_minim_iter=5 stress="-5.70157390258364e-06 -6.8099122152484235e-06 2.846495272253002e-05 -6.8099122152484235e-06 -1.2793801351230803e-05 7.808266688437e-06 2.846495272253002e-05 7.808266688437e-06 -4.164672432797647e-05" pbc="T T T"
Si      12.84493132       4.40841053      33.03138961
Si       4.28055722       3.48863278      10.52095908
Si       8.30066213       1.16867323      17.67995842
Si       8.53589460       3.10517702      30.01615243
Si      10.54094910       3.91526355      31.76277019
Si       8.93531683       6.69515065      18.32444905
Si       4.64800458       2.40519883      10.08606486
Si       8.48686259       6.47106198      19.18928036
Si       3.72039135       2.60028600       1.12799278
Si      12.42106435       4.29150480      33.82944790
Si       8.75125657       1.92317392      24.79700369
Si       7.36093466       4.82407551      24.15406617
Si       1.48901122       2.87813493      -0.43745605
Si       5.56821625       0.77335673      17.17125524
Si      10.51976758       3.03787045      31.98809427
Si      11.12197118       6.85408029      19.87803186
Si       6.89558980       3.93561029      11.23196463
Si       8.72968555       7.64679500      18.49655838
Si       4.87952323       3.41555239       9.44376493
Si       7.94631649       0.64718918      18.43655027
Si      12.81827327       3.27657314      33.32016777
Si       6.95483122       2.86453145      11.35322585
22
Lattice="4.652297684282822 0.5417975131910558 2.5514569295665344 2.7159662723200046 6.663361157433443 2.1822013570728656 8.653969458161354 0.7710518660996939 32.98241127687283" Properties=species:S:1:pos:R:3 unique_starting_index=40 config_type=initial n_minim_iter=6 stress="2.1447244948902853e-05 5.321982752708368e-05 -4.881110187667518e-05 5.321982752708368e-05 -0.00015976724784750237 -4.431548068141373e-05 -4.881110187667518e-05 -4.431548068141373e-05 0.00012547035075315723" pbc="T T T"
Si      12.84489813       4.40661891      33.03182107
Si       4.28050155       3.48786467      10.52101254
Si       8.30068445       1.16783707      17.68027589
Si       8.53575812       3.10361196      30.01663013
Si      10.54071484       3.91368578      31.76334585
Si       8.93513060       6.69405142      18.32447251
Si       4.64791777       2.40460393      10.08620897
Si       8.48665633       6.46991722      19.18926424
Si       3.72025655       2.60014748       1.12789927
Si      12.42095968       4.28969894      33.82994404
Si       8.75122791       1.92185302      24.79737976
Si       7.36081530       4.82247306      24.15426250
Si       1.48900898       2.87792461      -0.43751258
Si       5.56821428       0.77252404      17.17158266
Si      10.51967957       3.03629924      31.98845956
Si      11.12177587       6.85290688      19.87801717
Si       6.89554090       3.93492658      11.23200690
Si       8.72955279       7.64566119      18.49665536
Si       4.87943373       3.41486167       9.44381820
Si       7.94630095       0.64620669      18.43688552
Si      12.81813714       3.27478270      33.32068265
Si       6.95473785       2.86388524      11.35334157
22
Lattice="4.652323036405929 0.5416337534373101 2.551444079096173 2.715772373915098 6.663533503355484 2.182106544179506 8.654492662371544 0.770450687218325 32.98145525999267" Properties=species:S:1:pos:R:3 unique_starting_index=40 config_type=initial n_minim_iter=7 stress="-3.7493182248668377e-06 -2.5446827167791263e-05 3.892855303577012e-05 -2.5446827167791263e-05 0.00012200825960327085 1.3874808093829018e-07 3.892855303577012e-05 1.3874808093829018e-07 -8.782622095593902e-05" pbc="T T T"
Si      12.84533212       4.40603633      33.03089672
Si       4.28057338       3.48768327      10.52071290
Si       8.30096748       1.16750612      17.67983599
Si       8.53614218       3.10311516      30.01575340
Si      10.54106090       3.91324917      31.76251902
Si       8.93517961       6.69387232      18.32392460
Si       4.64797779       2.40442123      10.08595839
Si       8.48673087       6.46971948      19.18862137
Si       3.72013292       2.60015928       1.12789997
Si      12.42140474       4.28912660      33.82898839
Si       8.75160495       1.92136086      24.79666842
Si       7.36107455       4.82197301      24.15348406
Si       1.48890832       2.87792291      -0.43746002
Si       5.56850321       0.77222998      17.17111178
Si      10.52013828       3.03578869      31.98744700
Si      11.12183818       6.85268229      19.87742010
Si       6.89561504       3.93476813      11.23171368
Si       8.72961968       7.64553462      18.49615980
Si       4.87947430       3.41468573       9.44355989
Si       7.94659242       0.64575745      18.43640009
Si      12.81855932       3.27413546      33.31978248
Si       6.95479612       2.86369699      11.35307095
22
Lattice="4.6523379326614505 0.5413449722689234 2.5514828920469226 2.7154901679197088 6.663081743255974 2.182011969218582 8.65443440559901 0.7693218330563761 32.98226611262813" Properties=species:S:1:pos:R:3 unique_starting_index=40 config_type=initial n_minim_iter=8 stress="-1.9267578511531875e-05 -3.327040733086631e-05 1.726294528033053e-05 -3.327040733086631e-05 -2.6978110121125314e-05 1.383884182305083e-05 1.726294528033053e-05 1.383884182305083e-05 5.0785080917190695e-05" pbc="T T T"
Si      12.84516700       4.40457615      33.03162838
Si       4.28044770       3.48699719      10.52097174
Si       8.30097272       1.16685933      17.68028488
Si       8.53594617       3.10188218      30.01644042
Si      10.54086670       3.91214140      31.76344326
Si       8.93484622       6.69288210      18.32416227
Si       4.64780654       2.40377938      10.08619891
Si       8.48643106       6.46869575      19.18879218
Si       3.71998681       2.59996522       1.12788457
Si      12.42131228       4.28771112      33.82973465
Si       8.75159156       1.92029867      24.79720309
Si       7.36090691       4.82042359      24.15386096
Si       1.48871018       2.87754627      -0.43746201
Si       5.56852372       0.77166837      17.17156618
Si      10.52007678       3.03457681      31.98793073
Si      11.12152129       6.85164142      19.87765209
Si       6.89552974       3.93407675      11.23191561
Si       8.72933470       7.64450500      18.49653217
Si       4.87937248       3.41400225       9.44371516
Si       7.94659661       0.64492132      18.43681202
Si      12.81836814       3.27268850      33.32061695
Si       6.95461300       2.86312293      11.35331806
22
Lattice="4.652474210719998 0.5412738670005585 2.551250337613896 2.715585796977995 6.663004687524509 2.181614424046661 8.654060229509138 0.7681578031686616 32.98063028565758" Properties=species:S:1:pos:R:3 unique_starting_index=40 config_type=initial n_minim_iter=9 stress="0.0002111745289691538 0.00014252824402394133 -0.00015310533795672693 0.00014252824402394133 1.4980368578792548e-07 -1.3600813869086483e-05 -0.00015310533795672693 -1.3600813869086483e-05 -0.00022585392597703873" pbc="T T T"
Si      12.84503969       4.40341863      33.02979658
Si       4.28041969       3.48659379      10.52040504
Si       8.30089777       1.16637056      17.67936921
Si       8.53561561       3.10076598      30.01491131
Si      10.54053629       3.91123241      31.76185792
Si       8.93482961       6.69236592      18.32283846
Si       4.64769324       2.40325926      10.08558504
Si       8.48638501       6.46809785      19.18746916
Si       3.72007436       2.60001761       1.12769016
Si      12.42113542       4.28662943      33.82782278
Si       8.75146855       1.91936876      24.79584445
Si       7.36075639       4.81907805      24.15236757
Si       1.48881482       2.87734133      -0.43750336
Si       5.56836904       0.77112722      17.17071612
Si      10.51986672       3.03354427      31.98600677
Si      11.12158158       6.85111371      19.87621176
Si       6.89564698       3.93371521      11.23115611
Si       8.72932346       7.64396218      18.49529132
Si       4.87944877       3.41359180       9.44307554
Si       7.94653088       0.64424780      18.43576746
Si      12.81807094       3.27151861      33.31881138
Si       6.95456923       2.86279136      11.35260626
22
Lattice="4.652410420653874 0.5409533208442743 2.5514330970738337 2.7152771464194516 6.662777754867971 2.1814766587668273 8.654754773537219 0.7663860106075968 32.981789460541506" Properties=species:S:1:pos:R:3 unique_starting_index=40 config_type=initial n_minim_iter=10 stress="-4.504554045457087e-05 7.86646772926939e-06 4.270538281397149e-05 7.86646772926939e-06 1.978796281210926e-05 -9.294875575459845e-05 4.270538281397149e-05 -9.294875575459845e-05 4.5126992904355436e-05" pbc="T T T"
Si      12.84553658       4.40143229      33.03094948
Si       4.28047696       3.48592674      10.52082659
Si       8.30108639       1.16540374      17.68015593
Si       8.53606832       3.09904468      30.01596567
Si      10.54087621       3.90967631      31.76309153
Si       8.93482227       6.69134238      18.32320956
Si       4.64763848       2.40239470      10.08591099
Si       8.48645097       6.46700024      19.18791497
Si       3.71985501       2.59990482       1.12777837
Si      12.42165476       4.28477716      33.82894577
Si       8.75195178       1.91784444      24.79668723
Si       7.36112573       4.81708484      24.15291610
Si       1.48868308       2.87699792      -0.43748988
Si       5.56867701       0.77022881      17.17138324
Si      10.52045760       3.03184707      31.98682965
Si      11.12159449       6.84994937      19.87668079
Si       6.89570325       3.93295182      11.23153388
Si       8.72927398       7.64291487      18.49577038
Si       4.87953295       3.41286269       9.44334477
Si       7.94686630       0.64307815      18.43644070
Si      12.81844570       3.26952667      33.32002478
Si       6.95447774       2.86204660      11.35305729
22
Lattice="4.652460816716386 0.5408792969847879 2.551353840503896 2.715039811977889 6.662668213798793 2.1817252189992633 8.654446675661609 0.767608990229999 32.98121512844533" Properties=species:S:1:pos:R:3 unique_starting_index=40 config_type=initial n_minim_iter=11 stress="3.589606219198279e-05 -6.57785893077861e-05 -2.858118982552387e-05 -6.57785893077861e-05 -2.6269592004742424e-05 7.33648387945569e-05 -2.858118982552387e-05 7.33648387945569e-05 1.649696802224895e-05" pbc="T T T"
Si      12.84523652       4.40241386      33.03045256
Si       4.28030840       3.48621224      10.52086978
Si       8.30090920       1.16603766      17.67991657
Si       8.53566768       3.10003843      30.01560472
Si      10.54040054       3.91087926      31.76281681
Si       8.93452055       6.69189230      18.32304998
Si       4.64741451       2.40249716      10.08579649
Si       8.48612734       6.46757049      19.18776581
Si       3.71979970       2.59988713       1.12788689
Si      12.42128504       4.28591077      33.82851965
Si       8.75177331       1.91857149      24.79626531
Si       7.36081881       4.81737050      24.15256866
Si       1.48860511       2.87666928      -0.43731661
Si       5.56850187       0.77086245      17.17110101
Si      10.52018179       3.03302137      31.98613172
Si      11.12133126       6.85043640      19.87639166
Si       6.89560425       3.93317329      11.23147238
Si       8.72887416       7.64344113      18.49575580
Si       4.87943291       3.41298138       9.44333157
Si       7.94677172       0.64363890      18.43609126
Si      12.81809365       3.27054957      33.31953889
Si       6.95427531       2.86225294      11.35297089
22
Lattice="4.6524574692866745 0.5409454223683537 2.5513421375409973 2.7152284735833967 6.662786374486249 2.1815152280871946 8.65483845879715 0.7668999885844322 32.98050893375375" Properties=species:S:1:pos:R:3 unique_starting_index=40 config_type=initial n_minim_iter=12 stress="-3.9112068458557116e-05 4.400678322654572e-05 2.0060168108253674e-05 4.400678322654572e-05 3.448449034873525e-05 1.431209634337675e-05 2.0060168108253674e-05 1.431209634337675e-05 1.1928348911009822e-05" pbc="T T T"
Si      12.84569263       4.40185067      33.02962080
Si       4.28054798       3.48610253      10.52061133
Si       8.30103018       1.16590833      17.67964244
Si       8.53604847       3.09943469      30.01489414
Si      10.54078100       3.91046804      31.76219817
Si       8.93489002       6.69185045      18.32247296
Si       4.64750491       2.40227766      10.08552661
Si       8.48649882       6.46744073      19.18717765
Si       3.71984633       2.60010431       1.12786238
Si      12.42172537       4.28541032      33.82778430
Si       8.75211778       1.91803764      24.79572265
Si       7.36127784       4.81650790      24.15184079
Si       1.48865075       2.87659315      -0.43731739
Si       5.56868833       0.77056286      17.17074506
Si      10.52069106       3.03250969      31.98526189
Si      11.12172152       6.85034678      19.87570703
Si       6.89584246       3.93311858      11.23118725
Si       8.72921523       7.64336318      18.49521802
Si       4.87963624       3.41282526       9.44313307
Si       7.94696861       0.64333021      18.43576444
Si      12.81848304       3.26996419      33.31891050
Si       6.95437682       2.86209364      11.35275535
22
Lattice="4.652523208742295 0.5408125820434846 2.5512496656913966 2.7151753077492997 6.6626247846176465 2.1812904528810146 8.654772158847301 0.7659528704199194 32.97981846984266" Properties=species:S:1:pos:R:3 unique_starting_index=40 config_type=initial n_minim_iter=13 stress="9.158884847675586e-05 -0.00013792784553017618 -2.865690844782665e-05 -0.00013792784553017618 -3.074749681726598e-05 -0.0001171746272585926 -2.865690844782665e-05 -0.0001171746272585926 -4.3716256254421944e-05" pbc="T T T"
Si      12.84563236       4.40079589      33.02879460
Si       4.28054119       3.48576275      10.52029480
Si       8.30100723       1.16540122      17.67927409
Si       8.53596572       3.09851578      30.01419074
Si      10.54065629       3.90957443      31.76148741
Si       8.93485410       6.69128072      18.32187390
Si       4.64747100       2.40191867      10.08523754
Si       8.48645997       6.46682322      19.18657201
Si       3.71986423       2.60006017       1.12778367
Si      12.42166058       4.28440502      33.82695624
Si       8.75211154       1.91721883      24.79515819
Si       7.36123051       4.81550550      24.15116506
Si       1.48863209       2.87647301      -0.43734104
Si       5.56866045       0.77007741      17.17037931
Si      10.52071004       3.03156734      31.98444767
Si      11.12174881       6.84970022      19.87502213
Si       6.89586570       3.93269331      11.23083272
Si       8.72912326       7.64276382      18.49462850
Si       4.87961857       3.41244491       9.44289199
Si       7.94698675       0.64274244      18.43535404
Si      12.81848537       3.26891260      33.31815780
Si       6.95437509       2.86162643      11.35245865
22
Lattice="4.65250122360745 0.5411161124519499 2.5512254463354043 2.715522672069469 6.662801399588577 2.181368179656817 8.654738727765665 0.7669704708216705 32.97936753889" Properties=species:S:1:pos:R:3 unique_starting_index=40 config_type=initial n_minim_iter=14 stress="-1.3114347955676474e-05 8.051272458534397e-06 3.312290047484815e-07 8.051272458534397e-06 -5.675305267541639e-06 2.1274222364243755e-05 3.312290047484815e-07 2.1274222364243755e-05 6.748793441422256e-07" pbc="T T T"
Si      12.84568997       4.40202287      33.02840342
Si       4.28077516       3.48621461      10.52016987
Si       8.30086855       1.16628911      17.67916859
Si       8.53605842       3.09940048      30.01378519
Si      10.54061551       3.91086291      31.76122680
Si       8.93513640       6.69225995      18.32164285
Si       4.64751742       2.40232161      10.08511271
Si       8.48677995       6.46769789      19.18632287
Si       3.71993494       2.60044269       1.12790481
Si      12.42176584       4.28578361      33.82652165
Si       8.75217866       1.91793998      24.79485553
Si       7.36153801       4.81567580      24.15076023
Si       1.48876283       2.87636417      -0.43715227
Si       5.56864464       0.77074503      17.17019122
Si      10.52093966       3.03274066      31.98385669
Si      11.12210963       6.85084757      19.87469215
Si       6.89606154       3.93320553      11.23073606
Si       8.72939035       7.64370297      18.49450655
Si       4.87973887       3.41275893       9.44295418
Si       7.94694219       0.64344174      18.43510105
Si      12.81861054       3.27013684      33.31779039
Si       6.95442240       2.86203773      11.35243314
22
Lattice="4.652532925918213 0.5412416932232187 2.5511449359374465 2.7157762654736284 6.662991503319682 2.1811582436373866 8.654532030615254 0.7665043645528516 32.97894841508227" Properties=species:S:1:pos:R:3 unique_starting_index=40 config_type=initial n_minim_iter=15 stress="-8.040802620460726e-06 1.1338939960684376e-05 -2.7558041816633655e-06 1.1338939960684376e-05 2.243320830534303e-05 -2.8736916420209972e-05 -2.7558041816633655e-06 -2.8736916420209972e-05 2.3713517175935884e-06" pbc="T T T"
Si      12.84562321       4.40173841      33.02784144
Si       4.28089737       3.48624390      10.51987763
Si       8.30065298       1.16637262      17.67898823
Si       8.53598920       3.09898588      30.01332743
Si      10.54040152       3.91068049      31.76093506
Si       8.93530565       6.69246694      18.32115743
Si       4.64757687       2.40233649      10.08493339
Si       8.48702940       6.46775695      19.18582721
Si       3.72009997       2.60078197       1.12785959
Si      12.42170014       4.28564636      33.82597597
Si       8.75212957       1.91748367      24.79451259
Si       7.36167274       4.81482644      24.15018798
Si       1.48886218       2.87631522      -0.43721696
Si       5.56849700       0.77065415      17.16998422
Si      10.52090071       3.03256451      31.98321464
Si      11.12232633       6.85119199      19.87409222
Si       6.89617888       3.93310064      11.23044742
Si       8.72947033       7.64393580      18.49406849
Si       4.87976071       3.41268954       9.44283414
Si       7.94688267       0.64320965      18.43482291
Si      12.81853603       3.26987426      33.31729645
Si       6.95448183       2.86195374      11.35228843
22
Lattice="4.652567237900894 0.5413789168408165 2.551060495374735 2.715931558836586 6.663088276755042 2.1811772173136794 8.654197658038019 0.7670946510606118 32.978499063540184" Properties=species:S:1:pos:R:3 unique_starting_index=40 config_type=initial n_minim_iter=16 stress="-3.173766193195273e-06 -4.919974027444336e-06 -9.656916668934452e-06 -4.919974027444336e-06 4.982984861862571e-06 9.326451139310888e-06 -9.656916668934452e-06 9.326451139310888e-06 5.191907399789008e-06" pbc="T T T"
Si      12.84540170       4.40233714      33.02734463
Si       4.28090403       3.48652659      10.51969162
Si       8.30036754       1.16703229      17.67882147
Si       8.53573316       3.09947511      30.01296421
Si      10.54007809       3.91148197      31.76067654
Si       8.93531492       6.69310346      18.32086811
Si       4.64762497       2.40261588      10.08485855
Si       8.48713159       6.46828396      19.18550422
Si       3.72024640       2.60108111       1.12780409
Si      12.42142694       4.28645296      33.82551299
Si       8.75197505       1.91770265      24.79419909
Si       7.36167292       4.81459624      24.14972933
Si       1.48896425       2.87621518      -0.43706474
Si       5.56826533       0.77107229      17.16974780
Si      10.52077521       3.03325614      31.98262873
Si      11.12241684       6.85196804      19.87365264
Si       6.89620016       3.93313128      11.23025117
Si       8.72936441       7.64455862      18.49386902
Si       4.87969543       3.41282943       9.44275589
Si       7.94677659       0.64351335      18.43454739
Si      12.81822489       3.27060621      33.31681704
Si       6.95450692       2.86214108      11.35222734
22
Lattice="4.652591794162996 0.5414681368597811 2.551000951905602 2.716069339337713 6.663154837709359 2.181120078782299 8.654055084446686 0.7671943776176173 32.9780784762958" Properties=species:S:1:pos:R:3 unique_starting_index=40 config_type=initial n_minim_iter=17 stress="-7.368762678813299e-06 8.374487988495996e-06 -3.3121552889507376e-06 8.374487988495996e-06 4.357875419959226e-06 -1.2580282379769219e-05 -3.3121552889507376e-06 -1.2580282379769219e-05 -2.8047321929323583e-06" pbc="T T T"
Si      12.84537719       4.40247322      33.02689658
Si       4.28091621       3.48663283      10.51951992
Si       8.30020569       1.16739144      17.67867873
Si       8.53565146       3.09954149      30.01259819
Si      10.53989592       3.91175840      31.76028701
Si       8.93537740       6.69343836      18.32054407
Si       4.64772054       2.40271798      10.08479574
Si       8.48723602       6.46852362      19.18516308
Si       3.72037128       2.60127298       1.12773943
Si      12.42137781       4.28676107      33.82506792
Si       8.75193407       1.91758742      24.79390769
Si       7.36176731       4.81419088      24.14928101
Si       1.48898873       2.87615460      -0.43700825
Si       5.56818219       0.77117612      17.16953462
Si      10.52072163       3.03342903      31.98209095
Si      11.12255902       6.85235943      19.87320081
Si       6.89624198       3.93304394      11.23003964
Si       8.72937852       7.64483203      18.49362255
Si       4.87968885       3.41286616       9.44258196
Si       7.94672503       0.64357251      18.43429795
Si      12.81817423       3.27083885      33.31641680
Si       6.95457818       2.86217663      11.35214483
22
Lattice="4.652629563208056 0.5415903816948082 2.5509102864145974 2.7161857212959646 6.663277564600012 2.181163717814922 8.653690292460949 0.7678844118276558 32.97759009273419" Properties=species:S:1:pos:R:3 unique_starting_index=40 config_type=initial n_minim_iter=18 stress="-1.4682751868349028e-06 1.2175535102067043e-06 -9.165838816894258e-06 1.2175535102067043e-06 5.866499129107904e-06 3.0292348549348637e-06 -9.165838816894258e-06 3.0292348549348637e-06 8.585829471631241e-06" pbc="T T T"
Si      12.84506090       4.40319547      33.02638779
Si       4.28080074       3.48694135      10.51940606
Si       8.29985833       1.16822275      17.67861536
Si       8.53530768       3.10010484      30.01215769
Si      10.53954266       3.91261817      31.75996174
Si       8.93531395       6.69426176      18.32020914
Si       4.64783702       2.40298901      10.08484405
Si       8.48717816       6.46919293      19.18483167
Si       3.72045906       2.60149796       1.12771428
Si      12.42106978       4.28781626      33.82458009
Si       8.75175060       1.91768501      24.79362383
Si       7.36177740       4.81387821      24.14876357
Si       1.48909442       2.87603527      -0.43693909
Si       5.56801868       0.77158236      17.16932704
Si      10.52053826       3.03429310      31.98153873
Si      11.12262253       6.85327807      19.87263427
Si       6.89620744       3.93304505      11.22979697
Si       8.72925756       7.64553177      18.49348150
Si       4.87962053       3.41306382       9.44230571