24
Lattice="16.478053625187663 2.1549117004851532 -9.361473822048039 -7.785979601449917 6.660110292277293 6.36826125769871 -11.542654120147507 2.2590971750824544 18.791468807368716" Properties=species:S:1:pos:R:3 unique_starting_index=90 config_type=initial n_minim_iter=21 energy=-4240.508084241359 free_energy=-4240.508084241359 pbc="T T T"
Si       6.22808741       3.28324150       5.23766405
Si      -4.18743255       1.45555770       4.64041390
Si       5.32220622       8.33190760       3.23180726
Si      -3.39445480       1.44940340       3.98445835
Si      -0.34445386       6.22424562      13.86811254
Si     -16.44714232       6.61453907      21.34316367
Si      -3.38608636       1.99074457       4.99433042
Si      -0.25556902       7.72685229      12.53072076
Si     -16.63112897       8.45427203      21.13981784
Si       5.52679384       5.60013892       4.01328476
Si       0.13574515       6.37104871       1.66472635
Si       5.32313163       7.88014767       2.41561000
Si       4.25403430       9.77001971       0.81510166
Si       2.18913797       5.51944786       8.17839950
Si      -4.41774818       3.83067196       3.44510139
Si     -17.51769062       8.35537567      21.62986015
Si      -4.44241015       1.88165258       5.51186299
Si      -0.31828753       8.16788746      13.35728700
Si      -4.90317156       5.23852831      14.03138491
Si     -10.23888715       4.00962033      13.96981379
Si      -0.66912710      10.02547310      11.09233603
Si      11.81405088       2.72888303      -4.25867682
Si       6.54273795       5.74299143       3.65200499
Si       0.03264262       7.00824099       3.65286335
