24
Lattice="13.023389180672613 0.5080852408616597 -6.185595019695605 -6.5026527083130965 5.16446753600777 4.56829844972051 -6.810781687829589 0.26586995800853 16.79155055637918" Properties=species:S:1:pos:R:3 unique_starting_index=90 config_type=initial n_minim_iter=1 energy=-3968.1118319750817 free_energy=-3968.1118319750817 pbc="T T T"
Si       5.18723523       0.15644424       7.32827878
Si      -1.86342048       1.93503761       3.41219869
Si       5.20615431       4.88127044       3.61397913
Si      -0.72526896       1.22858927       3.79219575
Si       2.55156010       2.15588339      13.59339927
Si     -10.88145325       4.15121004      17.47980080
Si      -1.26840352       1.85858891       4.87250563
Si      -0.34927484       3.24472865      11.81198632
Si     -11.08738110       6.10572667      17.24982987
Si       5.46393445       2.66657272       5.34914065
Si       0.28229884       3.59691429       3.55610596
Si       3.38903338       4.99725753       3.95744440
Si       4.15346188       6.26667260       1.58272928
Si       3.83783801       1.64151890      10.28795529
Si      -3.01796606       3.12815934       2.25678715
Si     -12.60586875       5.14471363      17.04908545
Si      -2.55890140       1.67585921       4.62613524
Si       1.38471885       3.41237999      12.51515268
Si      -3.61309081       2.45037920      11.76665436
Si      -6.21492774       2.59954779      11.40207308
Si      -1.07237797       4.39811664      10.34294457
Si       9.23638486       0.70216208      -1.62660201
Si       6.23691257       2.31494532       4.27952730
Si       0.18960469       4.24834180       4.86457792
24
Lattice="13.01615896091989 0.5090153528592427 -6.185691106630713 -6.497653789419355 5.161529384458749 4.570275599417991 -6.810317694447448 0.2716979330926116 16.785266049576038" Properties=species:S:1:pos:R:3 unique_starting_index=90 config_type=initial n_minim_iter=2 stress="-0.0018793660506476301 0.0007180620618346988 -0.0010091613762991528 0.0007180620618346988 -0.005092248215971264 0.0027286672038898496 -0.0010091613762991528 0.0027286672038898496 -0.0030991126271557867" pbc="T T T"
Si       5.18191121       0.16170800       7.32341120
Si      -1.86279621       1.93533503       3.41170194
Si       5.20313038       4.88182647       3.61341278
Si      -0.72549173       1.22951897       3.79105750
Si       2.54705964       2.16202463      13.58713978
Si     -10.87712083       4.15379736      17.47612817
Si      -1.26810967       1.85945569       4.87142116
Si      -0.35107677       3.24856112      11.80796465
Si     -11.08217420       6.10703125      17.24723282
Si       5.45964680       2.66945598       5.34641977
Si       0.28240110       3.59666589       3.55606395
Si       3.38730616       4.99733963       3.95708358
Si       4.15218299       6.26505692       1.58399310
Si       3.83309508       1.64680133      10.28275521
Si      -3.01512256       3.12624197       2.25820211
Si     -12.59999558       5.14587402      17.04676488
Si      -2.55767202       1.67626599       4.62532259
Si       1.38171602       3.41690058      12.51029331
Si      -3.61282114       2.45344316      11.76306852
Si      -6.21272465       2.60151932      11.39944655
Si      -1.07282065       4.40020583      10.34034786
Si       9.23074299       0.70398535      -1.62786211
Si       6.23227710       2.31759555       4.27696588
Si       0.18963248       4.24814449       4.86412550
24
Lattice="13.00509922197426 0.5182776888634646 -6.190668318805326 -6.489348774911458 5.164125967465364 4.572290512648155 -6.806397721366031 0.26474325621264533 16.793883625033494" Properties=species:S:1:pos:R:3 unique_starting_index=90 config_type=initial n_minim_iter=3 stress="-0.0046143430780857956 0.0032308316249336612 -0.0016988882123464288 0.0032308316249336612 0.002172369151809448 0.00026997636365320304 -0.0016988882123464288 0.00026997636365320304 -0.0012609106102996564" pbc="T T T"
Si       5.17647253       0.16387876       7.32558877
Si      -1.86310527       1.93860940       3.41167905
Si       5.19955540       4.89060433       3.61420477
Si      -0.72570626       1.23036480       3.79190899
Si       2.54428467       2.16275428      13.59232425
Si     -10.86756717       4.15022209      17.48463433
Si      -1.26614352       1.86037651       4.87382045
Si      -0.35108190       3.25060789      11.81353970
Si     -11.07105495       6.10636298      17.25522308
Si       5.45503120       2.67537702       5.34739363
Si       0.28385725       3.60142243       3.55688812
Si       3.38625591       5.00522871       3.95727243
Si       4.15116228       6.27547329       1.58283389
Si       3.82888516       1.64879433      10.28636388
Si      -3.00882754       3.12762599       2.26022243
Si     -12.58876768       5.14233204      17.05696015
Si      -2.55437699       1.67607336       4.62718581
Si       1.38063395       3.41964417      12.51425501
Si      -3.60979003       2.45198000      11.76846571
Si      -6.20713831       2.59888111      11.40548505
Si      -1.07096714       4.40375519      10.34379754
Si       9.22312776       0.71055181      -1.63024346
Si       6.22717119       2.32238855       4.27741636
Si       0.19119823       4.25215662       4.86454760
24
Lattice="13.015351236195517 0.5030742771415301 -6.186353569716358 -6.499100570367171 5.166907855771479 4.5722717208750705 -6.805415684220251 0.2760681706497694 16.797110235803714" Properties=species:S:1:pos:R:3 unique_starting_index=90 config_type=initial n_minim_iter=4 stress="-0.003593774295238064 -0.00110070706394146 0.0015840317354961272 -0.00110070706394146 -0.002175587954587708 0.0016750330605858437 0.0015840317354961272 0.0016750330605858437 -0.000839877547064168" pbc="T T T"
Si       5.18599701       0.16140190       7.33094513
Si      -1.86763824       1.94157014       3.41172038
Si       5.20124203       4.88181833       3.62077250
Si      -0.72691236       1.23131981       3.79252296
Si       2.55255997       2.16128863      13.59932477
Si     -10.87466203       4.16245055      17.48697334
Si      -1.26616750       1.86122001       4.87607672
Si      -0.34911596       3.25171407      11.81977980
Si     -11.08015889       6.11725636      17.25775414
Si       5.46081511       2.66933115       5.35298123
Si       0.28267256       3.59899006       3.55952703
Si       3.38696438       4.99806499       3.96194632
Si       4.14988595       6.26539362       1.58750578
Si       3.83674350       1.64601710      10.29273414
Si      -3.01249658       3.12794832       2.26107585
Si     -12.59963694       5.15476258      17.06051889
Si      -2.55575562       1.67813953       4.62789608
Si       1.38554029       3.41838720      12.51991661
Si      -3.60999409       2.45595413      11.77208560
Si      -6.21052311       2.60530965      11.40811129
Si      -1.07108661       4.40365360      10.34819857
Si       9.23198832       0.70036391      -1.62598783
Si       6.23389681       2.31399774       4.28294815
Si       0.18975145       4.24794601       4.86669748
24
Lattice="13.048038965479966 0.505771811568861 -6.197667109972559 -6.51548935086404 5.162512109812394 4.5778715654226305 -6.83390463236319 0.2740916443222019 16.803553718581067" Properties=species:S:1:pos:R:3 unique_starting_index=90 config_type=initial n_minim_iter=5 stress="0.004158073636288398 0.0022699809124613305 -0.0016395705784854144 0.0022699809124613305 -0.0018518557542893286 0.0023310266492570335 -0.0016395705784854144 0.0023310266492570335 4.34884975117189e-05" pbc="T T T"
Si       5.19091818       0.16312466       7.32677778
Si      -1.87581851       1.94147137       3.41328256
Si       5.20927348       4.88015740       3.61766187
Si      -0.73282280       1.23078388       3.79221371
Si       2.54749524       2.15956848      13.59715357
Si     -10.91158013       4.15781417      17.49692782
Si      -1.27175283       1.85970621       4.87779186
Si      -0.35984870       3.25046515      11.82118806
Si     -11.11682688       6.11185078      17.26739836
Si       5.46819877       2.66937559       5.34848753
Si       0.28133253       3.59734517       3.55938676
Si       3.39184235       4.99582470       3.95908031
Si       4.15851930       6.26236499       1.58402149
Si       3.83663221       1.64536628      10.28976710
Si      -3.01937590       3.12646144       2.26297072
Si     -12.64004908       5.14882380      17.07374324
Si      -2.56389353       1.67633765       4.62990440
Si       1.37933917       3.41608121      12.51822805
Si      -3.62679320       2.45304449      11.77557088
Si      -6.23266721       2.60170506      11.41440556
Si      -1.08077753       4.40060043      10.34936649
Si       9.25338208       0.70210016      -1.63370065
Si       6.24404353       2.31269014       4.27782495
Si       0.18711762       4.24399012       4.86534179
24
Lattice="13.068294019957793 0.49863676346427027 -6.212185545855448 -6.535340581694417 5.155777346388906 4.573495708074732 -6.867444942641062 0.25262891588160097 16.79319471348217" Properties=species:S:1:pos:R:3 unique_starting_index=90 config_type=initial n_minim_iter=6 stress="0.000417643080153987 -0.0006137237257524298 -0.0010352574536183876 -0.0006137237257524298 0.0005110628033164286 -0.0015559969249092183 -0.0010352574536183876 -0.0015559969249092183 -0.0021779623920142326" pbc="T T T"
Si       5.18405487       0.14620522       7.30858705
Si      -1.89112555       1.93932512       3.41022038
Si       5.19711659       4.85957055       3.60092306
Si      -0.74810655       1.22488248       3.78206426
Si       2.52697520       2.12562578      13.56944628
Si     -10.95566762       4.13698278      17.48613163
Si      -1.27999457       1.84958117       4.87222045
Si      -0.38687200       3.22873436      11.80430107
Si     -11.16317329       6.09017016      17.25166164
Si       5.46001098       2.65015051       5.32812315
Si       0.27223516       3.58707833       3.54794803
Si       3.38137089       4.97645422       3.93944840
Si       4.14987615       6.24314678       1.56499236
Si       3.82168477       1.61773926      10.26726888
Si      -3.02937441       3.12823476       2.25411337
Si     -12.68772923       5.12778555      17.07219992
Si      -2.57206484       1.66815557       4.62381328
Si       1.35895343       3.38448398      12.49032157
Si      -3.65110532       2.43147201      11.76207630
Si      -6.26013386       2.58340399      11.40827623
Si      -1.10282186       4.37649340      10.33014834
Si       9.26541117       0.69204670      -1.64770651
Si       6.23976483       2.28788991       4.25846881
Si       0.17474350       4.22262528       4.84557169
24
Lattice="13.073158014016599 0.5007150028343342 -6.22864385093827 -6.533741612657765 5.151854243585087 4.592073231987806 -6.866324881251715 0.26496923939415207 16.846510918745373" Properties=species:S:1:pos:R:3 unique_starting_index=90 config_type=initial n_minim_iter=7 stress="0.0006823803773496577 0.000981144164686515 0.0014921428384197112 0.000981144164686515 3.682297039648255e-05 -0.00025780391222505897 0.0014921428384197112 -0.00025780391222505897 0.003566406992244762" pbc="T T T"
Si       5.18841712       0.15999349       7.33443294
Si      -1.89307649       1.94256549       3.42573897
Si       5.20125138       4.86223389       3.62221856
Si      -0.75298128       1.22780418       3.79165255
Si       2.53538558       2.14081737      13.61180715
Si     -10.95560107       4.14668939      17.54403074
Si      -1.27545192       1.85175126       4.89119494
Si      -0.38425130       3.24007860      11.85036765
Si     -11.16118343       6.09703423      17.31084054
Si       5.46562267       2.65756520       5.35025813
Si       0.27676899       3.58907312       3.56278427
Si       3.38688231       4.97817812       3.95829975
Si       4.15508352       6.24044434       1.57902838
Si       3.82785882       1.62821686      10.30312493
Si      -3.02950741       3.12886441       2.26082462
Si     -12.68550040       5.13349901      17.13665207
Si      -2.56788363       1.66928005       4.63940333
Si       1.36859819       3.39249746      12.53208366
Si      -3.64652751       2.43861544      11.80095934
Si      -6.25891136       2.58694884      11.44913242
Si      -1.09738444       4.38235306      10.36681939
Si       9.27232230       0.69642847      -1.64998175
Si       6.24510448       2.29056860       4.27687403
Si       0.18113513       4.21987192       4.86060755
24
Lattice="13.111395420870618 0.4706202480414507 -6.247203256530169 -6.568345215725062 5.175701050008585 4.600207111685658 -6.921954563914143 0.28726568821262044 16.824994897822283" Properties=species:S:1:pos:R:3 unique_starting_index=90 config_type=initial n_minim_iter=8 stress="0.0008323793694062311 -0.001540412924158416 -0.00045336513232206347 -0.001540412924158416 0.002240253832928437 0.000741743610372074 -0.00045336513232206347 0.000741743610372074 -0.0003267340433438882" pbc="T T T"
Si       5.17740468       0.15602666       7.30612613
Si      -1.91378558       1.95535745       3.42785163
Si       5.18930349       4.85894600       3.60464035
Si      -0.77481422       1.23209891       3.77980370
Si       2.50715297       2.14834914      13.56862286
Si     -11.03183317       4.18817455      17.53066671
Si      -1.29048629       1.85863866       4.88495430
Si      -0.42576743       3.25397253      11.83184841
Si     -11.24089756       6.13915513      17.30144414
Si       5.45659500       2.65085141       5.32706912
Si       0.26131682       3.59616572       3.55380572
Si       3.37103364       4.97935690       3.94271450
Si       4.14332016       6.23837690       1.56999508
Si       3.80637647       1.62497649      10.27023013
Si      -3.04995383       3.14145676       2.26320410
Si     -12.76124426       5.17856735      17.13918458
Si      -2.58646119       1.67915850       4.63457834
Si       1.33595149       3.39631128      12.49587752
Si      -3.68511504       2.45594486      11.78134942
Si      -6.30623634       2.60660326      11.44320942
Si      -1.13390995       4.39477988      10.34686807
Si       9.29488099       0.67740806      -1.66953624
Si       6.23965330       2.27731048       4.25425306
Si       0.16494470       4.22305236       4.84292183
24
Lattice="13.128879952180796 0.4935924747002664 -6.25100020419033 -6.574229734792578 5.143552201118021 4.5871819085880094 -6.939153288397748 0.2395878087291204 16.813439377344547" Properties=species:S:1:pos:R:3 unique_starting_index=90 config_type=initial n_minim_iter=9 stress="0.0011662452594417205 0.0005825105772492423 0.0005710049926935185 0.0005825105772492423 -0.0011341946298328242 -0.003394971134807492 0.0005710049926935185 -0.003394971134807492 -0.0002152057805842361" pbc="T T T"
Si       5.17770025       0.14409959       7.29764882
Si      -1.91962451       1.94339687       3.42553873
Si       5.19685284       4.83665103       3.58596861
Si      -0.78466706       1.21640917       3.76882364
Si       2.50961239       2.10886283      13.54556483
Si     -11.05392703       4.12835627      17.50710855
Si      -1.29004824       1.83790597       4.87673411
Si      -0.43492982       3.21675841      11.82109271
Si     -11.26075123       6.07048845      17.27731269
Si       5.46181824       2.62986748       5.31489740
Si       0.26194989       3.57528125       3.53891863
Si       3.37389627       4.95556058       3.92474946
Si       4.15042248       6.21501111       1.55162067
Si       3.80627312       1.59540430      10.25469027
Si      -3.05322653       3.12597040       2.25486271
Si     -12.78121267       5.11398222      17.12529415
Si      -2.59011102       1.66050235       4.62843729
Si       1.33324524       3.35378793      12.46815027
Si      -3.69179178       2.41730121      11.76416664
Si      -6.32004073       2.56363566      11.43367475
Si      -1.13681719       4.35428195      10.32719669
Si       9.30694317       0.68575183      -1.67456701
Si       6.24247597       2.26151477       4.24362565
Si       0.17198645       4.19497136       4.82030897
24
Lattice="13.152055326504943 0.4612736879509322 -6.280245719127378 -6.595857789352212 5.16921725284748 4.616699269131455 -6.9776923303561365 0.2908981952595699 16.842809819410217" Properties=species:S:1:pos:R:3 unique_starting_index=90 config_type=initial n_minim_iter=10 stress="0.0016024234340079005 -0.0009413730510992673 0.000578257791246676 -0.0009413730510992673 0.001853334119635257 -0.0006327551112159247 0.000578257791246676 -0.0006327551112159247 0.00203249966078764" pbc="T T T"
Si       5.16874697       0.16119802       7.29780060
Si      -1.93495028       1.96363325       3.44495427
Si       5.19137701       4.83992374       3.59102182
Si      -0.80571794       1.22331409       3.76775957
Si       2.49365978       2.13695242      13.55330191
Si     -11.10580913       4.19777885      17.54782069
Si      -1.29740954       1.85078271       4.88776414
Si      -0.46928439       3.25642858      11.85401538
Si     -11.31402145       6.13951347      17.32860307
Si       5.45509650       2.63321405       5.32125815
Si       0.25041720       3.58452395       3.54499957
Si       3.35967800       4.96536200       3.93497649
Si       4.14258000       6.21568029       1.56212685
Si       3.79006770       1.61586579      10.26199162
Si      -3.06603932       3.14611987       2.26889409
Si     -12.83551094       5.18465122      17.18844420
Si      -2.60329991       1.67803772       4.64566709
Si       1.30770485       3.38452825      12.47296119
Si      -3.71785079       2.45437971      11.78418780
Si      -6.35490834       2.60086131      11.46862819
Si      -1.15951409       4.38531674      10.35194506
Si       9.31799676       0.66973320      -1.68977950
Si       6.23205131       2.26356698       4.24705605
Si       0.17157302       4.20865367       4.82227538
24
Lattice="13.180543148801352 0.4554102039860884 -6.27924404519228 -6.615061891908825 5.1702274818359575 4.610452986115962 -7.006550016534534 0.28802160629973467 16.81071544116814" Properties=species:S:1:pos:R:3 unique_starting_index=90 config_type=initial n_minim_iter=11 stress="0.002758901763173511 -0.0002688106594992683 0.0017879491318686983 -0.0002688106594992683 0.002509463471566945 -0.0003440687700353822 0.0017879491318686983 -0.0003440687700353822 0.0001466592490815194" pbc="T T T"
Si       5.17024044       0.15748236       7.27793954
Si      -1.94627715       1.96918255       3.44127941
Si       5.19416217       4.83159332       3.57488353
Si      -0.81815326       1.21831431       3.75252259
Si       2.48493136       2.12786697      13.51079613
Si     -11.14347084       4.19932542      17.51236337
Si      -1.30194896       1.84612690       4.87426771
Si      -0.48848819       3.25398750      11.83801756
Si     -11.35371040       6.14292162      17.29560153
Si       5.45786396       2.62347294       5.30546534
Si       0.24451463       3.57718386       3.52911017
Si       3.35629297       4.95969963       3.92063735
Si       4.14257754       6.20801623       1.55293194
Si       3.78635341       1.60832604      10.23505218
Si      -3.07623667       3.15167155       2.26521076
Si     -12.88163407       5.18689027      17.16428280
Si      -2.61247363       1.67814044       4.64282298
Si       1.30052962       3.37087544      12.43643175
Si      -3.73807934       2.45012108      11.75768441
Si      -6.38076748       2.59871970      11.45135407
Si      -1.17286205       4.38209453      10.32835421
Si       9.33551029       0.66396184      -1.69653318
Si       6.23321522       2.25674859       4.23440449
Si       0.17589757       4.20526241       4.80125020
24
Lattice="13.185190339224624 0.44798908985918345 -6.304580395064883 -6.623518808716771 5.168738796313722 4.622318470033293 -7.0278836048016675 0.28511094057426245 16.83977427237904" Properties=species:S:1:pos:R:3 unique_starting_index=90 config_type=initial n_minim_iter=12 stress="0.0014778254325962111 -0.0014594465601144274 -0.0006273779704544336 -0.0014594465601144274 0.0009382366435447201 -0.0008350748922753429 -0.0006273779704544336 -0.0008350748922753429 0.003072815806550812" pbc="T T T"
Si       5.15861417       0.15026255       7.28032460
Si      -1.95275189       1.96884086       3.44735097
Si       5.18360772       4.82142816       3.57025347
Si      -0.82564990       1.21534667       3.75553943
Si       2.46493854       2.11764560      13.52095236
Si     -11.16707375       4.19669529      17.54481884
Si      -1.30878241       1.84249046       4.87986485
Si      -0.50844757       3.24729414      11.85396187
Si     -11.37861981       6.13915453      17.32814070
Si       5.44671406       2.61431705       5.30373895
Si       0.23716950       3.57076282       3.52929159
Si       3.34580620       4.95093431       3.91844263
Si       4.13409633       6.19859201       1.54615342
Si       3.77013003       1.59946639      10.24174474
Si      -3.08127196       3.15129806       2.27091551
Si     -12.90554679       5.18407123      17.20020184
Si      -2.61889282       1.67648559       4.65245531
Si       1.28161570       3.35955476      12.44649248
Si      -3.75534732       2.44550570      11.77472854
Si      -6.39685480       2.59618572      11.47316882
Si      -1.18974651       4.37426112      10.34103300
Si       9.33452120       0.65685666      -1.71184759
Si       6.22300049       2.24824856       4.23086344
Si       0.16898021       4.19937514       4.80309734
24
Lattice="13.205238405212867 0.44631140969732513 -6.310477875115378 -6.637093495279333 5.163089356911518 4.620105677481034 -7.045914026505187 0.27349740618984203 16.839014283331725" Properties=species:S:1:pos:R:3 unique_starting_index=90 config_type=initial n_minim_iter=13 stress="0.0012538975716345556 -0.0005885998742835619 0.0008186826755174268 -0.0005885998742835619 0.0010767908333647394 -0.00044676563833880473 0.0008186826755174268 -0.00044676563833880473 0.0014178300596908893" pbc="T T T"
Si       5.16202585       0.14109549       7.27947062
Si      -1.96112292       1.97024858       3.44648532
Si       5.18152816       4.80940264       3.56590920
Si      -0.83766877       1.20779225       3.74574002
Si       2.46525818       2.10098098      13.51134146
Si     -11.18978222       4.18564442      17.53787470
Si      -1.30970235       1.83382410       4.87178726
Si      -0.52435971       3.24187684      11.85937076
Si     -11.40330172       6.12662173      17.32481296
Si       5.44627454       2.60519187       5.29880289
Si       0.23654662       3.55627555       3.51560603
Si       3.34425989       4.94014522       3.91130285
Si       4.13116960       6.18832584       1.53842771
Si       3.76856549       1.58877223      10.23819282
Si      -3.09059398       3.15220675       2.27162141
Si     -12.93056255       5.16810892      17.20194369
Si      -2.62165808       1.67110286       4.65595246
Si       1.27817940       3.33872816      12.43374108
Si      -3.76958624       2.43692828      11.76807686
Si      -6.41192100       2.58941310      11.47583280
Si      -1.19910389       4.35751548      10.34286992
Si       9.34678481       0.65153719      -1.72202754
Si       6.22311050       2.24006607       4.22804731
Si       0.17745926       4.19193358       4.79247610
24
Lattice="13.235518774562157 0.43620223499564653 -6.3260810003021355 -6.658547710652152 5.16353246569968 4.626767850394031 -7.085887667040344 0.2797892826581223 16.83150100585223" Properties=species:S:1:pos:R:3 unique_starting_index=90 config_type=initial n_minim_iter=14 stress="-0.0005993246356716498 0.0005041008111272065 -0.00032407269585502276 0.0005041008111272065 -0.0009146910136294584 0.0002907836207760662 -0.00032407269585502276 0.0002907836207760662 -0.0008759175334383208" pbc="T T T"
Si       5.16293009       0.13749567       7.26453444
Si      -1.97455670       1.97487450       3.44630540
Si       5.17510925       4.80315322       3.55613277
Si      -0.85671836       1.20177331       3.73373510
Si       2.45146750       2.09864299      13.49227610
Si     -11.23433095       4.19251373      17.53459950
Si      -1.31581102       1.83121429       4.86130810
Si      -0.55341312       3.24516387      11.86565849
Si     -11.45199384       6.13279352      17.32657991
Si       5.43895230       2.60165157       5.28540863
Si       0.23314903       3.54502032       3.50105660
Si       3.33789890       4.93353742       3.90026321
Si       4.12772606       6.18008395       1.52868398
Si       3.75460170       1.58858655      10.22209647
Si      -3.10685957       3.15719535       2.27595543
Si     -12.98168302       5.17172474      17.20997038
Si      -2.63099536       1.66987384       4.65663626
Si       1.25856190       3.33041493      12.41042683
Si      -3.80010490       2.44290639      11.75654451
Si      -6.44257841       2.59660253      11.47882920
Si      -1.22706141       4.35394513      10.33682748
Si       9.36070371       0.64131748      -1.74115609
Si       6.21855442       2.23462012       4.21665426
Si       0.17911052       4.18845992       4.78165389
24
Lattice="13.254550319499534 0.4328085213275025 -6.343014938597644 -6.672051828086423 5.161506404167186 4.633516230521782 -7.11166837362271 0.27594013798751843 16.84397534279966" Properties=species:S:1:pos:R:3 unique_starting_index=90 config_type=initial n_minim_iter=15 stress="-0.000977908638753647 0.0007060141902660101 -0.00042603884369837706 0.0007060141902660101 -0.0009844086661461168 0.00013934699610261564 -0.00042603884369837706 0.00013934699610261564 -0.001338214191127599" pbc="T T T"
Si       5.16834011       0.13106493       7.26142936
Si      -1.98213828       1.97498115       3.44845115
Si       5.17300604       4.79993739       3.54812457
Si      -0.87000535       1.19452721       3.72710426
Si       2.43881785       2.09302410      13.49320061
Si     -11.26456733       4.18947518      17.54636942
Si      -1.31869872       1.83027728       4.85837685
Si      -0.57412265       3.24413901      11.87907549
Si     -11.48235922       6.12837742      17.34351755
Si       5.43515352       2.59513198       5.28342820
Si       0.23196240       3.53648292       3.49564314
Si       3.33363147       4.92811738       3.89299300
Si       4.12608672       6.17435114       1.52025309
Si       3.74528343       1.58402908      10.21944620
Si      -3.11659667       3.15944846       2.28221115
Si     -13.01710993       5.16698273      17.23041840
Si      -2.63592053       1.66711016       4.66041974
Si       1.24682873       3.31734215      12.40830000
Si      -3.82105843       2.44269591      11.76050001
Si      -6.46371518       2.59548617      11.49194609
Si      -1.24515417       4.34410752      10.34660916
Si       9.37016302       0.63449503      -1.75662329
Si       6.21532405       2.22880804       4.21421043
Si       0.17679383       4.18049443       4.77787631
24
Lattice="13.279767125128798 0.42057224992606607 -6.36852586237698 -6.692447633028442 5.163273179980636 4.646285678963984 -7.149882517834195 0.28085930466814585 16.861465829118206" Properties=species:S:1:pos:R:3 unique_starting_index=90 config_type=initial n_minim_iter=16 stress="-0.0012604191227757495 0.0005667705463721658 -0.0006702538115103477 0.0005667705463721658 -0.0004798160575132615 0.00021453246425729472 -0.0006702538115103477 0.00021453246425729472 -0.0014938457326224505" pbc="T T T"
Si       5.16850086       0.12286056       7.25855293
Si      -1.99371219       1.97714279       3.45166390
Si       5.16935828       4.78925607       3.53974290
Si      -0.88671619       1.18807434       3.71779593
Si       2.41523148       2.08799747      13.49538248
Si     -11.31210893       4.19701836      17.56728170
Si      -1.32499749       1.83333535       4.85605246
Si      -0.60415261       3.24542559      11.89860795
Si     -11.52806486       6.13575644      17.36966810
Si       5.42855128       2.58788473       5.27936766
Si       0.22727433       3.52785261       3.49301720
Si       3.32463447       4.92136232       3.88347852
Si       4.11873713       6.16540829       1.51215611
Si       3.72924105       1.58064511      10.21306304
Si      -3.13009200       3.16547302       2.29138569
Si     -13.06373859       5.17461768      17.25815357
Si      -2.64443550       1.66782126       4.66672054
Si       1.22411336       3.30771790      12.40512440
Si      -3.85380939       2.44745911      11.76950082
Si      -6.49698579       2.60073461      11.51070454
Si      -1.27437753       4.33802955      10.35898359
Si       9.38582683       0.62200427      -1.78177305
Si       6.20861245       2.22097613       4.21022989
Si       0.16772449       4.17069502       4.77455650
24
Lattice="13.291311289381772 0.4124627392582403 -6.368564215942752 -6.702174753626465 5.167024115428204 4.645048922251987 -7.159820946961919 0.28398374032857593 16.85396134862962" Properties=species:S:1:pos:R:3 unique_starting_index=90 config_type=initial n_minim_iter=17 stress="0.000251192420207909 0.0002798896466498703 0.0001818699993686645 0.0002798896466498703 -0.0002461391036045316 0.0004326143812388926 0.0001818699993686645 0.0004326143812388926 -5.230318403526816e-05" pbc="T T T"
Si       5.17555913       0.11626917       7.25863731
Si      -1.99886302       1.98016626       3.44854682
Si       5.16852229       4.78317414       3.53605463
Si      -0.89536325       1.18452885       3.70630822
Si       2.41081834       2.08706310      13.48603166
Si     -11.32822535       4.20262403      17.56015551
Si      -1.32497779       1.83377549       4.84876833
Si      -0.61323971       3.24829404      11.90316102
Si     -11.54318883       6.14399611      17.36386690
Si       5.43108652       2.58559900       5.27726455
Si       0.22804463       3.52456775       3.49029324
Si       3.32226850       4.91850657       3.87615796
Si       4.11984218       6.16238881       1.50610525
Si       3.72874566       1.57894180      10.20260036
Si      -3.13899237       3.16908446       2.29246824
Si     -13.08000744       5.18108388      17.25092196
Si      -2.64236904       1.66986296       4.66673289
Si       1.21898240       3.30508401      12.39253514