10
Lattice="5.2397839501070305 0.3316710508577278 -2.801863853677737e-17 -2.0909001752901353 6.265699427802965 -5.293084565141407e-16 2.203578347187005e-23 8.271463737224936e-16 9.791361635517807" Properties=species:S:1:pos:R:3 unique_starting_index=14 config_type=initial n_minim_iter=1 energy=-1628.1811629023462 free_energy=-1628.1811629023462 pbc="T T T"
Si       0.72351515       3.80945063       0.84183937
Si       2.42536862       2.78791984       0.84183937
Si       1.72669745       0.57733146       1.72345163
Si       1.42218632       6.02003902       1.72345163
Si       2.49898578       1.25514743       6.50970065
Si       0.64989800       5.34222304       6.50970065
Si       0.74874541       3.83930506       2.70956458
Si       2.40013837       2.75806541       2.70956458
Si      -1.26825534       4.20979910       6.17419433
Si       4.41713911       2.38757137       6.17419433
10
Lattice="5.225842769883193 0.33215247422488864 -2.805930755612769e-17 -2.085521410281966 6.277706818012085 -5.303228063288479e-16 2.259915214542099e-23 8.32796643765298e-16 9.858246810770837" Properties=species:S:1:pos:R:3 unique_starting_index=14 config_type=initial n_minim_iter=2 stress="0.00044038601598970605 0.0004597777915095424 9.455205524522207e-17 0.0004597777915095424 0.0026042870372556003 6.042926908561304e-17 9.455205524522207e-17 6.042926908561304e-17 0.004032193357074835" pbc="T T T"
Si       0.72257083       3.81551320       0.84781895
Si       2.41775052       2.79434609       0.84781895
Si       1.72166581       0.57739092       1.73374651
Si       1.41865555       6.03246838       1.73374651
Si       2.49317972       1.25945669       6.55605998
Si       0.64714163       5.35040260       6.55605998
Si       0.74686625       3.84528888       2.72740203
Si       2.39345511       2.76457042       2.72740203
Si      -1.26489087       4.21767031       6.21640000
Si       4.40521222       2.39218898       6.21640000
10
Lattice="5.202362562738414 0.32544292167128425 -2.749250349275135e-17 -2.082972396494188 6.258707415204459 -5.287177906451711e-16 2.275222121257187e-23 8.325873451163708e-16 9.855769229679984" Properties=species:S:1:pos:R:3 unique_starting_index=14 config_type=initial n_minim_iter=3 stress="-0.013635831795203581 0.0016343136866821587 7.557711113013509e-17 0.0016343136866821587 -0.00915458771311834 1.883496839039129e-16 7.557711113013509e-17 1.883496839039129e-16 0.0008341619639212" pbc="T T T"
Si       0.71907437       3.79801016       0.84995726
Si       2.40031579       2.78614018       0.84995726
Si       1.71223329       0.57020284       1.72833485
Si       1.40715687       6.01394750       1.72833485
Si       2.48388447       1.25935858       6.56140535
Si       0.63550570       5.32479176       6.56140535
Si       0.74011428       3.82726797       2.72272883
Si       2.37927589       2.75688237       2.72272883
Si      -1.26355738       4.20361932       6.21445696
Si       4.38294754       2.38053102       6.21445696
10
Lattice="5.232463888253273 0.29300316679755617 -2.4752085248804005e-17 -2.135724971054385 6.289507429661643 -5.313196878990255e-16 2.288623180149409e-23 8.308626648592833e-16 9.835353287994417" Properties=species:S:1:pos:R:3 unique_starting_index=14 config_type=initial n_minim_iter=4 stress="0.00030612240495054194 -0.009099567811889673 1.0602966692942059e-16 -0.009099567811889673 0.0035217464531056663 1.8731907824197636e-16 1.0602966692942059e-16 1.8731907824197636e-16 -0.00046204818512612613" pbc="T T T"
Si       0.71347940       3.78968900       0.85708661
Si       2.38325951       2.79282160       0.85708661
Si       1.71409625       0.54840463       1.70567203
Si       1.38264266       6.03410597       1.70567203
Si       2.50311939       1.27345229       6.57528664
Si       0.59361952       5.30905831       6.57528664
Si       0.72255376       3.81750865       2.70134222
Si       2.37418516       2.76500195       2.70134222
Si      -1.29786526       4.21882453       6.20004999
Si       4.39460418       2.36368607       6.20004999
10
Lattice="5.2634153283405665 0.33783886343718533 -2.853967741174618e-17 -2.0929841959031923 6.26616562652181 -5.293478387704537e-16 2.289565460441641e-23 8.308571149609376e-16 9.835287588992347" Properties=species:S:1:pos:R:3 unique_starting_index=14 config_type=initial n_minim_iter=5 stress="0.0028471827855306394 -0.00044537069197776204 8.510888568531021e-17 -0.00044537069197776204 0.0009510590579495198 1.6921254831134512e-16 8.510888568531021e-17 1.6921254831134512e-16 0.0007169071602528261" pbc="T T T"
Si       0.75515364       3.78804347       0.86003400
Si       2.41527749       2.81596102       0.86003400
Si       1.72762286       0.55854254       1.69880900
Si       1.44280827       6.04546195       1.69880900
Si       2.53350608       1.30524642       6.58710691
Si       0.63692505       5.29875807       6.58710691
Si       0.76066397       3.81536287       2.69421614
Si       2.40976715       2.78864162       2.69421614
Si      -1.26910878       4.20107283       6.19915094
Si       4.43953991       2.40293166       6.19915094
10
Lattice="5.250419181958951 0.35220918084343217 -2.9753640851836713e-17 -2.0716332779650206 6.282264520744818 -5.307078274310067e-16 2.296494545111708e-23 8.297342463672479e-16 9.821995606031134" Properties=species:S:1:pos:R:3 unique_starting_index=14 config_type=initial n_minim_iter=6 stress="-0.0026397188519714848 0.0016979479867050998 4.5597068806735716e-17 0.0016979479867050998 0.0038473129197931556 -2.883344056896523e-17 4.5597068806735716e-17 -2.883344056896523e-17 -0.0027404449006326395" pbc="T T T"
Si       0.75870444       3.80519234       0.85944254
Si       2.42008146       2.82928136       0.85944254
Si       1.72969728       0.56893795       1.69879257
Si       1.44908862       6.06553575       1.69879257
Si       2.53805599       1.32427467       6.58432577
Si       0.64072991       5.31019903       6.58432577
Si       0.76750924       3.83231104       2.68259163
Si       2.41127666       2.80216266       2.68259163
Si      -1.25662260       4.21047443       6.18978511
Si       4.43540850       2.42399927       6.18978511
10
Lattice="5.270010594998247 0.36259177501935935 -3.063073313751088e-17 -2.0640085946321123 6.2344425360336 -5.26667962679663e-16 2.272961170200529e-23 8.345917626078691e-16 9.879496561052019" Properties=species:S:1:pos:R:3 unique_starting_index=14 config_type=initial n_minim_iter=7 stress="-0.001346232526415128 0.0011218163244870539 1.327624701047049e-16 0.0011218163244870539 -0.011884176677051285 6.755168504068109e-17 1.327624701047049e-16 6.755168504068109e-17 0.004014876777200277" pbc="T T T"
Si       0.75892651       3.78707546       0.86571850
Si       2.44707548       2.80995885       0.86571850
Si       1.75140685       0.58050327       1.71550721
Si       1.45459515       6.01653104       1.71550721
Si       2.57529596       1.34663386       6.64195299
Si       0.63070604       5.25040045       6.64195299
Si       0.77679970       3.81305275       2.67418827
Si       2.42920229       2.78398156       2.67418827
Si      -1.25602977       4.17262954       6.22303557
Si       4.46203177       2.42440477       6.22303557
10
Lattice="5.271945866894323 0.37600442817410495 -3.176379577364506e-17 -2.0503447147537748 6.259761038645837 -5.288067972886188e-16 2.2902567879711531e-23 8.324100223035597e-16 9.853670156623156" Properties=species:S:1:pos:R:3 unique_starting_index=14 config_type=initial n_minim_iter=8 stress="-0.00460826946208399 0.0011820304628850592 1.0809352182671881e-16 0.0011820304628850592 -0.0019613216738853284 8.15705743414591e-17 1.0809352182671881e-16 8.15705743414591e-17 0.00016060389550993478" pbc="T T T"
Si       0.76479484       3.80005149       0.86183398
Si       2.45680631       2.83571397       0.86183398
Si       1.75575622       0.58355526       1.71252923
Si       1.46584493       6.05221021       1.71252923
Si       2.60287002       1.38454646       6.64448005
Si       0.61873113       5.25121901       6.64448005
Si       0.78309501       3.82496307       2.65109516
Si       2.43850614       2.81080240       2.65109516
Si      -1.25245162       4.18447418       6.20309482
Si       4.47405277       2.45129129       6.20309482
10
Lattice="5.291298017768534 0.38711497962626995 -3.2702383516928916e-17 -2.0448160430029017 6.260312533010974 -5.288533856611208e-16 2.2989425532712444e-23 8.310725980322921e-16 9.837838363855909" Properties=species:S:1:pos:R:3 unique_starting_index=14 config_type=initial n_minim_iter=9 stress="-0.0034521087549999547 0.0009552942815583375 1.1429387387639602e-16 0.0009552942815583375 0.004266936790899265 -8.043826494794393e-17 1.1429387387639602e-16 -8.043826494794393e-17 -0.001389869794816914" pbc="T T T"
Si       0.77150884       3.79652121       0.85631694
Si       2.47497313       2.85090630       0.85631694
Si       1.76511421       0.58532982       1.71587215
Si       1.48136776       6.06209769       1.71587215
Si       2.64266787       1.41549155       6.65028969
Si       0.60381410       5.23193596       6.65028969
Si       0.78932326       3.81821047       2.63323248
Si       2.45715871       2.82921704       2.63323248
Si      -1.25811997       4.18009355       6.18828422
Si       4.50460194       2.46733396       6.18828422
10
Lattice="5.3126581825414805 0.3845064472442448 -3.24820220896789e-17 -2.0556818355066144 6.248035769800087 -5.278162793150601e-16 2.3074084566707832e-23 8.295288629447569e-16 9.819564363184108" Properties=species:S:1:pos:R:3 unique_starting_index=14 config_type=initial n_minim_iter=10 stress="0.0006452023642578884 -0.0007176090291611436 1.0180371954811395e-16 -0.0007176090291611436 0.00597874709182681 -1.5636519015559985e-17 1.0180371954811395e-16 -1.5636519015559985e-17 -0.0044996462536870015" pbc="T T T"
Si       0.77129299       3.78030807       0.84662255
Si       2.48568335       2.85223414       0.84662255
Si       1.76900252       0.58213049       1.72410610
Si       1.48797383       6.05041172       1.72410610
Si       2.67309729       1.41544912       6.63756384
Si       0.58387905       5.21709310       6.63756384
Si       0.78438336       3.79618918       2.63049483
Si       2.47259299       2.83635304       2.63049483
Si      -1.27909040       4.17146939       6.17169105
Si       4.53606674       2.46107282       6.17169105
10
Lattice="5.329255957043455 0.3883691609627666 -3.2808333272207314e-17 -2.056219757606969 6.224870977841394 -5.258593836673057e-16 2.298064545206538e-23 8.310651802031104e-16 9.837750551357795" Properties=species:S:1:pos:R:3 unique_starting_index=14 config_type=initial n_minim_iter=11 stress="0.0023013610020527794 -0.0014226993067556345 1.0331116664090396e-16 -0.0014226993067556345 0.0036946420140614605 -7.607156643333443e-17 1.0331116664090396e-16 -7.607156643333443e-17 -0.0012725075476709361" pbc="T T T"
Si       0.77493181       3.76320694       0.84144403
Si       2.49810439       2.85003319       0.84144403
Si       1.77720932       0.58853266       1.73948964
Si       1.49582688       6.02470748       1.73948964
Si       2.71430572       1.41929872       6.65254353
Si       0.55873048       5.19394142       6.65254353
Si       0.78146665       3.76990406       2.63448537
Si       2.49156954       2.84333608       2.63448537
Si      -1.30076189       4.15390510       6.17587184
Si       4.57379808       2.45933504       6.17587184
10
Lattice="5.3345032947997435 0.39028941217156676 -3.297055070003008e-17 -2.054687598246973 6.203861828747159 -5.240845904819022e-16 2.291129712085837e-23 8.325069789048672e-16 9.854817871932267" Properties=species:S:1:pos:R:3 unique_starting_index=14 config_type=initial n_minim_iter=12 stress="0.003425827443207802 -0.0011883609284783975 1.2862294535691346e-16 -0.0011883609284783975 -0.0013573363485216662 -1.6219120758184438e-16 1.2862294535691346e-16 -1.6219120758184438e-16 0.001586801011062262" pbc="T T T"
Si       0.77898974       3.75172685       0.83808007
Si       2.50082595       2.84242439       0.83808007
Si       1.78190105       0.59830381       1.75105926
Si       1.49791465       5.99584743       1.75105926
Si       2.74457074       1.40395208       6.65666238
Si       0.53524496       5.19019916       6.65666238
Si       0.77534064       3.74700572       2.65001033
Si       2.50447505       2.84714552       2.65001033
Si      -1.32679302       4.13929400       6.17932628
Si       4.60660871       2.45485724       6.17932628
10
Lattice="5.325891726192945 0.40328443598590236 -3.406833329816905e-17 -2.0354079829888865 6.199061364545666 -5.236790605046196e-16 2.293344330479643e-23 8.33188539367658e-16 9.862885848915267" Properties=species:S:1:pos:R:3 unique_starting_index=14 config_type=initial n_minim_iter=13 stress="0.0011912962758392643 0.0006045214327502243 1.4870647475447074e-16 0.0006045214327502243 -0.0037013961092347398 2.320419824188889e-17 1.4870647475447074e-16 2.320419824188889e-17 0.002867105203031179" pbc="T T T"
Si       0.78759223       3.75918874       0.84248178
Si       2.50289151       2.84315706       0.84248178
Si       1.79069232       0.61487769       1.75000273
Si       1.49979142       5.98746811       1.75000273
Si       2.79050014       1.40475176       6.66670888
Si       0.49998360       5.19759404       6.66670888
Si       0.77469647       3.74219469       2.65534902
Si       2.51578727       2.86015111       2.65534902
Si      -1.35076699       4.12816256       6.17539372
Si       4.64125073       2.47418324       6.17539372
10
Lattice="5.307223036574958 0.3986276031287401 -3.367493718977157e-17 -2.0345622348880843 6.215416467252831 -5.250606926598059e-16 2.3009098367507044e-23 8.325846940890228e-16 9.855737810617567" Properties=species:S:1:pos:R:3 unique_starting_index=14 config_type=initial n_minim_iter=14 stress="-0.0008796674814652638 0.00047574442588210205 6.782646791266925e-17 0.00047574442588210205 -0.0019967990035067765 -2.3080997066104892e-16 6.782646791266925e-17 -2.3080997066104892e-16 0.001309885590244738" pbc="T T T"
Si       0.78224120       3.77118058       0.84701149
Si       2.49041960       2.84286349       0.84701149
Si       1.78271406       0.61129034       1.74086873
Si       1.48994674       6.00275373       1.74086873
Si       2.78426826       1.38977757       6.65651200
Si       0.48839254       5.22426650       6.65651200
Si       0.77086413       3.75683209       2.66104756
Si       2.50179667       2.85721198       2.66104756
Si      -1.35658581       4.13604632       6.17138582
Si       4.62924661       2.47799775       6.17138582
10
Lattice="5.294727589039631 0.399278739494039 -3.3729943220479576e-17 -2.0297721726694022 6.2308162648737815 -5.263616233827929e-16 2.3102290575776524e-23 8.314093117207004e-16 9.841824190745665" Properties=species:S:1:pos:R:3 unique_starting_index=14 config_type=initial n_minim_iter=15 stress="-0.002680321603181455 -5.7739246595510495e-05 1.1764276725847132e-16 -5.7739246595510495e-05 0.000919755993826798 -1.0212393413075808e-16 1.1764276725847132e-16 -1.0212393413075808e-16 -0.001072431795472559" pbc="T T T"
Si       0.77872100       3.78126916       0.85201141
Si       2.48623442       2.84882585       0.85201141
Si       1.77564441       0.60682482       1.73064678
Si       1.48931100       6.02327018       1.73064678
Si       2.80479944       1.38332775       6.64723473
Si       0.46015598       5.24676726       6.64723473
Si       0.77297595       3.77421609       2.65990863
Si       2.49197946       2.85587891       2.65990863
Si      -1.36798222       4.13798610       6.16150449
Si       4.63293763       2.49210890       6.16150449
10
Lattice="5.294946169149098 0.40506115168008444 -3.4218424907299893e-17 -2.0231675922685923 6.234335574599003 -5.266589244137097e-16 2.3150263907569867e-23 8.308766298713926e-16 9.835518553675564" Properties=species:S:1:pos:R:3 unique_starting_index=14 config_type=initial n_minim_iter=16 stress="-0.001778571914077186 -8.915382252364734e-06 2.7527400580078677e-17 -8.915382252364734e-06 0.00262568724452901 -2.410732959891739e-16 2.7527400580078677e-17 -2.410732959891739e-16 -0.0015503251742152867" pbc="T T T"
Si       0.78021200       3.78369312       0.85604380
Si       2.49156658       2.85570361       0.85604380
Si       1.77071282       0.60386220       1.72553574
Si       1.50106575       6.03553453       1.72553574
Si       2.83850627       1.37834149       6.64103261
Si       0.43327230       5.26105523       6.64103261
Si       0.78267976       3.78781905       2.66025150
Si       2.48909881       2.85157768       2.66025150
Si      -1.37786628       4.13245395       6.15687697
Si       4.64964485       2.50694277       6.15687697
10
Lattice="5.301005444117003 0.4079601948302654 -3.4463327828572383e-17 -2.0216644580483494 6.2271570625124415 -5.260525039560534e-16 2.315995779656176e-23 8.310540355379141e-16 9.837618593461443" Properties=species:S:1:pos:R:3 unique_starting_index=14 config_type=initial n_minim_iter=17 stress="-0.0004960264817355305 -0.00034315335895836326 8.788915768785073e-17 -0.00034315335895836326 0.0013706086205621639 -1.4275734151954503e-16 8.788915768785073e-17 -1.4275734151954503e-16 -0.0006337356155893805" pbc="T T T"
Si       0.78235434       3.77858378       0.85723447
Si       2.49698664       2.85653347       0.85723447
Si       1.76953787       0.60306192       1.72632941
Si       1.50980311       6.03205534       1.72632941
Si       2.85736451       1.37503042       6.63928231
Si       0.42197647       5.26008684       6.63928231
Si       0.78982261       3.78994846       2.66154439
Si       2.48951837       2.84516879       2.66154439
Si      -1.38030406       4.12606024       6.15920182
Si       4.65964504       2.50905701       6.15920182
10
Lattice="5.306279457861599 0.41154122976522856 -3.476584347104513e-17 -2.0190381218278617 6.220068164974564 -5.254536538579623e-16 2.31731918085958e-23 8.312398566718834e-16 9.839818251035501" Properties=species:S:1:pos:R:3 unique_starting_index=14 config_type=initial n_minim_iter=18 stress="0.00014083870051863798 -7.522650890110981e-05 1.1987778266775942e-16 -7.522650890110981e-05 0.0003717810210662288 -1.282975712974143e-16 1.1987778266775942e-16 -1.282975712974143e-16 -5.9567782140778055e-05" pbc="T T T"
Si       0.78603487       3.77483616       0.85711096
Si       2.50120646       2.85677323       0.85711096
Si       1.77090160       0.60519522       1.72805371
Si       1.51633973       6.02641417       1.72805371
Si       2.86766381       1.37356488       6.63768368
Si       0.41957752       5.25804452       6.63768368
Si       0.79420619       3.78801867       2.66315039
Si       2.49303515       2.84359073       2.66315039
Si      -1.37955232       4.12245586       6.16162814
Si       4.66679366       2.50915354       6.16162814
10
Lattice="5.308871813726968 0.41298130571610236 -3.488749697569151e-17 -2.018106093774566 6.216206206255716 -5.251274063404638e-16 2.319351923522052e-23 8.313586399697633e-16 9.84122434633602" Properties=species:S:1:pos:R:3 unique_starting_index=14 config_type=initial n_minim_iter=19 stress="0.00012984182660099838 -5.381478132908821e-05 1.533767027385311e-16 -5.381478132908821e-05 -0.0003006529603656253 -9.961149987638296e-17 1.533767027385311e-16 -9.961149987638296e-17 0.0001989750420123178" pbc="T T T"
Si       0.78795383       3.77266755       0.85708609
Si       2.50281188       2.85651996       0.85708609
Si       1.77230207       0.60639203       1.72846416
Si       1.51846365       6.02279548       1.72846416
Si       2.87094847       1.37264055       6.63700949
Si       0.41981725       5.25654697       6.63700949
Si       0.79524132       3.78544623       2.66383049
Si       2.49552440       2.84374128       2.66383049
Si      -1.37790676       4.12147132       6.16381563
Si       4.66867248       2.50771619       6.16381563
10
Lattice="5.31120362240132 0.4151126236864265 -3.506754463333519e-17 -2.016350420693479 6.214033182686494 -5.249438352399513e-16 2.3220596151281777e-23 8.313856476215582e-16 9.84154404514368" Properties=species:S:1:pos:R:3 unique_starting_index=14 config_type=initial n_minim_iter=20 stress="0.00012779461894794 0.00012097673939390033 1.3300764181197033e-16 0.00012097673939390033 -0.00029240675105469233 -2.5655640684094653e-16 1.3300764181197033e-16 -2.5655640684094653e-16 0.0002936927944676041" pbc="T T T"
Si       0.78994089       3.77173393       0.85738993
Si       2.50491230       2.85741188       0.85738993
Si       1.77401881       0.60758845       1.72793503
Si       1.52083438       6.02155736       1.72793503
Si       2.87435948       1.37196947       6.63583149
Si       0.42049371       5.25717633       6.63583149
Si       0.79611651       3.78364826       2.66379221
Si       2.49873669       2.84549755       2.66379221
Si      -1.37564792       4.12149265       6.16584357
Si       4.67050112       2.50765316       6.16584357
10
Lattice="5.312245914752008 0.4160400141456489 -3.514588791141653e-17 -2.0156098201405026 6.213281937501381 -5.248803719181645e-16 2.3252814948968323e-23 8.313195512976641e-16 9.840761623514553" Properties=species:S:1:pos:R:3 unique_starting_index=14 config_type=initial n_minim_iter=21 stress="-3.584442271518311e-05 2.0616865033171528e-05 1.6483619381386404e-16 2.0616865033171528e-05 -0.00024853883106395824 -1.4096077949249293e-16 1.6483619381386404e-16 -1.4096077949249293e-16 0.00012855357103921976" pbc="T T T"
Si       0.79042420       3.77108159       0.85788858
Si       2.50621189       2.85824036       0.85788858
Si       1.77507552       0.60791761       1.72679427
Si       1.52156057       6.02140434       1.72679427
Si       2.87704122       1.37062806       6.63440492
Si       0.41959487       5.25869389       6.63440492
Si       0.79592983       3.78234642       2.66297819
Si       2.50070626       2.84697553       2.66297819
Si      -1.37460372       4.12174816       6.16729121
Si       4.67123981       2.50757380       6.16729121
