24
Lattice="10.49797198768889 7.925030514117309e-13 5.325234936031523e-14 5.248985993843759 9.091510429556395 -8.16207537047476e-14 5.248985993844172 3.0305034765191663 8.716879317347718" Properties=species:S:1:pos:R:3 unique_starting_index=24 config_type=initial n_minim_iter=1 energy=-3938.6072053688376 free_energy=-3938.6072053688376 pbc="T T T"
Si      11.93683289       4.58836274       8.26605802
Si      11.05388779       8.04341915       8.26605802
Si       8.50319372       5.55123806       8.26605802
Si      11.66459395       4.31973464       6.33467886
Si      11.42264602       7.94196737       6.33467886
Si       8.40667442       5.92131795       6.33467886
Si      13.54837718       5.19878410       2.00125463
Si       9.71947524       9.13384677       2.00125463
Si       8.22606197       3.85038909       2.00125463
Si      11.29397593       7.92276592       2.33078796
Si       8.48763841       5.81948711       2.33078796
Si      11.71230005       4.44076693       2.33078796
Si      12.72095071       8.43070832       7.50818128
Si       7.33426000       6.80131232       7.50818128
Si      11.43870368       2.95099932       7.50818128
Si      14.16653017       3.33747016       6.95675970
Si      11.02234390      10.59983993       6.95675970
Si       6.30504032       4.24570986       6.95675970
Si      11.59505173      11.75573089       6.19485732
Si       5.01765548       4.16374391       6.19485732
Si      14.88120719       2.26354515       6.19485732
Si       5.23546217       1.87502316       0.97858714
Si       6.25642217       3.59653166       0.97858714
Si       4.25507207       3.61995470       0.97858714
24
Lattice="10.487678210554298 7.891162961922382e-13 5.313022996775359e-14 5.243839105276464 9.082595757056943 -8.138511146700738e-14 5.243839105276876 3.0275319190193466 8.71045693657438" Properties=species:S:1:pos:R:3 unique_starting_index=24 config_type=initial n_minim_iter=2 stress="-0.004111254900636869 1.2551128943584675e-16 4.156056129933262e-16 1.2551128943584675e-16 -0.004111254900622437 -4.1286256242463233e-16 4.156056129933262e-16 -4.1286256242463233e-16 0.004270974600886771" pbc="T T T"
Si      11.92500196       4.58394740       8.25998065
Si      11.04303950       8.03538094       8.25998065
Si       8.49499160       5.54586227       8.25998065
Si      11.65320422       4.31551092       6.33003017
Si      11.41141117       7.93421543       6.33003017
Si       8.39841767       5.91546426       6.33003017
Si      13.53485442       5.19383128       1.99978510
Si       9.70993834       9.12461212       1.99978510
Si       8.21824031       3.84674721       1.99978510
Si      11.28286860       7.91509525       2.32903075
Si       8.47924751       5.81370321       2.32903075
Si      11.70091695       4.43639215       2.32903075
Si      12.70850996       8.42246985       7.50269743
Si       7.32702755       6.79465754       7.50269743
Si      11.42749556       2.94806322       7.50269743
Si      14.15268369       3.33417361       6.95172042
Si      11.01153448      10.58949680       6.95172042
Si       6.29881489       4.24152020       6.95172042
Si      11.58335087      11.74423279       6.19028726
Si       5.01287600       4.15935972       6.19028726
Si      14.86680619       2.26159810       6.19028726
Si       5.23035619       1.87331602       0.97774130
Si       6.25015981       3.59296332       0.97774130
Si       4.25099975       3.61631551       0.97774130
24
Lattice="10.50081104587672 7.873989329558611e-13 5.318924037634518e-14 5.250405522937675 9.093969126069876 -8.182221652047487e-14 5.250405522938086 3.0313230420236548 8.65396929778558" Properties=species:S:1:pos:R:3 unique_starting_index=24 config_type=initial n_minim_iter=3 stress="-0.0004905684890343205 -3.802878108365866e-15 -2.0823333691196853e-17 -3.802878108365866e-15 -0.0004905684890096055 -8.39583380020224e-16 -2.0823333691196853e-17 -8.39583380020224e-16 -0.008118143954464018" pbc="T T T"
Si      11.93827445       4.59079707       8.20659106
Si      11.05673693       8.04345042       8.20659106
Si       8.50742019       5.55368986       8.20659106
Si      11.66829127       4.32112050       6.28912439
Si      11.42527529       7.94447641       6.28912439
Si       8.40886501       5.92234044       6.28912439
Si      13.54876900       5.20233953       1.98688394
Si       9.72187835       9.13240838       1.98688394
Si       8.23178422       3.85318944       1.98688394
Si      11.29669341       7.92619854       2.31344198
Si       8.48898505       5.82012420       2.31344198
Si      11.71675311       4.44161461       2.31344198
Si      12.72495809       8.43330198       7.45470977
Si       7.33568825       6.80348598       7.45470977
Si      11.44178523       2.95114940       7.45470977
Si      14.17074139       3.33807073       6.90778940
Si      11.02539630      10.60318667       6.90778940
Si       6.30629388       4.24667995       6.90778940
Si      11.59591803      11.75855406       6.15002817
Si       5.02045550       4.16308257       6.15002817
Si      14.88605803       2.26630072       6.15002817
Si       5.23722698       1.87544341       0.96979270
Si       6.25801488       3.59784990       0.96979270
Si       4.25597314       3.62067491       0.96979270
24
Lattice="10.565625878188271 7.680018096016395e-13 5.356111867759142e-14 5.282812939093469 9.1501004173937 -8.234323921089622e-14 5.282812939093868 3.0500334724649236 8.681155838583791" Properties=species:S:1:pos:R:3 unique_starting_index=24 config_type=initial n_minim_iter=4 stress="0.013069877039190369 -1.549060870109831e-15 2.8798509942178494e-16 -1.549060870109831e-15 0.013069877039193519 -8.607143084004794e-16 2.8798509942178494e-16 -8.607143084004794e-16 0.005714071841974132" pbc="T T T"
Si      11.99625201       4.63039829       8.23329706
Si      11.12308215       8.07385985       8.23329706
Si       8.57754189       5.59594179       8.23329706
Si      11.74609225       4.35017078       6.30853711
Si      11.49084617       7.99732890       6.30853711
Si       8.45993763       5.95270025       6.30853711
Si      13.59906807       5.25700392       1.99421337
Si       9.77901773       9.14863646       1.99421337
Si       8.31879026       3.89455955       1.99421337
Si      11.36312012       7.98689503       2.31547999
Si       8.53283666       5.84730318       2.31547999
Si      11.80091928       4.46600172       2.31547999
Si      12.80909424       8.48899136       7.48559616
Si       7.37502141       6.84850534       7.48559616
Si      11.51276040       2.96270323       7.48559616
Si      14.26334152       3.35504591       6.94232610
Si      11.09402496      10.67489315       6.94232610
Si       6.33950958       4.27026087       6.94232610
Si      11.65108782      11.82561880       6.16833783
Si       5.06442050       4.17732863       6.16833783
Si      14.98136774       2.29725249       6.16833783
Si       5.27180112       1.89627796       0.95710871
Si       6.28749938       3.61737472       0.95710871
Si       4.28913674       3.63644683       0.95710871
24
Lattice="10.516249723295013 7.498711100185151e-13 5.330126228116412e-14 5.258124861646857 9.107339412914934 -8.201112980954191e-14 5.258124861647244 3.0357798043053292 8.673848152682341" Properties=species:S:1:pos:R:3 unique_starting_index=24 config_type=initial n_minim_iter=5 stress="-0.006536574164351667 -5.571573925712256e-16 1.1226006470612365e-17 -5.571573925712256e-16 -0.006536574164333924 -8.880572975859424e-16 1.1226006470612365e-17 -8.880572975859424e-16 -0.005292616483202357" pbc="T T T"
Si      11.93454161       4.61570412       8.21732809
Si      11.06791057       8.02776415       8.21732809
Si       8.54629542       5.57120964       8.21732809
Si      11.70186984       4.33149514       6.30532936
Si      11.43037866       7.96836898       6.30532936
Si       8.41649911       5.91481380       6.30532936
Si      13.50988372       5.26315593       1.99033864
Si       9.71952980       9.06832454       1.99033864
Si       8.31933408       3.88319746       1.99033864
Si      11.31615192       7.95434336       2.31048935
Si       8.48575902       5.82290336       2.31048935
Si      11.74683665       4.43743120       2.31048935
Si      12.75037177       8.45552246       7.48700133
Si       7.33461526       6.81438463       7.48700133
Si      11.46376057       2.94477083       7.48700133
Si      14.19761791       3.33831441       6.95178084
Si      11.04262436      10.62634058       6.95178084
Si       6.30850533       4.25002293       6.95178084
Si      11.60577018      11.75465811       6.16134585
Si       5.04978077       4.17356276       6.16134585
Si      14.89319664       2.28645705       6.16134585
Si       5.24105559       1.88228394       0.94727056
Si       6.26561517       3.59774531       0.94727056
Si       4.26770225       3.62730925       0.94727056
24
Lattice="10.51103772586793 7.345885211704257e-13 5.326231921740413e-14 5.255518862933328 9.102825690738614 -8.197575976131933e-14 5.255518862933706 3.0342752302465508 8.707681143092877" Properties=species:S:1:pos:R:3 unique_starting_index=24 config_type=initial n_minim_iter=6 stress="-0.0050312415483323 -4.3493004368527627e-16 -2.761058712468745e-16 -4.3493004368527627e-16 -0.00503124154832968 -1.000817155405237e-15 -2.761058712468745e-16 -1.000817155405237e-15 0.004452227910093501" pbc="T T T"
Si      11.93050984       4.61718191       8.23395399
Si      11.05822266       8.02353365       8.23395399
Si       8.54437911       5.56493493       8.23395399
Si      11.70664380       4.33123943       6.33305432
Si      11.41778913       7.97263121       6.33305432
Si       8.40867868       5.90177984       6.33305432
Si      13.48379198       5.29532338       1.99382102
Si       9.69429385       9.02964471       1.99382102
Si       8.35502578       3.88068239       1.99382102
Si      11.32234298       7.95129177       2.31922485
Si       8.47488225       5.82979077       2.31922485
Si      11.73588637       4.42456794       2.31922485
Si      12.74351787       8.45640177       7.52422562
Si       7.32685671       6.80800933       7.52422562
Si      11.46273702       2.94123938       7.52422562
Si      14.18691610       3.33823962       6.99303516
Si      11.03761604      10.61710994       6.99303516
Si       6.30857946       4.25030092       6.99303516
Si      11.59013969      11.73948646       6.18343393
Si       5.06031105       4.16761217       6.18343393
Si      14.88266086       2.29855184       6.18343393
Si       5.22644908       1.87390840       0.94760477
Si       6.27495986       3.58928347       0.94760477
Si       4.26514608       3.63963291       0.94760477
24
Lattice="10.534391372994559 7.280151659617338e-13 5.3365505938746496e-14 5.26719568649665 9.12305054242129 -8.220049289010963e-14 5.267195686497024 3.041016847474107 8.672371046033126" Properties=species:S:1:pos:R:3 unique_starting_index=24 config_type=initial n_minim_iter=7 stress="-0.004684708003691756 7.860469077156742e-16 -6.632312410636065e-16 7.860469077156742e-16 -0.004684708003688904 -8.092913044952683e-16 -6.632312410636065e-16 -8.092913044952683e-16 -0.00018559147776554068" pbc="T T T"
Si      11.95843085       4.62923291       8.19235806
Si      11.08053297       8.04168845       8.19235806
Si       8.56420872       5.57517882       8.19235806
Si      11.73773175       4.34233429       6.30930406
Si      11.43934401       7.99400673       6.30930406
Si       8.42609678       5.90975916       6.30930406
Si      13.50566269       5.32858607       1.98232122
Si       9.70125945       9.03195395       1.98232122
Si       8.39625040       3.88556016       1.98232122
Si      11.35640293       7.96813384       2.31137373
Si       8.48997390       5.85086652       2.31137373
Si      11.75679571       4.42709982       2.31137373
Si      12.77108338       8.47687944       7.49831507
Si       7.34204707       6.82164293       7.49831507
Si      11.49004209       2.94757781       7.49831507
Si      14.21708698       3.34719907       6.97112150
Si      11.06147878      10.63875896       6.97112150
Si       6.32460678       4.26014215       6.97112150
Si      11.61279086      11.75914770       6.15730555
Si       5.07866564       4.17739804       6.15730555
Si      14.91171605       2.30955444       6.15730555
Si       5.23156037       1.88636188       0.94190990
Si       6.28497283       3.58748324       0.94190990
Si       4.28505229       3.64920452       0.94190990
24
Lattice="10.540035891862582 7.221938842452492e-13 5.3428268012060574e-14 5.270017945930664 9.127938839153133 -8.224499470436337e-14 5.270017945931035 3.0426462797180536 8.668706549652057" Properties=species:S:1:pos:R:3 unique_starting_index=24 config_type=initial n_minim_iter=8 stress="-0.0005196667985546813 1.5211545623549593e-15 -8.552916831303591e-16 1.5211545623549593e-15 -0.0005196667985532734 -5.868565579891344e-16 -8.552916831303591e-16 -5.868565579891344e-16 -9.745669624462169e-05" pbc="T T T"
Si      11.96366680       4.63317865       8.18959941
Si      11.08578692       8.04425005       8.18959941
Si       8.57065238       5.57844807       8.18959941
Si      11.74514832       4.34588724       6.30668807
Si      11.44384783       7.99865320       6.30668807
Si       8.43110996       5.91133634       6.30668807
Si      13.51321588       5.34236905       1.97840163
Si       9.69683548       9.03160372       1.97840163
Si       8.41005473       3.88190400       1.97840163
Si      11.36822928       7.97074285       2.31402404
Si       8.49309030       5.85980393       2.31402404
Si      11.75878652       4.42532999       2.31402404
Si      12.77664613       8.48070150       7.49670070
Si       7.34724473       6.82454938       7.49670070
Si      11.49621524       2.95062589       7.49670070
Si      14.23092688       3.34918243       6.96708825
Si      11.06413023      10.64975299       6.96708825
Si       6.32504899       4.25694136       6.96708825
Si      11.61736951      11.76230708       6.15510048
Si       5.08492924       4.17978359       6.15510048
Si      14.91780735       2.31378611       6.15510048
Si       5.23347538       1.88843784       0.93935074
Si       6.28786201       3.58810371       0.93935074
Si       4.28871487       3.65139639       0.93935074
24
Lattice="10.53467846482571 7.175635574755797e-13 5.3389223949188385e-14 5.267339232412232 9.123299171240275 -8.217671553492985e-14 5.2673392324126 3.0410997237471005 8.675093551483009" Properties=species:S:1:pos:R:3 unique_starting_index=24 config_type=initial n_minim_iter=9 stress="-0.00304395108735969 5.083121970693533e-15 -9.508716401928673e-16 5.083121970693533e-15 -0.003043951087339395 1.9920234893271661e-16 -9.508716401928673e-16 1.9920234893271661e-16 -0.0008750230898272296" pbc="T T T"
Si      11.95627117       4.63246514       8.20353528
Si      11.07938780       8.03820200       8.20353528
Si       8.56837485       5.57593029       8.20353528
Si      11.73847926       4.34655077       6.31074256
Si      11.43589286       7.99254586       6.31074256
Si       8.42966169       5.90750081       6.31074256
Si      13.50009467       5.34911003       1.97443619
Si       9.68684337       9.01686992       1.97443619
Si       8.41709578       3.88061749       1.97443619
Si      11.35864353       7.97228266       2.32523536
Si       8.48583481       5.85073252       2.32523536
Si      11.75955548       4.42358226       2.32523536
Si      12.76485031       8.47148901       7.50311846
Si       7.35040604       6.81894014       7.50311846
Si      11.48877747       2.95616829       7.50311846
Si      14.22576345       3.35201954       6.96251011
Si      11.05354008      10.64386277       6.96251011
Si       6.32473028       4.25071513       6.96251011
Si      11.61299206      11.75101294       6.16048421
Si       5.08618412       4.18163966       6.16048421
Si      14.90485764       2.31394483       6.16048421
Si       5.23212416       1.88715200       0.93661833
Si       6.28429377       3.58757644       0.93661833
Si       4.28559820       3.64856983       0.93661833
24
Lattice="10.531509877559195 7.187310339129113e-13 5.338137114210898e-14 5.265754938778975 9.120555094173364 -8.21830102817282e-14 5.2657549387793425 3.040185031391464 8.68477384768878" Properties=species:S:1:pos:R:3 unique_starting_index=24 config_type=initial n_minim_iter=10 stress="0.003968058413444504 6.342987323034952e-15 -5.941060723883346e-16 6.342987323034952e-15 0.003968058413456174 -2.440173574650563e-16 -5.941060723883346e-16 -2.440173574650563e-16 -0.0007601492266110236" pbc="T T T"
Si      11.95656004       4.63157854       8.22079137
Si      11.07367401       8.03889547       8.22079137
Si       8.56429400       5.57063527       8.22079137
Si      11.73237112       4.35070636       6.31871000
Si      11.42901092       7.98517826       6.31871000
Si       8.43314602       5.90522467       6.31871000
Si      13.49629064       5.35810557       1.96642428
Si       9.67461785       9.00907777       1.96642428
Si       8.42361957       3.87392594       1.96642428
Si      11.35247484       7.97675472       2.34122539
Si       8.47870906       5.84315425       2.34122539
Si      11.76334416       4.42120032       2.34122539
Si      12.75168909       8.46198719       7.51098471
Si       7.35887828       6.81229310       7.51098471
Si      11.48396068       2.96682899       7.51098471
Si      14.21691768       3.35658735       6.96000522
Si      11.04766995      10.63391820       6.96000522
Si       6.32994043       4.25060373       6.96000522
Si      11.61000836      11.74497137       6.16637385
Si       5.08657095       4.18207650       6.16637385
Si      14.89794874       2.31406142       6.16637385
Si       5.23166611       1.88591969       0.93722090
Si       6.28242141       3.58779591       0.93722090
Si       4.28317572       3.64683859       0.93722090
24
Lattice="10.532685879850606 7.186341733029379e-13 5.3414669636013704e-14 5.266342939924682 9.121573542032639 -8.218528485823798e-14 5.266342939925048 3.040524514011223 8.688342838106944" Properties=species:S:1:pos:R:3 unique_starting_index=24 config_type=initial n_minim_iter=11 stress="0.002486291762305305 4.3654540884685386e-15 -3.2718960019598455e-17 4.3654540884685386e-15 0.002486291762326305 5.659316052170384e-17 -3.2718960019598455e-17 5.659316052170384e-17 2.380651156692404e-05" pbc="T T T"
Si      11.96767681       4.63305846       8.22802182
Si      11.06918598       8.04778292       8.22802182
Si       8.56119327       5.56230480       8.22802182
Si      11.72938371       4.36156232       6.32515190
Si      11.42345508       7.97716311       6.32515190
Si       8.44521727       5.90442075       6.32515190
Si      13.49164281       5.37460594       1.95265499
Si       9.66500402       8.99680244       1.95265499
Si       8.44140923       3.87173779       1.95265499
Si      11.34677317       7.99097559       2.35762962
Si       8.47159627       5.83110603       2.35762962
Si      11.77968662       4.42106457       2.35762962
Si      12.74161874       8.45275702       7.51476838
Si       7.37425903       6.80818700       7.51476838
Si      11.48217830       2.98220216       7.51476838
Si      14.22286487       3.35912804       6.95487261
Si      11.04484806      10.63779827       6.95487261
Si       6.33034313       4.24621987       6.95487261
Si      11.60980636      11.74445662       6.16546765
Si       5.08946975       4.18215893       6.16546765
Si      14.89877996       2.31653063       6.16546765
Si       5.23102246       1.88497250       0.93977996
Si       6.28473952       3.58771209       0.93977996
Si       4.28326526       3.64888804       0.93977996
24
Lattice="10.53236549080995 7.149955774014953e-13 5.3388426532772503e-14 5.2661827454043575 9.121296076984335 -8.221403175949024e-14 5.266182745404721 3.040432025661787 8.697404815907381" Properties=species:S:1:pos:R:3 unique_starting_index=24 config_type=initial n_minim_iter=12 stress="-0.000866981293968057 2.0821262867885804e-16 -1.7951197277928348e-16 2.0821262867885804e-16 -0.0008669812939670875 2.566449855093901e-16 -1.7951197277928348e-16 2.566449855093901e-16 0.0003210061731527225" pbc="T T T"
Si      11.96745416       4.63677693       8.23678893
Si      11.06543624       8.04573086       8.23678893
Si       8.56420450       5.56008346       8.23678893
Si      11.73297527       4.36559574       6.33486530
Si      11.41752548       7.97825678       6.33486530
Si       8.44659414       5.89873873       6.33486530
Si      13.48763878       5.38506642       1.94914828
Si       9.65730622       8.98810461       1.94914828
Si       8.45214990       3.86942022       1.94914828
Si      11.34770008       7.99397018       2.36164273
Si       8.46789864       5.83041146       2.36164273
Si      11.78149618       4.41820961       2.36164273
Si      12.73960418       8.45224832       7.52387688
Si       7.37506608       6.80669669       7.52387688
Si      11.48242464       2.98364623       7.52387688
Si      14.21960632       3.35763073       6.96746987
Si      11.04713326      10.63572494       6.96746987
Si       6.33035531       4.24923558       6.96746987
Si      11.60747275      11.74342321       6.16843863
Si       5.09089073       4.18065467       6.16843863
Si      14.89873142       2.31851337       6.16843863
Si       5.23296020       1.88503939       0.93829369
Si       6.28339234       3.58935678       0.93829369
Si       4.28219412       3.64689901       0.93829369
24
Lattice="10.533115650836528 7.095281581598458e-13 5.338805197160086e-14 5.266557825417652 9.121945734624251 -8.22218280945288e-14 5.266557825418012 3.0406485782084234 8.699929940938683" Properties=species:S:1:pos:R:3 unique_starting_index=24 config_type=initial n_minim_iter=13 stress="0.0006764160480576229 7.325993374379521e-15 -4.575508470918155e-16 7.325993374379521e-15 0.0006764160480685032 2.9598027946128036e-16 -4.575508470918155e-16 2.9598027946128036e-16 -0.00031676855062415753" pbc="T T T"
Si      11.97023775       4.64042666       8.23781976
Si      11.06238400       8.04631665       8.23781976
Si       8.56672362       5.55714725       8.23781976
Si      11.73869088       4.37019660       6.34083233
Si      11.41218354       7.98090621       6.34083233
Si       8.44847096       5.89278775       6.34083233
Si      13.48785006       5.38974479       1.94489844
Si       9.65464931       8.98594840       1.94489844
Si       8.45684600       3.86819737       1.94489844
Si      11.34760638       7.99740931       2.36172700
Si       8.46646744       5.82861075       2.36172700
Si      11.78527156       4.41787051       2.36172700
Si      12.74008888       8.45264281       7.52653101
Si       7.37598241       6.80691921       7.52653101
Si      11.48327409       2.98432854       7.52653101
Si      14.22039888       3.35543214       6.97473960
Si      11.05014134      10.63751062       6.97473960
Si       6.32880515       4.25094781       6.97473960
Si      11.60909342      11.74253831       6.16656999
Si       5.09234706       4.18250066       6.16656999
Si      14.89790489       2.31885159       6.16656999
Si       5.23535973       1.88652866       0.93915892
Si       6.28165299       3.59069020       0.93915892
Si       4.28265918       3.64472597       0.93915892
24
Lattice="10.534358502450461 7.116338907860977e-13 5.3382719890590424e-14 5.267179251224617 9.123022075695049 -8.221597236656293e-14 5.267179251224977 3.041007358565357 8.705174849582011" Properties=species:S:1:pos:R:3 unique_starting_index=24 config_type=initial n_minim_iter=14 stress="-0.0008305887045877978 1.0479813375342111e-14 -8.373658988541202e-16 1.0479813375342111e-14 -0.0008305887045693954 7.130880598245031e-16 -8.373658988541202e-16 7.130880598245031e-16 -0.000320434167673565" pbc="T T T"
Si      11.97341516       4.64263891       8.24467725
Si      11.06136514       8.04796224       8.24467725
Si       8.56829364       5.55544209       8.24467725
Si      11.74275521       4.37504338       6.34797468
Si      11.40843964       7.98200263       6.34797468
Si       8.45187908       5.88899724       6.34797468
Si      13.49236882       5.38829254       1.94194119
Si       9.65613332       8.99058789       1.94194119
Si       8.45457179       3.86716282       1.94194119
Si      11.34549110       8.00035916       2.36354096
Si       8.46745614       5.82530393       2.36354096
Si      11.79012670       4.42038015       2.36354096
Si      12.74036289       8.45192976       7.53032394
Si       7.37894863       6.80751304       7.53032394
Si      11.48376241       2.98660045       7.53032394
Si      14.22286130       3.35559372       6.97950513
Si      11.05125590      10.63956234       6.97950513
Si       6.32895673       4.25088719       6.97950513
Si      11.61012044      11.74465581       6.16757445
Si       5.09248545       4.18233134       6.16757445
Si      14.90046804       2.31905609       6.16757445
Si       5.23966876       1.88658823       0.94115095
Si       6.28068974       3.59439214       0.94115095
Si       4.28117768       3.64204080       0.94115095
24
Lattice="10.536667224968484 7.102749068838e-13 5.340673848988416e-14 5.268333612483628 9.125021488045945 -8.221735384117264e-14 5.268333612483989 3.0416738293489884 8.712145902014566" Properties=species:S:1:pos:R:3 unique_starting_index=24 config_type=initial n_minim_iter=15 stress="-3.8899166804054525e-05 1.2086879579963386e-14 -3.6422072818101395e-16 1.2086879579963386e-14 -3.889916678880073e-05 7.304295607734963e-16 -3.6422072818101395e-16 7.304295607734963e-16 -7.788661776039216e-05" pbc="T T T"
Si      11.97872909       4.64644369       8.25348457
Si      11.06003058       8.05066185       8.25348457
Si       8.57124043       5.55293652       8.25348457
Si      11.75023796       4.38381912       6.35767117
Si      11.40171570       7.98409501       6.35767117
Si       8.45804644       5.88212794       6.35767117
Si      13.49540220       5.39280199       1.93690332
Si       9.65532878       8.99096015       1.93690332
Si       8.45926912       3.86627993       1.93690332
Si      11.34458351       8.00450126       2.36734868
Si       8.46894021       5.82244688       2.36734868
Si      11.79647638       4.42309392       2.36734868
Si      12.73965127       8.45160636       7.53645365
Si       7.38420195       6.80705846       7.53645365
Si      11.48614688       2.99137725       7.53645365
Si      14.22775874       3.35778027       6.98503788
Si      11.05153102      10.64271037       6.98503788
Si       6.33071034       4.24955143       6.98503788
Si      11.61134049      11.74453189       6.16921793
Si       5.09660018       4.18344990       6.16921793
Si      14.90205942       2.32206029       6.16921793
Si       5.24458264       1.88664570       0.94301687
Si       6.28049175       3.59861895       0.94301687
Si       4.27992487       3.63975593       0.94301687
24
Lattice="10.545285036585259 7.102841409712303e-13 5.3564104002400126e-14 5.272642518292017 9.132484731831104 -8.221050117497512e-14 5.2726425182923755 3.044161577277375 8.720965827620347" Properties=species:S:1:pos:R:3 unique_starting_index=24 config_type=initial n_minim_iter=16 stress="0.0003378078010907441 1.1963056324502514e-14 1.3483372690297753e-17 1.1963056324502514e-14 0.00033780780111297107 1.1222924915747836e-15 1.3483372690297753e-17 1.1222924915747836e-15 0.0007823146714405916" pbc="T T T"
Si      11.99450311       4.65556578       8.26585682
Si      11.06147923       8.05976152       8.26585682
Si       8.57987118       5.54964126       8.26585682
Si      11.77192112       4.40620976       6.37221452
Si      11.38871887       7.99167786       6.37221452
Si       8.47521354       5.86708093       6.37221452
Si      13.50566993       5.39912688       1.92976580
Si       9.66195302       8.99668981       1.92976580
Si       8.46823058       3.86915186       1.92976580
Si      11.34771216       8.00956360       2.36860288
Si       8.48022739       5.82262521       2.36860288
Si      11.80791398       4.43277975       2.36860288
Si      12.74159793       8.45631695       7.54350893
Si       7.39638476       6.80638902       7.54350893
Si      11.49787084       3.00226258       7.54350893
Si      14.24214635       3.36591210       6.99266228
Si      11.05453046      10.65110450       6.99266228
Si       6.33917672       4.24795196       6.99266228
Si      11.61660696      11.74629097       6.17001895
Si       5.10967916       4.18713125       6.17001895
Si      14.90956741       2.33154634       6.17001895
Si       5.25619532       1.88878664       0.94755467
Si       6.28144911       3.60760536       0.94755467
Si       4.28028154       3.63609183       0.94755467
24
Lattice="10.555383876852424 7.082470683933462e-13 5.357538270287002e-14 5.2776919384255985 9.141230584051229 -8.22887368412929e-14 5.277691938425958 3.0470768613507495 8.706544208886394" Properties=species:S:1:pos:R:3 unique_starting_index=24 config_type=initial n_minim_iter=17 stress="0.0007381102383050128 1.1637626240634881e-14 6.437301546460652e-16 1.1637626240634881e-14 0.0007381102383258342 7.717228983895911e-16 6.437301546460652e-16 7.717228983895911e-16 0.00027750745304243584" pbc="T T T"
Si      12.01049768       4.66405092       8.25611532
Si      11.06633128       8.06937064       8.25611532
Si       8.58932109       5.54903870       8.25611532
Si      11.79304771       4.42797828       6.36169142
Si      11.37950117       7.99908977       6.36169142
Si       8.49360117       5.85539221       6.36169142
Si      13.51192837       5.40347469       1.92908695
Si       9.67525616       8.99993588       1.92908695
Si       8.47896551       3.87904969       1.92908695
Si      11.36111816       8.00506603       2.35704588
Si       8.49761708       5.83648393       2.35704588
Si      11.80741481       4.44091030       2.35704588
Si      12.74171063       8.46310198       7.52848815
Si       7.41065008       6.80309411       7.52848815
Si      11.51378934       3.01626417       7.52848815