16
Lattice="4.850656373623392 8.41066637574914e-28 -1.2783135634763684e-15 -1.3510966323324264e-27 9.808635917557826 1.3267565860446728e-12 1.4459787213273594e-15 -7.421772751898527e-13 5.486874348462645" Properties=species:S:1:pos:R:3 unique_starting_index=98 config_type=initial n_minim_iter=1 energy=-2603.159831713959 free_energy=-2603.159831713959 pbc="T T T"
Si       1.56562238       6.10519973       0.51120254
Si       3.28503399       1.20088177       4.97567180
Si       3.99095057       8.60775415       4.97567180
Si       0.85970581       3.70343619       0.51120254
Si       3.28503399       3.70343619       4.97567180
Si       1.56562238       8.60775415       0.51120254
Si       0.85970581       1.20088177       0.51120254
Si       3.99095057       6.10519973       4.97567180
Si       1.91335954       6.07842284       2.91193553
Si       2.93729683       1.17410488       2.57493882
Si       4.33868773       8.63453104       2.57493882
Si       0.51196864       3.73021308       2.91193553
Si       2.93729683       3.73021308       2.57493882
Si       1.91335954       8.63453104       2.91193553
Si       0.51196864       1.17410488       2.91193553
Si       4.33868773       6.07842284       2.57493882
16
Lattice="4.722207015697038 8.026887986634861e-28 -1.2489371363985578e-15 -1.4029459309508235e-27 9.939429220095468 1.344489755484597e-12 1.418706320295802e-15 -7.307537182389302e-13 5.402595664931202" Properties=species:S:1:pos:R:3 unique_starting_index=98 config_type=initial n_minim_iter=2 stress="-0.028383670295429136 -6.567386193372293e-18 4.92553964502922e-17 -6.567386193372293e-18 0.004430430751506958 1.2024884120064668e-15 4.92553964502922e-17 1.2024884120064668e-15 -0.005116952495905985" pbc="T T T"
Si       1.52309877       6.18906344       0.47421179
Si       3.19910824       1.21934883       4.92838387
Si       3.88420228       8.72008039       4.92838387
Si       0.83800474       3.75036578       0.47421179
Si       3.19910824       3.75036578       4.92838387
Si       1.52309877       8.72008039       0.47421179
Si       0.83800474       1.21934883       0.47421179
Si       3.88420228       6.18906344       4.92838387
Si       1.85990341       6.16427274       2.88124292
Si       2.86230361       1.19455813       2.52135275
Si       4.22100691       8.74487109       2.52135275
Si       0.50120010       3.77515648       2.88124292
Si       2.86230361       3.77515648       2.52135275
Si       1.85990341       8.74487109       2.88124292
Si       0.50120010       1.19455813       2.88124292
Si       4.22100691       6.16427274       2.52135275
16
Lattice="4.870419694627679 8.90792439074086e-28 -1.3259626122349195e-15 -1.3266581574060017e-27 10.227345132429775 1.3832938030291746e-12 1.328438063092712e-15 -7.066532782322723e-13 5.223851452464657" Properties=species:S:1:pos:R:3 unique_starting_index=98 config_type=initial n_minim_iter=3 stress="-0.0010802793658339983 -3.986012825224125e-17 -4.2506803434736616e-17 -3.986012825224125e-17 0.037118605098883956 1.661818680329935e-15 -4.2506803434736616e-17 1.661818680329935e-15 0.024478275043430118" pbc="T T T"
Si       1.56633978       6.37872387       0.34475115
Si       3.30407992       1.26505131       4.87910030
Si       4.00154962       8.96229382       4.87910030
Si       0.86887007       3.84862126       0.34475115
Si       3.30407992       3.84862126       4.87910030
Si       1.56633978       8.96229382       0.34475115
Si       0.86887007       1.26505131       0.34475115
Si       4.00154962       6.37872387       4.87910030
Si       1.90603667       6.36303446       2.84233400
Si       2.96438302       1.24936189       2.38151745
Si       4.34124652       8.97798324       2.38151745
Si       0.52917317       3.86431068       2.84233400
Si       2.96438302       3.86431068       2.38151745
Si       1.90603667       8.97798324       2.84233400
Si       0.52917317       1.24936189       2.84233400
Si       4.34124652       6.36303446       2.38151745
16
Lattice="4.95915588040287 1.0076279508069345e-27 -1.4492267276280653e-15 -1.131367514991863e-27 10.15508510211783 1.3737251900778416e-12 1.1575499492063508e-15 -6.786267470924637e-13 5.017509208550495" Properties=species:S:1:pos:R:3 unique_starting_index=98 config_type=initial n_minim_iter=4 stress="-0.0035776319754053957 6.61149366772755e-17 -6.081846467202987e-17 6.61149366772755e-17 0.02806194370430534 3.3867900639634833e-15 -6.081846467202987e-17 3.3867900639634833e-15 0.0036722943867374047" pbc="T T T"
Si       1.59161646       6.34047472       0.25828365
Si       3.36753942       1.26293217       4.75922556
Si       4.07119440       8.89215293       4.75922556
Si       0.88796148       3.81461038       0.25828365
Si       3.36753942       3.81461038       4.75922556
Si       1.59161646       8.89215293       0.25828365
Si       0.88796148       1.26293217       0.25828365
Si       4.07119440       6.34047472       4.75922556
Si       1.93225881       6.33129991       2.76594458
Si       3.02689707       1.25375736       2.25156463
Si       4.41183675       8.90132774       2.25156463
Si       0.54731913       3.82378519       2.76594458
Si       3.02689707       3.82378519       2.25156463
Si       1.93225881       8.90132774       2.76594458
Si       0.54731913       1.25375736       2.76594458
Si       4.41183675       6.33129991       2.25156463
16
Lattice="4.991280045026116 1.0684375056145827e-27 -1.5700296390491799e-15 -1.0029227586780829e-27 9.898558765246301 1.3390838295938654e-12 1.0365094977628004e-15 -6.818333591403872e-13 5.041429055825065" Properties=species:S:1:pos:R:3 unique_starting_index=98 config_type=initial n_minim_iter=5 stress="-0.0030941192190051003 2.0395667390588274e-17 -7.518921808051596e-17 2.0395667390588274e-17 0.003525139168564034 -3.9980661848185435e-16 -7.518921808051596e-17 -3.9980661848185435e-16 0.00621750667699696" pbc="T T T"
Si       1.60031986       6.18207128       0.23786074
Si       3.39096019       1.23279189       4.80356831
Si       4.09595988       8.66576687       4.80356831
Si       0.89532016       3.71648749       0.23786074
Si       3.39096019       3.71648749       4.80356831
Si       1.60031986       8.66576687       0.23786074
Si       0.89532016       1.23279189       0.23786074
Si       4.09595988       6.18207128       4.80356831
Si       1.94220791       6.17456478       2.78791110
Si       3.04907213       1.22528539       2.25351796
Si       4.43784794       8.67327337       2.25351796
Si       0.55343211       3.72399399       2.78791110
Si       3.04907213       3.72399399       2.25351796
Si       1.94220791       8.67327337       2.78791110
Si       0.55343211       1.22528539       2.78791110
Si       4.43784794       6.17456478       2.25351796
16
Lattice="5.0382390175912315 1.086457292156275e-27 -1.6496680866682237e-15 -9.916153202777204e-28 9.864218484220352 1.3343991948896763e-12 9.394263081913374e-16 -6.744400203963642e-13 4.986612776231837" Properties=species:S:1:pos:R:3 unique_starting_index=98 config_type=initial n_minim_iter=6 stress="0.0006515529390146999 -1.626394276886759e-17 -5.667005838465763e-17 -1.626394276886759e-17 8.688306687290611e-05 6.934942396741068e-16 -5.667005838465763e-17 6.934942396741068e-16 -0.004652651134794616" pbc="T T T"
Si       1.61340611       6.15964898       0.22883027
Si       3.42483291       1.22753973       4.75778251
Si       4.13252562       8.63667875       4.75778251
Si       0.90571340       3.70456951       0.22883027
Si       3.42483291       3.70456951       4.75778251
Si       1.61340611       8.63667875       0.22883027
Si       0.90571340       1.22753973       0.22883027
Si       4.13252562       6.15964898       4.75778251
Si       1.95922495       6.15098332       2.75600350
Si       3.07901406       1.21887408       2.23060928
Si       4.47834446       8.64534441       2.23060928
Si       0.55989456       3.71323517       2.75600350
Si       3.07901406       3.71323517       2.23060928
Si       1.95922495       8.64534441       2.75600350
Si       0.55989456       1.21887408       2.75600350
Si       4.47834446       6.15098332       2.23060928
16
Lattice="5.067124519131523 1.1083716241325272e-27 -1.728761571607093e-15 -9.619424084016823e-28 9.79138981933186 1.3245505790415501e-12 8.56452743534225e-16 -6.745750071372414e-13 4.987619080101199" Properties=species:S:1:pos:R:3 unique_starting_index=98 config_type=initial n_minim_iter=7 stress="0.0030617634442164196 4.626738942611524e-17 -9.389475969293751e-17 4.626738942611524e-17 -0.007076970459075864 -5.351875118708094e-16 -9.389475969293751e-17 -5.351875118708094e-16 -0.002706511227291114" pbc="T T T"
Si       1.61968138       6.11006604       0.24078455
Si       3.44744314       1.21437113       4.74683453
Si       4.15324364       8.57701869       4.74683453
Si       0.91388088       3.68132378       0.24078455
Si       3.44744314       3.68132378       4.74683453
Si       1.61968138       8.57701869       0.24078455
Si       0.91388088       1.21437113       0.24078455
Si       4.15324364       6.11006604       4.74683453
Si       1.97110702       6.09699702       2.74120949
Si       3.09601750       1.20130211       2.24640959
Si       4.50466927       8.59008770       2.24640959
Si       0.56245524       3.69439279       2.74120949
Si       3.09601750       3.69439279       2.24640959
Si       1.97110702       8.59008770       2.74120949
Si       0.56245524       1.20130211       2.74120949
Si       4.50466927       6.09699702       2.24640959
16
Lattice="5.093770509921828 1.1233113308869391e-27 -1.844145919219885e-15 -9.741334933036563e-28 9.822483526150162 1.3285614378176502e-12 7.224101759017272e-16 -6.716525464688792e-13 4.9652015621739105" Properties=species:S:1:pos:R:3 unique_starting_index=98 config_type=initial n_minim_iter=8 stress="0.0030031691502415835 1.1297552380964605e-16 -5.151248155904314e-17 1.1297552380964605e-16 -7.230128652079687e-05 5.712948578380853e-16 -5.151248155904314e-17 5.712948578380853e-16 -0.003635417507385186" pbc="T T T"
Si       1.60683828       6.11677784       0.21046099
Si       3.48693223       1.20553608       4.75474057
Si       4.15372354       8.61694745       4.75474057
Si       0.94004697       3.70570568       0.21046099
Si       3.48693223       3.70570568       4.75474057
Si       1.60683828       8.61694745       0.21046099
Si       0.94004697       1.20553608       0.21046099
Si       4.15372354       6.11677784       4.75474057
Si       1.97531446       6.08605683       2.69114225
Si       3.11845605       1.17481506       2.27405931
Si       4.52219972       8.64766846       2.27405931
Si       0.57157079       3.73642670       2.69114225
Si       3.11845605       3.73642670       2.27405931
Si       1.97531446       8.64766846       2.69114225
Si       0.57157079       1.17481506       2.69114225
Si       4.52219972       6.08605683       2.27405931
16
Lattice="5.101203795272251 1.1399724764372553e-27 -1.9472779553914753e-15 -9.666671315637062e-28 9.80322496679581 1.3261757495209464e-12 6.104492278342352e-16 -6.727109374443862e-13 4.973934881837386" Properties=species:S:1:pos:R:3 unique_starting_index=98 config_type=initial n_minim_iter=9 stress="-0.001214239755731347 8.749712852550424e-17 6.6951413505885594e-18 8.749712852550424e-17 -0.003926723361774266 -6.518905702745463e-16 6.6951413505885594e-18 -6.518905702745463e-16 0.0009744093238362864" pbc="T T T"
Si       1.58088816       6.09696343       0.14331499
Si       3.52031564       1.19535094       4.83061990
Si       4.13149006       8.60787402       4.83061990
Si       0.96971374       3.70626154       0.14331499
Si       3.52031564       3.70626154       4.83061990
Si       1.58088816       8.60787402       0.14331499
Si       0.96971374       1.19535094       0.14331499
Si       4.13149006       6.09696343       4.83061990
Si       1.96772758       6.04687589       2.66270436
Si       3.13347622       1.14526341       2.31123052
Si       4.51832948       8.65796156       2.31123052
Si       0.58287432       3.75634907       2.66270436
Si       3.13347622       3.75634907       2.31123052
Si       1.96772758       8.65796156       2.66270436
Si       0.58287432       1.14526341       2.66270436
Si       4.51832948       6.04687589       2.31123052
16
Lattice="5.1037186231134655 1.1309472710620226e-27 -2.0283421395516976e-15 -1.034539978424511e-27 9.9574018772468 1.3472313935271567e-12 5.080342025724858e-16 -6.691262852916444e-13 4.9482809708019735" Properties=species:S:1:pos:R:3 unique_starting_index=98 config_type=initial n_minim_iter=10 stress="0.002948013390095267 -9.367914445702897e-18 -4.83985918638082e-17 -9.367914445702897e-18 0.014560121110193114 2.2035017965633974e-15 -4.83985918638082e-17 2.2035017965633974e-15 -0.0013269576589330463" pbc="T T T"
Si       1.57082875       6.20690188       0.11453561
Si       3.53288987       1.22820094       4.83374536
Si       4.12268806       8.72920094       4.83374536
Si       0.98103056       3.75050000       0.11453561
Si       3.53288987       3.75050000       4.83374536
Si       1.57082875       8.72920094       0.11453561
Si       0.98103056       1.22820094       0.11453561
Si       4.12268806       6.20690188       4.83374536
Si       1.96575649       6.15051093       2.63192479
Si       3.13796213       1.17180999       2.31635618
Si       4.51761580       8.78559188       2.31635618
Si       0.58610282       3.80689094       2.63192479
Si       3.13796213       3.80689094       2.31635618
Si       1.96575649       8.78559188       2.63192479
Si       0.58610282       1.17180999       2.63192479
Si       4.51761580       6.15051093       2.31635618
16
Lattice="5.12933196208997 1.142708887080054e-27 -2.1042371917914303e-15 -1.0301155784913767e-27 9.919161481984526 1.3418365342114957e-12 4.17147781918981e-16 -6.668960153584137e-13 4.930872721537513" Properties=species:S:1:pos:R:3 unique_starting_index=98 config_type=initial n_minim_iter=11 stress="0.002426080364058583 5.94660576134386e-19 -1.2108948847982986e-16 5.94660576134386e-19 0.009430529693266734 1.1508825692137597e-15 -1.2108948847982986e-16 1.1508825692137597e-15 -8.217589359521679e-05" pbc="T T T"
Si       1.54984280       6.20197551       0.07781014
Si       3.57948916       1.24239477       4.85306258
Si       4.11450878       8.67676672       4.85306258
Si       1.01482318       3.71718598       0.07781014
Si       3.57948916       3.71718598       4.85306258
Si       1.54984280       8.67676672       0.07781014
Si       1.01482318       1.24239477       0.07781014
Si       4.11450878       6.20197551       4.85306258
Si       1.97201034       6.12792968       2.55884804
Si       3.15732162       1.16834894       2.37202468
Si       4.53667632       8.75081254       2.37202468
Si       0.59265564       3.79123180       2.55884804
Si       3.15732162       3.79123180       2.37202468
Si       1.97201034       8.75081254       2.55884804
Si       0.59265564       1.16834894       2.55884804
Si       4.53667632       6.12792968       2.37202468
16
Lattice="5.14100556231498 1.1517935674693792e-27 -2.1446346735291928e-15 -1.0164007862828451e-27 9.869540633381297 1.3354708720317454e-12 3.682085229626132e-16 -6.654466068518433e-13 4.921584864421982" Properties=species:S:1:pos:R:3 unique_starting_index=98 config_type=initial n_minim_iter=12 stress="0.001831682569113669 3.1968840058299524e-17 -1.3112642871370313e-16 3.1968840058299524e-17 0.0023172211506353206 3.237244492735367e-16 -1.3112642871370313e-16 3.237244492735367e-16 -0.0009553772835085066" pbc="T T T"
Si       1.53600452       6.18248283       0.05074908
Si       3.60500104       1.24771251       4.87083578
Si       4.10650731       8.62182812       4.87083578
Si       1.03449826       3.68705781       0.05074908
Si       3.60500104       3.68705781       4.87083578
Si       1.53600452       8.62182812       0.05074908
Si       1.03449826       1.24771251       0.05074908
Si       4.10650731       6.18248283       4.87083578
Si       1.97512489       6.10272296       2.51849846
Si       3.16588067       1.16795265       2.40308641
Si       4.54562767       8.70158799       2.40308641
Si       0.59537789       3.76681767       2.51849846
Si       3.16588067       3.76681767       2.40308641
Si       1.97512489       8.70158799       2.51849846
Si       0.59537789       1.16795265       2.51849846
Si       4.54562767       6.10272296       2.40308641
16
Lattice="5.1343309089998055 1.156710670118564e-27 -2.1830025409490593e-15 -1.0117283233429978e-27 9.846194974734418 1.3319498361510058e-12 3.261310533892996e-16 -6.661807659302108e-13 4.925506567060888" Properties=species:S:1:pos:R:3 unique_starting_index=98 config_type=initial n_minim_iter=13 stress="-5.8989510410964274e-05 1.414239959853219e-17 -9.675352001202712e-17 1.414239959853219e-17 -0.001534236246472532 -3.83579497288465e-16 -9.675352001202712e-17 -3.83579497288465e-16 0.0007219428100521303" pbc="T T T"
Si       1.52493231       6.17133886       0.03610908
Si       3.60939859       1.24824137       4.88939749
Si       4.09209777       8.59795360       4.88939749
Si       1.04223314       3.67485611       0.03610908
Si       3.60939859       3.67485611       4.88939749
Si       1.52493231       8.59795360       0.03610908
Si       1.04223314       1.24824137       0.03610908
Si       4.09209777       6.17133886       4.88939749
Si       1.97366498       6.09474473       2.50181248
Si       3.16066592       1.17164724       2.42369409
Si       4.54083044       8.67454773       2.42369409
Si       0.59350047       3.75145025       2.50181248
Si       3.16066592       3.75145025       2.42369409
Si       1.97366498       8.67454773       2.50181248
Si       0.59350047       1.17164724       2.50181248
Si       4.54083044       6.09474473       2.42369409
16
Lattice="5.1297665877689544 1.165760583282257e-27 -2.231947374212581e-15 -9.996972009580218e-28 9.809399841381005 1.326644349842013e-12 2.644174802329916e-16 -6.647133096591032e-13 4.913299783685389" Properties=species:S:1:pos:R:3 unique_starting_index=98 config_type=initial n_minim_iter=14 stress="-0.0027458536597522653 1.1640277580242145e-16 7.591790441122364e-18 1.1640277580242145e-16 -0.00799581167211049 -1.0220325093622794e-15 7.591790441122364e-18 -1.0220325093622794e-15 -0.0013423374283728837" pbc="T T T"
Si       1.49730591       6.14433227      -0.00757754
Si       3.63246068       1.23963235       4.92087733
Si       4.06218920       8.56976749       4.92087733
Si       1.06757739       3.66506757      -0.00757754
Si       3.63246068       3.66506757       4.92087733
Si       1.49730591       8.56976749      -0.00757754
Si       1.06757739       1.23963235      -0.00757754
Si       4.06218920       6.14433227       4.92087733
Si       1.97948638       6.09209662       2.44234748
Si       3.15028021       1.18739670       2.47095231
Si       4.54436967       8.62200314       2.47095231
Si       0.58539691       3.71730322       2.44234748
Si       3.15028021       3.71730322       2.47095231
Si       1.97948638       8.62200314       2.44234748
Si       0.58539691       1.18739670       2.44234748
Si       4.54436967       6.09209662       2.47095231
16
Lattice="5.113663769070568 1.1632566047327159e-27 -2.2815943707370494e-15 -1.022297709904669e-27 9.85298880804765 1.3329836514229566e-12 2.1743123862648865e-16 -6.671562125215156e-13 4.933193206174262" Properties=species:S:1:pos:R:3 unique_starting_index=98 config_type=initial n_minim_iter=15 stress="-0.004107678016883953 -2.6025216788778362e-17 -1.0606658583737795e-17 -2.6025216788778362e-17 -0.0009597483997373929 -1.0046826788427563e-15 -1.0606658583737795e-17 -1.0046826788427563e-15 0.0055971830499660855" pbc="T T T"
Si       1.49925130       6.15057424       0.00253602
Si       3.61441246       1.22407983       4.93065719
Si       4.05608319       8.62890897       4.93065719
Si       1.05758058       3.70241457       0.00253602
Si       3.61441246       3.70241457       4.93065719
Si       1.49925130       8.62890897       0.00253602
Si       1.05758058       1.22407983       0.00253602
Si       4.05608319       6.15057424       4.93065719
Si       1.98505612       6.12979566       2.46359848
Si       3.12860765       1.20330125       2.46959473
Si       4.54188800       8.64968756       2.46959473
Si       0.57177577       3.72319315       2.46359848
Si       3.12860765       3.72319315       2.46959473
Si       1.98505612       8.64968756       2.46359848
Si       0.57177577       1.20330125       2.46359848
Si       4.54188800       6.12979566       2.46959473
16
Lattice="5.13988131632939 1.1640294083420845e-27 -2.295108595134298e-15 -1.0312882603076245e-27 9.861690646387377 1.3342950164915534e-12 1.9070564376813526e-16 -6.637410200943361e-13 4.908505544022141" Properties=species:S:1:pos:R:3 unique_starting_index=98 config_type=initial n_minim_iter=16 stress="-7.958183272443687e-05 -1.1518251235311352e-17 -1.0896147139384805e-16 -1.1518251235311352e-17 0.0006788063731843707 -7.473615919570362e-17 -1.0896147139384805e-16 -7.473615919570362e-17 0.00013704236486658584" pbc="T T T"
Si       1.50693693       6.15187769       0.00086610
Si       3.63294439       1.22103237       4.90763945
Si       4.07687759       8.64065828       4.90763945
Si       1.06300373       3.70981296       0.00086610
Si       3.63294439       3.70981296       4.90763945
Si       1.50693693       8.64065828       0.00086610
Si       1.06300373       1.22103237       0.00086610
Si       4.07687759       6.15187769       4.90763945
Si       1.99999550       6.13897939       2.45068368
Si       3.13988582       1.20813406       2.45782187
Si       4.56993616       8.65355658       2.45782187
Si       0.56994516       3.72271126       2.45068368
Si       3.13988582       3.72271126       2.45782187
Si       1.99999550       8.65355658       2.45068368
Si       0.56994516       1.20813406       2.45068368
Si       4.56993616       6.13897939       2.45782187
16
Lattice="5.153233643002207 1.1645451837893578e-27 -2.3227391443832537e-15 -1.0398573983669245e-27 9.858893746791567 1.3344136190479543e-12 1.523637801727966e-16 -6.614915718553126e-13 4.893937604419916" Properties=species:S:1:pos:R:3 unique_starting_index=98 config_type=initial n_minim_iter=17 stress="0.0013088997875135243 3.3217121100035614e-17 -1.852128345478041e-16 3.3217121100035614e-17 -0.0009156097318085432 3.1568125810812045e-16 -1.852128345478041e-16 3.1568125810812045e-16 -0.002731542519244103" pbc="T T T"
Si       1.51848382       6.14711908       0.00885658
Si       3.63474982       1.21767221       4.88508103
Si       4.09510064       8.64122154       4.88508103
Si       1.05813300       3.71177467       0.00885658
Si       3.63474982       3.71177467       4.88508103
Si       1.51848382       8.64122154       0.00885658
Si       1.05813300       1.21767221       0.00885658
Si       4.09510064       6.14711908       4.88508103
Si       2.02031771       6.15204735       2.45529136
Si       3.13291593       1.22260048       2.43864624
Si       4.59693453       8.63629327       2.43864624
Si       0.55629911       3.70684639       2.45529136
Si       3.13291593       3.70684639       2.43864624
Si       2.02031771       8.63629327       2.45529136
Si       0.55629911       1.22260048       2.45529136
Si       4.59693453       6.15204735       2.43864624
16
Lattice="5.177334700281371 1.1473008188547791e-27 -2.3557039306895316e-15 -1.1069527752673715e-27 9.968981574414139 1.3502849262831558e-12 1.100102959154043e-16 -6.594692274407532e-13 4.8831128582590875" Properties=species:S:1:pos:R:3 unique_starting_index=98 config_type=initial n_minim_iter=18 stress="0.00616144810720355 4.6095311890971283e-17 -5.227622723785679e-17 4.6095311890971283e-17 0.015236331326799317 1.5015236393673822e-15 -5.227622723785679e-17 1.5015236393673822e-15 0.004592377679361746" pbc="T T T"
Si       1.52918296       6.22655839      -0.00563311
Si       3.64815174       1.24206760       4.88874597
Si       4.11785031       8.72691398       4.88874597
Si       1.05948439       3.74242319      -0.00563311
Si       3.64815174       3.74242319       4.88874597
Si       1.52918296       8.72691398      -0.00563311
Si       1.05948439       1.24206760      -0.00563311
Si       4.11785031       6.22655839       4.88874597
Si       2.10577077       6.22534072       2.45483054
Si       3.07156393       1.24084993       2.42828232
Si       4.69443812       8.72813165       2.42828232
Si       0.48289658       3.74364086       2.45483054
Si       3.07156393       3.74364086       2.42828232
Si       2.10577077       8.72813165       2.45483054
Si       0.48289658       1.24084993       2.45483054
Si       4.69443812       6.22534072       2.42828232
16
Lattice="5.223882875505686 1.129980142056202e-27 -2.3732210944562896e-15 -1.1660674113065569e-27 10.023412036502302 1.357399501009659e-12 6.845992536400104e-17 -6.53950421357012e-13 4.84138236339745" Properties=species:S:1:pos:R:3 unique_starting_index=98 config_type=initial n_minim_iter=19 stress="0.009976181848555362 -4.9448123443507897e-17 -5.979486612916855e-17 -4.9448123443507897e-17 0.022514548235098242 1.4480683816693091e-15 -5.979486612916855e-17 1.4480683816693091e-15 0.013194788234601842" pbc="T T T"
Si       1.54831483       6.26624927      -0.02268282
Si       3.67556805       1.25454325       4.86406519
Si       4.16025626       8.76886879       4.86406519
Si       1.06362661       3.75716277      -0.02268282
Si       3.67556805       3.75716277       4.86406519
Si       1.54831483       8.76886879      -0.02268282
Si       1.06362661       1.25454325      -0.02268282
Si       4.16025626       6.26624927       4.86406519
Si       2.29596892       6.27607670       2.42819350
Si       2.92791396       1.26437068       2.41318886
Si       4.90791035       8.75904136       2.41318886
Si       0.31597252       3.74733534       2.42819350
Si       2.92791396       3.74733534       2.41318886
Si       2.29596892       8.75904136       2.42819350
Si       0.31597252       1.26437068       2.42819350
Si       4.90791035       6.27607670       2.41318886
16
Lattice="5.252436645199574 1.1186169289030174e-27 -2.3729037855243713e-15 -1.1911607041345962e-27 9.999725866469447 1.354755496154394e-12 4.4779455561682914e-17 -6.476572234848863e-13 4.797221246371856" Properties=species:S:1:pos:R:3 unique_starting_index=98 config_type=initial n_minim_iter=20 stress="0.01134628983903913 -1.836865746467261e-17 -4.162552587384206e-17 -1.836865746467261e-17 0.020771188293136313 1.0418326603655869e-15 -4.162552587384206e-17 1.0418326603655869e-15 0.014699348906648107" pbc="T T T"
Si       1.56307142       6.25469564      -0.02413489
Si       3.68936523       1.25483270       4.82135614
Si       4.18928974       8.74489316       4.82135614
Si       1.06314690       3.74503023      -0.02413489
Si       3.68936523       3.74503023       4.82135614
Si       1.56307142       8.74489316      -0.02413489
Si       1.06314690       1.25483270      -0.02413489
Si       4.18928974       6.25469564       4.82135614
Si       2.43836576       6.25710734       2.40429046
Si       2.81407088       1.25724440       2.39293079
Si       5.06458409       8.74248146       2.39293079
Si       0.18785256       3.74261853       2.40429046
Si       2.81407088       3.74261853       2.39293079
Si       2.43836576       8.74248146       2.40429046
Si       0.18785256       1.25724440       2.40429046
Si       5.06458409       6.25710734       2.39293079
16
Lattice="5.227773618332405 1.129096177561956e-27 -2.368161583260789e-15 -1.141909904188948e-27 9.867049766625366 1.3365323318772096e-12 3.6748675842061584e-17 -6.446332794561231e-13 4.773653182473388" Properties=species:S:1:pos:R:3 unique_starting_index=98 config_type=initial n_minim_iter=21 stress="0.00018456619398762484 -6.219244426040725e-17 -3.08848749023137e-17 -6.219244426040725e-17 -0.0023326655680944975 -1.0697339939648323e-15 -3.08848749023137e-17 -1.0697339939648323e-15 0.006792757942763701" pbc="T T T"
Si       1.54570719       6.16919308      -0.02493087
Si       3.68206643       1.23566820       4.79858405
Si       4.15959400       8.63138157       4.79858405
Si       1.06817962       3.69785669      -0.02493087
Si       3.68206643       3.69785669       4.79858405
Si       1.54570719       8.63138157      -0.02493087
Si       1.06817962       1.23566820      -0.02493087
Si       4.15959400       6.16919308       4.79858405
Si       2.44226329       6.14874154       2.37043839
Si       2.78551033       1.21521666       2.40321479
Si       5.05615010       8.65183311       2.40321479
Si       0.17162352       3.71830823       2.37043839
Si       2.78551033       3.71830823       2.40321479
Si       2.44226329       8.65183311       2.37043839
Si       0.17162352       1.21521666       2.37043839
Si       5.05615010       6.14874154       2.40321479
