18
Lattice="6.971374965172087 1.3312558417839939e-06 3.102595599143637e-13 3.4856862246572153 6.587384800323827 -0.23043515294979147 3.485687078095155 2.1181928561106624 6.19172252764361" Properties=species:S:1:pos:R:3 unique_starting_index=182 config_type=initial n_minim_iter=1 energy=-2929.3800887851785 free_energy=-2929.3800887851785 pbc="T T T"
Si       3.51550287       0.98208346       1.31073353
Si       7.00118989       3.37070669       1.66991016
Si      10.42724539       7.72349551       4.65055385
Si       6.94155837       5.33487228       4.29137722
Si       5.22408051       6.33940501       2.26500677
Si       8.70976792       6.71896212       6.67692430
Si       8.71866775       2.36617396       3.69628061
Si       5.23298034       1.98661685      -0.71563692
Si       3.46384513       3.36952591       1.70596583
Si      -0.02184190       0.98326289       1.27467787
Si      10.47890313       5.33605306       4.25532155
Si      13.96459016       7.72231608       4.68660951
Si       5.25933327       3.66863087       3.40707216
Si       1.77364636       0.68415862      -0.42642846
Si       8.68341499       5.03694810       2.55421522
Si      12.16910190       8.02142035       6.38771584
Si       5.22853102       1.05909709       3.09586127
Si       1.74284311       3.29369239      -0.11521757
18
Lattice="6.913564972552485 1.3202164282566922e-06 3.076399515897748e-13 3.4567812238202213 6.611092304248446 -0.22571168331682775 3.4567820794906026 2.1302097669616127 6.1904057561184676" Properties=species:S:1:pos:R:3 unique_starting_index=182 config_type=initial n_minim_iter=2 stress="-0.002640810508058847 -1.2377309312358481e-10 -4.9274589891025134e-11 -1.2377309312358481e-10 -0.0019926508381164685 0.00025803817717609637 -4.9274589891025134e-11 0.00025803817717609637 -0.0023515777312212586" pbc="T T T"
Si       3.48667536       0.98638402       1.31023332
Si       6.94345739       3.38426833       1.67211372
Si      10.34045291       7.75491935       4.65446076
Si       6.88367088       5.35703505       4.29258036
Si       5.18056066       6.36454564       2.26815424
Si       8.63734308       6.74740811       6.67888688
Si       8.64656761       2.37675774       3.69653984
Si       5.18978519       1.99389526      -0.71419280
Si       3.43412138       3.38351961       1.70798514
Si      -0.02266065       0.98713140       1.27436190
Si      10.39300689       5.35778377       4.25670894
Si      13.84978892       7.75417198       4.69033218
Si       5.21482750       3.68348716       3.41002734
Si       1.75804558       0.68716453      -0.42768030
Si       8.61230077       5.05781622       2.55466674
Si      12.06908269       8.05413884       6.39237437
Si       5.18517352       1.06510554       3.09520288
Si       1.72839061       3.30554614      -0.11285584
18
Lattice="6.904187423098461 1.3184256884572692e-06 3.0724572958628926e-13 3.4520924421121473 6.64764996653879 -0.22609165556588107 3.4520933024457126 2.1423477697528903 6.2115579931881255" Properties=species:S:1:pos:R:3 unique_starting_index=182 config_type=initial n_minim_iter=3 stress="-0.0002391859191285388 -6.93077135228049e-10 -1.8144751777467895e-10 -6.93077135228049e-10 0.003390242350952666 0.0009501872513501889 -1.8144751777467895e-10 0.0009501872513501889 0.0016614228613330544" pbc="T T T"
Si       3.48241096       0.99192866       1.31377107
Si       6.93450422       3.40307153       1.67896210
Si      10.32596220       7.79807038       4.67169527
Si       6.87386895       5.38692751       4.30650424
Si       5.17322257       6.40049230       2.27577692
Si       8.62531620       6.78450495       6.70242259
Si       8.63515060       2.38950674       3.70968942
Si       5.18305696       2.00549409      -0.71695625
Si       3.42798090       3.40293586       1.71467086
Si      -0.02411235       0.99206298       1.27806232
Si      10.38039226       5.38706318       4.27079548
Si      13.83248551       7.79793606       4.70740403
Si       5.20643875       3.70264124       3.42484642
Si       1.75434561       0.69235829      -0.43211325
Si       8.60193442       5.08735780       2.56061992
Si      12.05402755       8.09764075       6.41757959
Si       5.17814036       1.07117454       3.10577900
Si       1.72604622       3.32382498      -0.11304582
18
Lattice="6.847721451628901 1.3076429297952188e-06 3.047849284095667e-13 3.4238594544053953 6.65797659303747 -0.32223562365651326 3.423860333219208 2.0558990409248024 6.22870829694223" Properties=species:S:1:pos:R:3 unique_starting_index=182 config_type=initial n_minim_iter=4 stress="-0.0018171378023620942 -6.961789775827787e-11 2.1998911553969662e-10 -6.961789775827787e-11 -0.0014525737827670497 -0.001152011182511476 2.1998911553969662e-10 -0.001152011182511476 -0.00024459624313623594" pbc="T T T"
Si       3.46060535       0.97733659       1.29483193
Si       6.88446562       3.37960254       1.65840441
Si      10.23483588       7.73654034       4.61164075
Si       6.81097562       5.33427439       4.24806827
Si       5.12629807       6.38187585       2.19263943
Si       8.55015874       6.68893824       6.66706958
Si       8.56914316       2.33200108       3.71383325
Si       5.14528249       2.02493869      -0.76059690
Si       3.37832208       3.38783696       1.68958776
Si      -0.04553818       0.96910082       1.26364859
Si      10.31711915       5.32603996       4.21688492
Si      13.74097942       7.74477611       4.64282409
Si       5.14491062       3.63421723       3.44514003
Si       1.72105045       0.72272123      -0.49190368
Si       8.55053061       5.07965970       2.46133265
Si      11.97439078       7.99115570       6.39837636
Si       5.13579089       1.02795017       3.11435415
Si       1.71192972       3.32898829      -0.16111781
18
Lattice="6.860789920106994 1.3101384883759937e-06 3.0532448009594523e-13 3.430393686338073 6.6700543195720305 -0.30237215992160626 3.4303945632052946 2.078170478040899 6.220630119867212" Properties=species:S:1:pos:R:3 unique_starting_index=182 config_type=initial n_minim_iter=5 stress="0.00030268736339482253 1.2064103102375504e-11 -6.8962730797834e-11 1.2064103102375504e-11 0.00023950740178728998 0.00036114026650208616 -6.8962730797834e-11 0.00036114026650208616 -0.0005441141353593722" pbc="T T T"
Si       3.46650148       0.98357639       1.29156274
Si       6.89689598       3.39053732       1.66756625
Si      10.25507668       7.76464970       4.62669523
Si       6.82468218       5.35768878       4.25069172
Si       5.13569238       6.40415791       2.20266543
Si       8.56608728       6.71817992       6.67472152
Si       8.58588579       2.34406818       3.71559254
Si       5.15549089       2.03004617      -0.75646355
Si       3.38348570       3.39929199       1.69720865
Si      -0.04690880       0.97482038       1.26192034
Si      10.33809246       5.34893411       4.22104932
Si      13.76848696       7.77340571       4.65633763
Si       5.15300861       3.64645744       3.45207770
Si       1.72261421       0.72765560      -0.49294872
Si       8.56856955       5.10176865       2.46618026
Si      11.99896395       8.02057049       6.41120668
Si       5.14559224       1.03908589       3.11031506
Si       1.71519684       3.33502715      -0.15118608
18
Lattice="6.863783953627594 1.31071023000346e-06 3.055759753099988e-13 3.4318906997183998 6.687754192905865 -0.29271137217061366 3.4318915768848943 2.094303150711635 6.259528091762187" Properties=species:S:1:pos:R:3 unique_starting_index=182 config_type=initial n_minim_iter=6 stress="0.005928456471132089 4.3256385107909127e-10 -7.183057694698594e-10 4.3256385107909127e-10 0.003663249271077395 0.0037615501769990892 -7.183057694698594e-10 0.0037615501769990892 0.0025717869565575324" pbc="T T T"
Si       3.45946713       0.99279543       1.27680880
Si       6.89135865       3.39823455       1.70659957
Si      10.26809910       7.78926321       4.69000793
Si       6.83620758       5.38382409       4.26021716
Si       5.13694367       6.44995087       2.19992001
Si       8.56883559       6.72313578       6.75030507
Si       8.59062255       2.33210777       3.76689671
Si       5.15873063       2.05892286      -0.78348835
Si       3.38351559       3.40543052       1.72500198
Si      -0.04837593       0.98559812       1.25840639
Si      10.34405064       5.37662812       4.24181475
Si      13.77594215       7.79646052       4.70841034
Si       5.14999647       3.63239058       3.48562002
Si       1.71810504       0.75863873      -0.50221166
Si       8.57756975       5.14966806       2.48119670
Si      12.00946118       8.02341991       6.46902838
Si       5.14783776       1.04715222       3.12976405
Si       1.71594535       3.34387709      -0.14635568
18
Lattice="6.80290435938671 1.2990846443477015e-06 3.0285972380488797e-13 3.40145089307852 6.737604570179342 -0.42251227193363844 3.4014518001505567 1.987547429039171 6.2372118528940135" Properties=species:S:1:pos:R:3 unique_starting_index=182 config_type=initial n_minim_iter=7 stress="0.001694896391899489 -2.9102803256129036e-10 5.995817164944394e-11 -2.9102803256129036e-10 0.0032189169077066542 -0.0003139762607803017 5.995817164944394e-11 -0.0003139762607803017 -0.0020946433168929" pbc="T T T"
Si       3.42221081       0.97861137       1.23548122
Si       6.82366253       3.38396592       1.67186857
Si      10.18359624       7.74654191       4.57921836
Si       6.78214452       5.34118736       4.14283101
Si       5.09053192       6.47673174       2.05218380
Si       8.49198407       6.61099689       6.66986558
Si       8.51527513       2.24842154       3.76251579
Si       5.11382298       2.11415639      -0.85516599
Si       3.35113399       3.38821656       1.67842401
Si      -0.05031773       0.97435940       1.22892578
Si      10.25467305       5.33693672       4.13627558
Si      13.65612477       7.75079388       4.58577380
Si       5.09963060       3.56002062       3.43094794
Si       1.69817895       0.80255601      -0.52359814
Si       8.50617644       5.16513266       2.38375165
Si      11.90762810       7.92259727       6.33829773
Si       5.10217808       0.99377436       3.11860593
Si       1.70072544       3.36880228      -0.21125613
18
Lattice="6.78335529388534 1.2953515491011243e-06 3.0207939299152487e-13 3.3916763701918504 6.6859497733438955 -0.41625032109804616 3.391677269095689 1.9786669549921134 6.2899097140597755" Properties=species:S:1:pos:R:3 unique_starting_index=182 config_type=initial n_minim_iter=8 stress="-0.0006968737150989101 1.6957671317637042e-10 4.164527277825582e-11 1.6957671317637042e-10 -0.0015848974573164176 -0.0002180787781817814 4.164527277825582e-11 -0.0002180787781817814 0.0002358518776350294" pbc="T T T"
Si       3.41373439       0.97076617       1.24812780
Si       6.80541158       3.36154349       1.68870191
Si      10.15297454       7.69385184       4.62553160
Si       6.76129735       5.30307452       4.18495749
Si       5.07654931       6.43010350       2.07761779
Si       8.46822694       6.56682222       6.73287131
Si       8.49015961       2.23451451       3.79604161
Si       5.09848199       2.09779579      -0.85921191
Si       3.34295227       3.36378843       1.69612849
Si      -0.04872492       0.96851990       1.24070122
Si      10.22375666       5.30082958       4.17753091
Si      13.61543385       7.69609811       4.63295818
Si       5.08739295       3.54036930       3.45779127
Si       1.69571583       0.79193969      -0.52096157
Si       8.47931598       5.12424871       2.41586813
Si      11.87099310       7.87267831       6.39462097
Si       5.08751628       0.98933412       3.14495486
Si       1.69583818       3.34297488      -0.20812516
18
Lattice="6.761972330948159 1.2912682520657148e-06 3.011593677477638e-13 3.3809848815033186 6.723758367857597 -0.4451410228281203 3.380985790426921 1.964005145366591 6.299519255367233" Properties=species:S:1:pos:R:3 unique_starting_index=182 config_type=initial n_minim_iter=9 stress="-0.00019956284014908675 -5.260818120982952e-10 -1.4822991357973507e-11 -5.260818120982952e-10 0.002555360619916443 7.762801022575471e-05 -1.4822991357973507e-11 7.762801022575471e-05 0.00013196773947371377" pbc="T T T"
Si       3.41240682       0.96481659       1.23802716
Si       6.79339253       3.37906645       1.68916196
Si      10.11153617       7.72294820       4.61635108
Si       6.73055047       5.30869834       4.16521628
Si       5.06010175       6.47293024       2.03976085
Si       8.44108790       6.55871565       6.74180650
Si       8.46384125       2.21483455       3.81461738
Si       5.08285510       2.12904914      -0.88742826
Si       3.32402513       3.37751208       1.69407604
Si      -0.05696057       0.96636964       1.23311308
Si      10.19991787       5.31025271       4.16030220
Si      13.58090357       7.72139515       4.62126515
Si       5.06825465       3.53801619       3.46627233
Si       1.68726901       0.80586620      -0.53908321
Si       8.45568835       5.14974860       2.38810591
Si      11.83667399       7.88189859       6.39346145
Si       5.07147906       0.98200321       3.14975963
Si       1.69049244       3.36187918      -0.22257051
18
Lattice="6.788658376030884 1.2963642270090558e-06 3.0255512641805433e-13 3.394327909784624 6.693700066582822 -0.44193064597586157 3.3943288142353967 1.9573696731103596 6.29987111264954" Properties=species:S:1:pos:R:3 unique_starting_index=182 config_type=initial n_minim_iter=10 stress="-0.0005624850153012387 -3.148012400220877e-10 -5.020655557644788e-13 -3.148012400220877e-10 0.0010860275764694915 2.634795608134793e-06 -5.020655557644788e-13 2.634795608134793e-06 7.494961447765748e-05" pbc="T T T"
Si       3.43939535       0.94843639       1.23813314
Si       6.83372407       3.37709977       1.69083710
Si      10.13791975       7.70263463       4.61980734
Si       6.74359102       5.27397125       4.16710337
Si       5.08244611       6.46120587       2.02750756
Si       8.47677529       6.51539937       6.75940314
Si       8.49486898       2.18986515       3.83043291
Si       5.10053980       2.13567165      -0.90146267
Si       3.33704028       3.36374728       1.69766049
Si      -0.05728845       0.96178755       1.23130975
Si      10.24027482       5.28732374       4.16027999
Si      13.63460355       7.68928347       4.62663072
Si       5.09601531       3.53365919       3.45580407
Si       1.70168664       0.79187632      -0.52683383
Si       8.48129979       5.11741183       2.40213640
Si      11.87562845       7.85919471       6.38477430
Si       5.09149359       0.97868548       3.14993556
Si       1.69716395       3.34685003      -0.22096532
18
Lattice="6.792701110802698 1.2971362286915765e-06 3.0266452523936537e-13 3.396349279448562 6.681770720620431 -0.446000536132823 3.3963501830436647 1.9499212073246468 6.3059568636181025" Properties=species:S:1:pos:R:3 unique_starting_index=182 config_type=initial n_minim_iter=11 stress="-2.7474502018690586e-05 5.738272605107173e-11 1.4633897781306183e-11 5.738272605107173e-11 -0.0003279742059661105 -7.662820109667466e-05 1.4633897781306183e-11 -7.662820109667466e-05 2.220708335412036e-05" pbc="T T T"
Si       3.44276302       0.94615232       1.23718471
Si       6.83911311       3.36969494       1.69279346
Si      10.14263755       7.68554089       4.62277162
Si       6.74628746       5.26199826       4.16716288
Si       5.08524648       6.45214634       2.02281529
Si       8.48159702       6.49539219       6.76711921
Si       8.50015409       2.17954687       3.83714105
Si       5.10380355       2.13630102      -0.90716288
Si       3.33765532       3.35581626       1.69915553
Si      -0.05869478       0.96002966       1.23082264
Si      10.24774525       5.27587695       4.16080081
Si      13.64409534       7.67166354       4.62913369
Si       5.09793707       3.52230984       3.45967514
Si       1.70158704       0.79353676      -0.52969697
Si       8.48746349       5.10938337       2.40028120
Si      11.88381353       7.83815645       6.38965330
Si       5.09452564       0.97496124       3.15297843
Si       1.69817464       3.34088535      -0.22300026
18
Lattice="6.805475462829046 1.2995756229007832e-06 3.03112639163518e-13 3.402736456616996 6.675720972628539 -0.4387413019602339 3.402737358152077 1.9546591662880402 6.301956238965119" Properties=species:S:1:pos:R:3 unique_starting_index=182 config_type=initial n_minim_iter=12 stress="0.0010863269093348675 3.6280441773748175e-10 -4.759843817493657e-11 3.6280441773748175e-10 -0.0008135718652154168 0.0002492644031078406 -4.759843817493657e-11 0.0002492644031078406 6.958072607537546e-05" pbc="T T T"
Si       3.45340295       0.94912601       1.23957209
Si       6.85614022       3.36606537       1.69203539
Si      10.15754632       7.68125542       4.62364285
Si       6.75480905       5.26431606       4.17117956
Si       5.09424357       6.45431098       2.02581557
Si       8.49698129       6.49125986       6.76900684
Si       8.51670570       2.17607045       3.83739937
Si       5.11396798       2.13912156      -0.90579190
Si       3.34220450       3.35126607       1.70058613
Si      -0.06053277       0.96392396       1.23102134
Si      10.26874477       5.27911535       4.16262881
Si      13.67148205       7.66645746       4.63219360
Si       5.10525713       3.52173666       3.45877035
Si       1.70251992       0.79345404      -0.52716287
Si       8.50569214       5.10864476       2.40444459
Si      11.90842935       7.83692738       6.39037782
Si       5.10410641       0.97733023       3.15097812
Si       1.70136823       3.33786048      -0.21937065
18
Lattice="6.799213388562226 1.2983798151033963e-06 3.0288630354230027e-13 3.3996054182718356 6.682066534216555 -0.4433201627157236 3.3996063214588093 1.9523542848007205 6.300770565791763" Properties=species:S:1:pos:R:3 unique_starting_index=182 config_type=initial n_minim_iter=13 stress="0.00048315616242648203 1.65220173209766e-10 -1.2743435402967283e-11 1.65220173209766e-10 -0.0003820554466239203 6.673962096900789e-05 -1.2743435402967283e-11 6.673962096900789e-05 -2.3880204389292978e-05" pbc="T T T"
Si       3.45246770       0.94950548       1.24016633
Si       6.85207393       3.36770623       1.68855888
Si      10.14595742       7.68491662       4.61728408
Si       6.74635119       5.26671587       4.16889153
Si       5.08942120       6.46074167       2.02093550
Si       8.48902789       6.49089018       6.76524011
Si       8.50900392       2.17368043       3.83651491
Si       5.10939723       2.14353192      -0.90778970
Si       3.33817965       3.35219023       1.69813112
Si      -0.06142659       0.96502014       1.23059408
Si      10.26024547       5.28223187       4.15931928
Si      13.65985171       7.66940196       4.62685633
Si       5.09996594       3.52328934       3.45555325
Si       1.70035977       0.79392170      -0.52682804
Si       8.49845918       5.11113276       2.40189716
Si      11.89806535       7.84050040       6.38427845
Si       5.09940985       0.97617778       3.15038529
Si       1.69980271       3.34103326      -0.22166008
18
Lattice="6.794147424653732 1.2974124170055679e-06 3.027479338970263e-13 3.3970724353421256 6.6871747248057725 -0.4442672279254577 3.397073339366724 1.9530760971205947 6.299896969767745" Properties=species:S:1:pos:R:3 unique_starting_index=182 config_type=initial n_minim_iter=14 stress="-1.596309083137382e-05 -7.767128326600517e-12 2.2468455280434742e-12 -7.767128326600517e-12 2.4707999510943723e-05 -1.1760787836935673e-05 2.2468455280434742e-12 -1.1760787836935673e-05 6.382481259999717e-06" pbc="T T T"
Si       3.45139050       0.95058161       1.24149818
Si       6.84846375       3.36954511       1.68631670
Si      10.13690269       7.68967050       4.61413157
Si       6.73982944       5.27070700       4.16931305
Si       5.08552019       6.46572668       2.02058545
Si       8.48259390       6.49465019       6.76285917
Si       8.50277300       2.17452543       3.83504430
Si       5.10569929       2.14560192      -0.90722943
Si       3.33495914       3.35362831       1.69685479
Si      -0.06211412       0.96649706       1.23096009
Si      10.25333405       5.28662379       4.15877496
Si      13.65040731       7.67375504       4.62466966
Si       5.09570241       3.52645501       3.45351103
Si       1.69862922       0.79367104      -0.52569615
Si       8.49259078       5.11379710       2.40211872
Si      11.88966397       7.84658107       6.38132590
Si       5.09561038       0.97653869       3.14994849
Si       1.69853621       3.34358735      -0.22213361
18
Lattice="6.791607292485222 1.2969273525222025e-06 3.0258512065867315e-13 3.395802368931878 6.688881837052455 -0.4451832497033824 3.3958032733369494 1.952790783145301 6.300661997049379" Properties=species:S:1:pos:R:3 unique_starting_index=182 config_type=initial n_minim_iter=15 stress="-0.00015907156543683092 -5.1073488130212286e-11 1.5516432635999508e-11 -5.1073488130212286e-11 0.0001083803524951983 -8.125018342824672e-05 1.5516432635999508e-11 -8.125018342824672e-05 5.6010104069934725e-05" pbc="T T T"
Si       3.45097550       0.95046661       1.24080498
Si       6.84677868       3.37037100       1.68693440
Si      10.13223743       7.69120729       4.61467377
Si       6.73643425       5.27130290       4.16854435
Si       5.08357890       6.46816548       2.01910424
Si       8.47938254       6.49434408       6.76411389
Si       8.49963403       2.17350843       3.83637451
Si       5.10383039       2.14732982      -0.90863513
Si       3.33204315       3.35334415       1.69701846
Si      -0.06376004       0.96749212       1.23072092
Si      10.25116977       5.28832975       4.15846029
Si      13.64697297       7.67418178       4.62475783
Si       5.09334100       3.52576156       3.45277881
Si       1.69753787       0.79507538      -0.52503943
Si       8.48987193       5.11591234       2.40269995
Si      11.88567506       7.84659852       6.38051818
Si       5.09370528       0.97639603       3.15033100
Si       1.69790118       3.34444091      -0.22259162
18
Lattice="6.789649002830653 1.29655339652705e-06 3.0232154584965526e-13 3.3948232235133116 6.691978189169361 -0.4360235216551655 3.3948241266964585 1.9622859859672275 6.297517450280176" Properties=species:S:1:pos:R:3 unique_starting_index=182 config_type=initial n_minim_iter=16 stress="-0.0003697107837879798 -9.528812993000728e-11 2.5474139915657678e-11 -9.528812993000728e-11 0.00012927867787502015 -0.0001333949745616791 2.5474139915657678e-11 -0.0001333949745616791 0.00012843192232639912" pbc="T T T"
Si       3.45321664       0.95077620       1.23828591
Si       6.84804068       3.37635720       1.69246106
Si      10.12607970       7.70348926       4.62320802
Si       6.73125566       5.27790826       4.16903288
Si       5.08191553       6.47444511       2.02486582
Si       8.47674002       6.50695178       6.76737508
Si       8.49738082       2.17982035       3.83662812
Si       5.10255632       2.14731368      -0.90588115
Si       3.32260333       3.35423771       1.70020489
Si      -0.07222071       0.97289434       1.23054208
Si      10.25669301       5.30002775       4.16128904
Si      13.65151706       7.68137112       4.63095186
Si       5.09019843       3.52845273       3.44999968
Si       1.69537445       0.79867999      -0.51925271
Si       8.48909791       5.12581273       2.41149425
Si      11.88392189       7.85558547       6.38074665
Si       5.09223656       0.98114363       3.14875873
Si       1.69741161       3.34598909      -0.21801176
18
Lattice="6.7969094559144905 1.2979398547668838e-06 3.0255027922630714e-13 3.3984534504832298 6.689736881447852 -0.4281822925505806 3.3984543520011345 1.968765046318272 6.292643462528388" Properties=species:S:1:pos:R:3 unique_starting_index=182 config_type=initial n_minim_iter=17 stress="0.0001086083671373225 2.678169978697062e-11 -2.4713358964787853e-12 2.678169978697062e-11 -3.164420677361876e-05 1.2947626498878798e-05 -2.4713358964787853e-12 1.2947626498878798e-05 -2.369209550554892e-05" pbc="T T T"
Si       3.45633405       0.95092511       1.23703000
Si       6.85478831       3.37832716       1.69520059
Si      10.13748321       7.70757810       4.62743118
Si       6.73902894       5.28017605       4.16926058
Si       5.08703550       6.47254684       2.03056223
Si       8.48549022       6.51520668       6.76612953
Si       8.50678176       2.18595637       3.83389895
Si       5.10832704       2.14329653      -0.90166836
Si       3.32528132       3.35560692       1.70220857
Si      -0.07317295       0.97364400       1.23002202
Si      10.26853593       5.30289629       4.16225261
Si      13.66699020       7.68485921       4.63443915
Si       5.09569802       3.53073837       3.44983389
Si       1.69724381       0.79851323      -0.51760330
Si       8.49811924       5.12776484       2.41462729
Si      11.89657344       7.85998998       6.38206447
Si       5.09768190       0.98438316       3.14632173
Si       1.69922672       3.34486843      -0.21409114
18
Lattice="6.7974765530874945 1.2980481476732861e-06 3.025916711024848e-13 3.3987369985085483 6.692675621181624 -0.41044227563816904 3.3987378972655664 1.9861616885210647 6.286274150855128" Properties=species:S:1:pos:R:3 unique_starting_index=182 config_type=initial n_minim_iter=18 stress="-0.0001402487016096015 -1.6072574858454607e-11 -1.1416200991296584e-11 -1.6072574858454607e-11 -5.608621638053981e-05 5.9788029994007316e-05 -1.1416200991296584e-11 5.9788029994007316e-05 -3.111346628605543e-05" pbc="T T T"
Si       3.46152630       0.95227026       1.23607090
Si       6.86026411       3.38714970       1.70184504
Si      10.13342515       7.72656833       4.63976098
Si       6.73468734       5.29168890       4.17398684
Si       5.08452049       6.47800213       2.04382527
Si       8.48325875       6.54025446       6.76992255
Si       8.51043096       2.20083646       3.83200661
Si       5.11169269       2.13858413      -0.89409067
Si       3.31902109       3.35849401       1.70934260
Si      -0.07971673       0.98092460       1.22857335
Si      10.27593035       5.32034459       4.16648928
Si      13.67466817       7.69791399       4.64725854
Si       5.09361688       3.53878696       3.44734025
Si       1.69487912       0.80063232      -0.50942430
Si       8.50133457       5.14005163       2.42849164
Si      11.90007232       7.87820627       6.38525618
Si       5.09810722       0.99308149       3.14313708
Si       1.69936850       3.34633780      -0.20522113
18
Lattice="6.7968276791832665 1.2979242382883715e-06 3.023435372198969e-13 3.3984125611710465 6.6946937906082375 -0.40781630419582987 3.3984134597138453 1.9893016547987745 6.286925123856585" Properties=species:S:1:pos:R:3 unique_starting_index=182 config_type=initial n_minim_iter=19 stress="9.825366684719221e-05 1.4148272945307038e-11 2.7229250151362835e-12 1.4148272945307038e-11 2.4159470735811395e-05 -1.4253614977372485e-05 2.7229250151362835e-12 -1.4253614977372485e-05 7.802543751361583e-05" pbc="T T T"
Si       3.46316598       0.95143236       1.23363556
Si       6.86157935       3.39056667       1.70591885
Si      10.13048772       7.73256437       4.64547326
Si       6.73207434       5.29343005       4.17318997
Si       5.08102396       6.48052145       2.04303619
Si       8.47943779       6.54547235       6.77562705
Si       8.51262973       2.20347528       3.83607264
Si       5.11421590       2.13852438      -0.89651822
Si       3.31832762       3.35853281       1.71442231
Si      -0.08008576       0.98346486       1.22513210
Si      10.27532607       5.32546391       4.16468651
Si      13.67373946       7.70053187       4.65397672
Si       5.09183655       3.53784843       3.44772416
Si       1.69342323       0.80414993      -0.50816974
Si       8.50181714       5.14614830       2.43138467
Si      11.90023046       7.87984680       6.38727856
Si       5.09762057       0.99465147       3.14346257
Si       1.69920628       3.34734689      -0.20390815
18
Lattice="6.793980062366243 1.2973804563806194e-06 3.0205538772306804e-13 3.3969887522564446 6.697344043958449 -0.4038163421677113 3.3969896504450174 1.9938068737359511 6.283875276755463" Properties=species:S:1:pos:R:3 unique_starting_index=182 config_type=initial n_minim_iter=20 stress="-0.0002892975616972444 -3.8208896046923635e-11 -3.4158390667371745e-12 -3.8208896046923635e-11 -8.921388131818124e-05 1.789365563852465e-05 -3.4158390667371745e-12 1.789365563852465e-05 -0.0002969698915079577" pbc="T T T"
Si       3.46296525       0.95203039       1.23409005
Si       6.85995482       3.39354638       1.70593942
Si      10.12499321       7.73912181       4.64596889
Si       6.72800364       5.29760582       4.17411952
Si       5.07835009       6.48366638       2.04561722
Si       8.47534011       6.55306062       6.77447118
Si       8.50960837       2.20748582       3.83444172
Si       5.11261835       2.13809158      -0.89441224
Si       3.31523421       3.35883304       1.71585668
Si      -0.08175537       0.98674238       1.22417279
Si      10.27272425       5.33231916       4.16420226
Si      13.66971383       7.70440982       4.65588615
Si       5.08975168       3.54135719       3.44783441
Si       1.69276217       0.80421890      -0.50780494
Si       8.49820678       5.14979501       2.43222453
Si      11.89519629       7.88693330       6.38786388
Si       5.09548485       0.99690408       3.14193764
Si       1.69849437       3.34867201      -0.20190817
18
Lattice="6.786967989580644 1.2960414289743836e-06 3.018739862862379e-13 3.3934827138179564 6.708056679855251 -0.3823695444026115 3.393483609565045 2.0173048192839014 6.280863384418252" Properties=species:S:1:pos:R:3 unique_starting_index=182 config_type=initial n_minim_iter=21 stress="-0.0004129850193957625 -8.536609276141684e-11 -9.408061479833854e-12 -8.536609276141684e-11 3.404703707647837e-05 4.927335395958575e-05 -9.408061479833854e-12 4.927335395958575e-05 -0.00027550360922195833" pbc="T T T"