12
Lattice="6.399756780945395 -1.7364901956504928e-28 -9.672958306617922e-18 2.119187291991956e-31 7.477017093519358 -1.1295794091948013e-14 3.9540754420233126e-18 7.19307908185619e-15 4.863938050841432" Properties=species:S:1:pos:R:3 unique_starting_index=60 config_type=initial n_minim_iter=1 energy=-1952.4269246409308 free_energy=-1952.4269246409308 pbc="T T T"
Si       4.00741621       2.56128675      -0.00135798
Si       4.00741621       4.90872411       4.86258007
Si       0.80753782       1.17021556       2.43061104
Si       0.80753782       6.29979530       2.43061104
Si       5.24347780       4.93597766       2.43061104
Si       5.24347780       2.53403320       2.43061104
Si       2.04359941       6.27254175       4.86258007
Si       2.04359941       1.19746911      -0.00135798
Si       0.07978261       2.56128675       4.86258007
Si       0.07978261       4.90872411      -0.00135798
Si       3.27966100       1.17021556       2.43061104
Si       3.27966100       6.29979530       2.43061104
12
Lattice="6.4016869734993875 -1.7380207076304081e-28 -9.677921601968525e-18 2.121563752560799e-31 7.483614395147549 -1.1315706189361132e-14 3.955222731860676e-18 7.190202841017328e-15 4.866403838316925" Properties=species:S:1:pos:R:3 unique_starting_index=60 config_type=initial n_minim_iter=2 stress="0.000415732837366821 -4.381109168207672e-17 -6.981742608017945e-17 -4.381109168207672e-17 -2.9905549082527234e-05 4.770761965216301e-17 -6.981742608017945e-17 4.770761965216301e-17 0.0002853620108749474" pbc="T T T"
Si       4.00855156       2.56339836      -0.00135867
Si       4.00855156       4.91320362       4.86504517
Si       0.80770807       1.17139642       2.43184325
Si       0.80770807       6.30520556       2.43184325
Si       5.24505926       4.94026819       2.43184325
Si       5.24505926       2.53633379       2.43184325
Si       2.04421577       6.27814099       4.86504517
Si       2.04421577       1.19846099      -0.00135867
Si       0.07987999       2.56339836       4.86504517
Si       0.07987999       4.91320362      -0.00135867
Si       3.28072347       1.17139642       2.43184325
Si       3.28072347       6.30520556       2.43184325
12
Lattice="6.397486123244465 -1.738961079996902e-28 -9.672599012554832e-18 2.122996424330378e-31 7.48767470281563 -1.1324304226139538e-14 3.954567210987633e-18 7.186405984992411e-15 4.865010938085793" Properties=species:S:1:pos:R:3 unique_starting_index=60 config_type=initial n_minim_iter=3 stress="-0.00024172664903431644 4.192303926820753e-17 -8.623932930831942e-17 4.192303926820753e-17 0.00042995846008229635 -4.1000146688387334e-17 -8.623932930831942e-17 -4.1000146688387334e-17 -0.000307504321726001" pbc="T T T"
Si       4.00570745       2.56440777      -0.00135828
Si       4.00570745       4.91625072       4.86365266
Si       0.80696438       1.17241337       2.43114719
Si       0.80696438       6.30824512       2.43114719
Si       5.24161740       4.94270043       2.43114719
Si       5.24161740       2.53795805       2.43114719
Si       2.04287434       6.28179540       4.86365266
Si       2.04287434       1.19886308      -0.00135828
Si       0.08004123       2.56440777       4.86365266
Si       0.08004123       4.91625072      -0.00135828
Si       3.27878429       1.17241337       2.43114719
Si       3.27878429       6.30824512       2.43114719
12
Lattice="6.39403776578315 -1.7366916911096704e-28 -9.678009990509107e-18 2.1191290432983863e-31 7.47789223547623 -1.131557553509753e-14 3.957328561337652e-18 7.191698055574012e-15 4.87096831959887" Properties=species:S:1:pos:R:3 unique_starting_index=60 config_type=initial n_minim_iter=4 stress="-0.00019858668360433758 -3.8135593755641155e-18 -6.883501378780977e-17 -3.8135593755641155e-18 8.23801610057108e-06 1.137122459965498e-16 -6.883501378780977e-17 1.137122459965498e-16 0.0002408662381361942" pbc="T T T"
Si       4.00211250       2.55930690      -0.00135995
Si       4.00211250       4.91157828       4.86960837
Si       0.80509361       1.17263216       2.43412421
Si       0.80509361       6.29825302       2.43412421
Si       5.23879207       4.93434933       2.43412421
Si       5.23879207       2.53653585       2.43412421
Si       2.04177319       6.27548197       4.86960837
Si       2.04177319       1.19540322      -0.00135995
Si       0.08143389       2.55930690       4.86960837
Si       0.08143389       4.91157828      -0.00135995
Si       3.27845277       1.17263216       2.43412421
Si       3.27845277       6.29825302       2.43412421
