20
Lattice="8.561879825166246 -2.1921083340110057 -2.28062191999599 -2.5163683159650656 8.472249735875167 -2.280621919995901 -2.5163683159650785 -2.6140300650126367 8.375386483513026" Properties=species:S:1:pos:R:3 unique_starting_index=58 config_type=initial n_minim_iter=15 energy=-3258.2054555283576 free_energy=-3258.2054555283576 pbc="T T T"
Si       0.86334227       4.03329655       2.56660319
Si       3.99751746       2.52438837       1.11696478
Si       2.37042198       0.95424714       4.13168306
Si       1.15872121      -0.42458324       2.69717786
Si       2.66580091       1.26108991      -0.31754041
Si      -0.46837427       2.64989529       1.24753946
Si       2.77411605       6.66122647      -3.49188654
Si       6.55082328      -3.60885733       2.88509835
Si      -3.85555412       2.62928617       6.51785902
Si       7.38469731      -2.74262016       0.92904429
Si       0.75502714       7.41880683      -2.70371637
Si      -3.02168010       0.64049203       7.30602918
Si       4.30128205      -2.82897419       3.41391121
Si      -2.99062292       3.24544647       4.32228687
Si       3.35691239       4.43225048      -2.69169220
Si       0.17223080       6.53105241      -0.50814423
Si      -0.77213886       0.14294829       6.50583484
Si       6.51976610      -0.52438944       0.40023143
Si       0.66283221       0.68855713       0.71635989
Si       2.86631097       2.97755421       3.09778276
