16
Lattice="5.723096140513093 2.022660810487619 0.97121366174441 0.9294253733506269 8.647644518407326 1.3241085546567735 0.03171929621834809 -0.8471268145605084 7.261375128004882" Properties=species:S:1:pos:R:3 unique_starting_index=212 config_type=initial n_minim_iter=1 energy=-2604.523249539419 free_energy=-2604.523249539419 pbc="T T T"
Si       3.99774200       5.70377619       2.88052859
Si       2.68649882       4.11940233       6.67616875
Si       1.29093301       2.36765465       1.64575724
Si       5.39330780       7.45552387       7.91094010
Si       1.23795853       2.07428916       6.52711004
Si       5.44628228       7.74888936       3.02958731
Si       4.74001013       6.00956213       0.65239259
Si       1.94423068       3.81361638       8.90430476
Si       1.68660196       6.26247242       6.15734955
Si       4.99763885       3.56070609       3.39934780
Si       1.81509883       7.02745363       8.44225899
Si       4.86914198       2.79572488       1.11443835
Si       4.91609110       3.23453025       6.33209261
Si       1.76814971       6.58864827       3.22460473
Si       3.30844558       1.17024562       1.54226461
Si       3.37579523       8.65293289       8.01443273
16
Lattice="5.7313097695026505 2.022811483375136 0.9631019591530401 0.9303515305732218 8.646690911733574 1.318779636606657 0.024525580625027313 -0.8483455685894115 7.245792797781183" Properties=species:S:1:pos:R:3 unique_starting_index=212 config_type=initial n_minim_iter=2 stress="0.00010457471874414365 -5.525118187201926e-05 7.945149440191412e-05 -5.525118187201926e-05 8.395702894010999e-05 -0.00012326569947823096 7.945149440191412e-05 -0.00012326569947823096 -0.0005714879209145511" pbc="T T T"
Si       4.00215593       5.70306277       2.86924788
Si       2.68403095       4.11809406       6.65842651
Si       1.29195986       2.36746145       1.64023194
Si       5.39422702       7.45369538       7.88744246
Si       1.23363863       2.07319684       6.51185596
Si       5.45254825       7.74795999       3.01581844
Si       4.74709324       6.00926262       0.64515948
Si       1.93909364       3.81189420       8.88251491
Si       1.68390005       6.26077672       6.14108895
Si       5.00228683       3.56038011       3.38658544
Si       1.81023355       7.02526611       8.42073799
Si       4.87595333       2.79589072       1.10693641
Si       4.91813325       3.23335612       6.31289533
Si       1.76805363       6.58780071       3.21477906
Si       3.31219629       1.17014979       1.53551939
Si       3.37399059       8.65100703       7.99215500
16
Lattice="5.734731151926452 2.0242622007336815 0.9586747254159896 0.9324378564091821 8.643394950931826 1.3235051024573246 0.015887875283867238 -0.8444135923180461 7.254249372720626" Properties=species:S:1:pos:R:3 unique_starting_index=212 config_type=initial n_minim_iter=3 stress="0.0010506482313693893 0.0003598987624359033 -0.0005231055761261865 0.0003598987624359033 -6.30063676658269e-05 0.00018217905091504145 -0.0005231055761261865 0.00018217905091504145 0.0008167226584022348" pbc="T T T"
Si       4.00542601       5.70305345       2.87101690
Si       2.67763087       4.12019010       6.66541230
Si       1.29344158       2.36819330       1.64127658
Si       5.38961530       7.45505026       7.89515262
Si       1.22750265       2.07654444       6.52115666
Si       5.45555423       7.74669912       3.01527254
Si       4.75053802       6.00817023       0.64277702
Si       1.93251886       3.81507333       8.89365218
Si       1.68037773       6.26014665       6.14877153
Si       5.00267915       3.56309691       3.38765767
Si       1.80419065       7.02642415       8.43163072
Si       4.87886623       2.79681941       1.10479848
Si       4.91615960       3.23598560       6.31606286
Si       1.76689728       6.58725796       3.22036634
Si       3.31327170       1.17185241       1.53482444
Si       3.36978518       8.65139115       8.00160476
16
Lattice="5.721643654662221 2.0202484213777003 0.9557915346494353 0.9255421093153662 8.637043642306736 1.325173448011026 0.0122995380890889 -0.8415127251577709 7.250870149894236" Properties=species:S:1:pos:R:3 unique_starting_index=212 config_type=initial n_minim_iter=4 stress="-0.0010185361831886505 -5.180767928465876e-05 -0.0005273128953939065 -5.180767928465876e-05 -0.0022075656703922737 0.00060280751414984 -0.0005273128953939065 0.00060280751414984 -0.0005069990093414749" pbc="T T T"
Si       3.99743994       5.69811230       2.86934825
Si       2.66204537       4.11766704       6.66248689
Si       1.29248237       2.36771011       1.63927055
Si       5.36700293       7.44806923       7.89256459
Si       1.21992155       2.07838494       6.52251755
Si       5.43956375       7.73739439       3.00931758
Si       4.73497309       6.00125285       0.64043597
Si       1.92451221       3.81452649       8.89139916
Si       1.67068460       6.25416146       6.14513804
Si       4.98880070       3.56161788       3.38669709
Si       1.79254620       7.02294731       8.42738972
Si       4.86693911       2.79283203       1.10444541
Si       4.90307922       3.23207085       6.31064663
Si       1.75640609       6.58370849       3.22118850
Si       3.30574032       1.17086435       1.53427554
Si       3.35374498       8.64491499       7.99755959
16
Lattice="5.71757243512055 2.023260610315423 0.9567369656956547 0.9206762538891617 8.665558507641475 1.3186745232962844 0.015773461467359088 -0.850566810643806 7.2535637216157225" Properties=species:S:1:pos:R:3 unique_starting_index=212 config_type=initial n_minim_iter=5 stress="-1.6092452729443516e-07 -0.000427278798835599 -0.0003025164364864522 -0.000427278798835599 0.0004120469460456238 0.0001991753385182992 -0.0003025164364864522 0.0001991753385182992 0.00011838742052724584" pbc="T T T"
Si       3.99893150       5.71385631       2.86688128
Si       2.65509065       4.12439600       6.66209393
Si       1.29578630       2.37551694       1.63671999
Si       5.35823585       7.46273536       7.89225522
Si       1.21997155       2.08195672       6.52858827
Si       5.43405060       7.75629559       3.00038694
Si       4.72538717       6.01826182       0.63560715
Si       1.92863498       3.81999049       8.89336806
Si       1.66859078       6.26662792       6.13950761
Si       4.98543137       3.57162438       3.38946760
Si       1.79102774       7.03902600       8.42201092
Si       4.86299441       2.79922630       1.10696429
Si       4.90337746       3.23385377       6.31033359
Si       1.75064469       6.60439854       3.21864162
Si       3.30450307       1.17289380       1.53715934
Si       3.34951908       8.66535851       7.99181587
16
Lattice="5.722281226181605 2.0295324958384793 0.9605493145556306 0.9341350683696164 8.662189590402885 1.311929928875478 0.021816243164273795 -0.8564857328636793 7.253468710320491" Properties=species:S:1:pos:R:3 unique_starting_index=212 config_type=initial n_minim_iter=6 stress="-0.0003154028748108798 0.0005815718922115465 -0.00012346313704244996 0.0005815718922115465 0.00019515092664409045 -0.00020543996428044694 -0.00012346313704244996 -0.00020543996428044694 -2.3757084617188083e-05" pbc="T T T"
Si       4.01185219       5.71486521       2.86557730
Si       2.66638035       4.12037114       6.66037066
Si       1.30189522       2.37559499       1.63579830
Si       5.37633731       7.45964136       7.89014966
Si       1.22922549       2.07763915       6.52901795
Si       5.44900705       7.75759721       2.99693000
Si       4.73377910       6.02132785       0.63404710
Si       1.94445343       3.81390850       8.89190086
Si       1.68290842       6.25980122       6.13425529
Si       4.99532412       3.57543513       3.39169267
Si       1.80909106       7.03100130       8.41608978
Si       4.86914147       2.80423505       1.10985817
Si       4.91531889       3.23346014       6.31177304
Si       1.76291364       6.60177621       3.21417492
Si       3.30858713       1.17532992       1.53971411
Si       3.36964540       8.65990643       7.98623385
16
Lattice="5.7315661292005124 2.0255457364518072 0.9684879445204361 0.9352464693574354 8.651902817741966 1.3110147353766848 0.032705636137316134 -0.8576144780418226 7.2547858224415736" Properties=species:S:1:pos:R:3 unique_starting_index=212 config_type=initial n_minim_iter=7 stress="0.0004525971876826571 -8.50279054616877e-05 0.0004857599384349525 -8.50279054616877e-05 -0.00036562423109981175 1.726597355619005e-05 0.0004857599384349525 1.726597355619005e-05 4.478048874988709e-05" pbc="T T T"
Si       4.02207761       5.70730048       2.87029569
Si       2.67744063       4.11253359       6.66399281
Si       1.30618882       2.37315725       1.63780908
Si       5.39332941       7.44667683       7.89647942
Si       1.23962773       2.07361698       6.53344198
Si       5.45989051       7.74621709       3.00084652
Si       4.73818404       6.01248654       0.63782254
Si       1.96133419       3.80734753       8.89646596
Si       1.69110421       6.24875636       6.13489365
Si       5.00841402       3.57107772       3.39939485
Si       1.82198963       7.01953767       8.41724694
Si       4.87752860       2.80029640       1.11704156
Si       4.93120872       3.22613665       6.31958539
Si       1.76830951       6.59369742       3.21470311
Si       3.31641215       1.17195285       1.54467991
Si       3.38310608       8.64788122       7.98960859
16
Lattice="5.722918744496232 2.028121316088052 0.9574935614051695 0.9344693959748059 8.659456222977742 1.2995312998683137 0.021211722036859 -0.8672269020198312 7.257805731640255" Properties=species:S:1:pos:R:3 unique_starting_index=212 config_type=initial n_minim_iter=8 stress="-0.0003520436067497957 -0.0002745987438205821 4.09315055396668e-05 -0.0002745987438205821 -0.00019330552381144003 -0.0004052030931923505 4.09315055396668e-05 -0.0004052030931923505 -9.765977694793498e-05" pbc="T T T"
Si       4.01821416       5.71508789       2.85871009
Si       2.66038570       4.10526274       6.65612051
Si       1.30318554       2.37773561       1.63727261
Si       5.37541433       7.44261502       7.87755798
Si       1.22615264       2.06960325       6.53981394
Si       5.45244723       7.75074738       2.97501666
Si       4.72411988       6.01548373       0.61581393
Si       1.95447999       3.80486691       8.89901667
Si       1.67194892       6.24040152       6.12278124
Si       5.00665094       3.57994912       3.39204936
Si       1.80744019       7.01359238       8.40537508
Si       4.87115967       2.80675826       1.10945552
Si       4.91583845       3.22034593       6.31418351
Si       1.76276141       6.60000471       3.20064709
Si       3.31458352       1.16808094       1.53707787
Si       3.36401634       8.65226970       7.97775272
16
Lattice="5.726342038154343 2.03742527281898 0.9604643833687811 0.9435504450642166 8.670379998518372 1.3134374958314474 0.02038300490682454 -0.8557663375125403 7.253029438723853" Properties=species:S:1:pos:R:3 unique_starting_index=212 config_type=initial n_minim_iter=9 stress="-0.0001217100583250355 0.00014232140534544105 0.00014589289557840636 0.00014232140534544105 0.00026726250472581777 0.0005346651197874152 0.00014589289557840636 0.0005346651197874152 -0.0002572321925508869" pbc="T T T"
Si       4.02605458       5.73065966       2.86664024
Si       2.66422091       4.12137928       6.66029108
Si       1.30698417       2.38515563       1.64182620
Si       5.38329132       7.46688331       7.88510512
Si       1.22777172       2.08403523       6.54236613
Si       5.46250377       7.76800370       2.98456519
Si       4.72919819       6.02616216       0.62440312
Si       1.96107730       3.82587677       8.90252820
Si       1.67643384       6.25628410       6.12925426
Si       5.01384165       3.59575484       3.39767706
Si       1.81500945       7.03549109       8.41218128
Si       4.87526603       2.81654784       1.11475004
Si       4.91997273       3.23762149       6.31787788
Si       1.77030276       6.61441744       3.20905344
Si       3.31768183       1.17485989       1.53751874
Si       3.37259366       8.67717904       7.98941258
16
Lattice="5.737873126457046 2.037730754101404 0.9494263380625253 0.9507857287553364 8.657319286500003 1.296708505002712 0.009237609510465128 -0.8689508541048647 7.263747536888229" Properties=species:S:1:pos:R:3 unique_starting_index=212 config_type=initial n_minim_iter=10 stress="0.0007728812742372663 3.6243052919419493e-06 -0.0004407960584310306 3.6243052919419493e-06 -0.0002820250394041237 -0.00048162175134801056 -0.0004407960584310306 -0.00048162175134801056 0.0006770940551339445" pbc="T T T"
Si       4.03639375       5.72641845       2.85126601
Si       2.66150272       4.09968074       6.65861637
Si       1.31459081       2.38414892       1.64262148
Si       5.38330565       7.44195027       7.86726090
Si       1.21935604       2.07066532       6.54810804
Si       5.47854042       7.75543386       2.96177434
Si       4.73765475       6.02096382       0.60461974
Si       1.96024172       3.80513537       8.90526264
Si       1.67047103       6.23458643       6.11892315
Si       5.02742544       3.59151276       3.39095923
Si       1.81301095       7.01276945       8.40114519
Si       4.88488551       2.81332973       1.10873719
Si       4.92093881       3.22179512       6.31537275
Si       1.77695766       6.60430407       3.19450963
Si       3.32603669       1.17545839       1.52891862
Si       3.37185977       8.65064080       7.98096376
16
Lattice="5.7404468866453335 2.052005814341091 0.9503002118154406 0.9661102271472045 8.673907754434012 1.3026170365600376 0.0077292944395548 -0.8644186380605166 7.257363229116326" Properties=species:S:1:pos:R:3 unique_starting_index=212 config_type=initial n_minim_iter=11 stress="-0.00017052496466077947 2.892888238949253e-05 4.277349414158733e-05 2.892888238949253e-05 8.256592306587823e-05 0.00011867631227604643 4.277349414158733e-05 0.00011867631227604643 -0.00011672141603476768" pbc="T T T"
Si       4.04873410       5.75208409       2.85146047
Si       2.66555231       4.10941084       6.65882001
Si       1.32390394       2.39659652       1.65061408
Si       5.39038247       7.46489841       7.85966640
Si       1.21842468       2.08226875       6.55021062
Si       5.49586173       7.77922618       2.96006986
Si       4.74101758       6.03858636       0.60604297
Si       1.97326883       3.82290857       8.90423751
Si       1.67204639       6.24700162       6.11532134
Si       5.04224002       3.61449331       3.39495914
Si       1.82544717       7.03433183       8.39406666
Si       4.88883924       2.82716310       1.11621382
Si       4.92250596       3.23597023       6.31776366
Si       1.79178045       6.62552470       3.19251682
Si       3.33237680       1.18614402       1.52495906
Si       3.38190961       8.67535091       7.98532141
16
Lattice="5.7485097948179416 2.054260240101912 0.9462477707014205 0.972485602119315 8.670486972852654 1.2944372391587289 0.004294218054705183 -0.8707909066567662 7.258874616947939" Properties=species:S:1:pos:R:3 unique_starting_index=212 config_type=initial n_minim_iter=12 stress="0.00022684981602016515 -0.00011127935133442882 0.00019116381880903075 -0.00011127935133442882 -0.00020373840507071535 -0.00012041278215923159 0.00019116381880903075 -0.00012041278215923159 0.00016766284249469717" pbc="T T T"
Si       4.05874237       5.75332039       2.84388317
Si       2.66654724       4.10063591       6.65567646
Si       1.32998086       2.39686416       1.65326751
Si       5.39530876       7.45709215       7.84629212
Si       1.21482443       2.07492369       6.54937104
Si       5.51046519       7.77903262       2.95018859
Si       4.75204147       6.04053047       0.60047616
Si       1.97324814       3.81342584       8.89908346
Si       1.67154241       6.23672158       6.10950743
Si       5.05374720       3.61723472       3.39005219
Si       1.82834048       7.02540708       8.38342635
Si       4.89694914       2.82854923       1.11613328
Si       4.92435073       3.22914488       6.31556982
Si       1.80093888       6.62481143       3.18398981
Si       3.33990302       1.18971463       1.52326969
Si       3.38538659       8.66424168       7.97628993
16
Lattice="5.744704287330657 2.057082978490111 0.9373839902558821 0.9718493122818402 8.678564781384463 1.2907710804531403 -0.00613974311398176 -0.8731719501835038 7.256460571477106" Properties=species:S:1:pos:R:3 unique_starting_index=212 config_type=initial n_minim_iter=13 stress="-3.309365812513232e-05 2.9869981417524517e-05 -3.7646897828066415e-05 2.9869981417524517e-05 -5.0386039709099326e-05 2.259580565767102e-06 -3.7646897828066415e-05 2.259580565767102e-06 -0.00021185644817449026" pbc="T T T"
Si       4.05704705       5.76042802       2.83625684
Si       2.65336680       4.10204779       6.64835880
Si       1.32890130       2.39920154       1.65314768
Si       5.38151256       7.46327427       7.83146796
Si       1.20274681       2.07375553       6.54665487
Si       5.50766704       7.78872028       2.93796078
Si       4.75212435       6.04729638       0.59303546
Si       1.95828951       3.81517943       8.89158019
Si       1.65992244       6.23684242       6.10360602
Si       5.05049141       3.62563339       3.38100962
Si       1.81535977       7.02852721       8.37435647
Si       4.89505408       2.83394860       1.11025917
Si       4.91063348       3.22950218       6.30712586
Si       1.79978038       6.63297363       3.17748978
Si       3.33897594       1.19201190       1.51976844
Si       3.37143792       8.67046391       7.96484720
16
Lattice="5.74230941957319 2.05654754251287 0.9345084341002535 0.9693544787219733 8.682191749278381 1.2869391606530938 -0.009429765696258583 -0.8775245325805076 7.263801942762174" Properties=species:S:1:pos:R:3 unique_starting_index=212 config_type=initial n_minim_iter=14 stress="-2.7683029081689767e-05 3.543997548765239e-05 3.777596783776975e-05 3.543997548765239e-05 0.00028767119641125074 8.629244631295799e-05 3.777596783776975e-05 8.629244631295799e-05 0.0004561160717115385" pbc="T T T"
Si       4.05701605       5.76378063       2.83369785
Si       2.64521808       4.09743413       6.65155169
Si       1.32981227       2.39956711       1.65307133
Si       5.37242186       7.46164765       7.83217821
Si       1.19831538       2.06980513       6.55477262
Si       5.50391876       7.79140963       2.93047692
Si       4.74831454       6.04769548       0.58692234
Si       1.95391959       3.81351928       8.89832720
Si       1.65266380       6.23205488       6.10199059
Si       5.04957034       3.62915988       3.38325894
Si       1.80799059       7.02574858       8.37801276
Si       4.89424355       2.83546618       1.10723677
Si       4.90297477       3.22537105       6.31044467
Si       1.79925937       6.63584371       3.17480487
Si       3.33851714       1.19078821       1.51794808
Si       3.36371699       8.67042655       7.96730145
16
Lattice="5.744572802017565 2.0543001702863903 0.9289447055268186 0.9677085914571175 8.677742437275459 1.280474268514698 -0.01448984321218342 -0.881874147747489 7.2631145431777" Properties=species:S:1:pos:R:3 unique_starting_index=212 config_type=initial n_minim_iter=15 stress="3.956720425762772e-05 -9.286894833963528e-06 -5.80811042376127e-05 -9.286894833963528e-06 -3.784450662265446e-05 -2.7181130919173926e-06 -5.80811042376127e-05 -2.7181130919173926e-06 -1.2792715715731419e-05" pbc="T T T"
Si       4.05793090       5.76130509       2.82543039
Si       2.63986065       4.08886337       6.64710313
Si       1.33118269       2.39650817       1.65103423
Si       5.36660886       7.45366029       7.82149929
Si       1.19307556       2.06156156       6.55120301
Si       5.50471599       7.78860690       2.92133051
Si       4.75231570       6.04431847       0.58186682
Si       1.94547585       3.80584999       8.89066669
Si       1.64721140       6.22330611       6.09437774
Si       5.05058015       3.62686235       3.37815577
Si       1.80071295       7.01702784       8.37093783
Si       4.89707860       2.83314062       1.10159569
Si       4.89609550       3.21801553       6.30468049
Si       1.80169605       6.63215293       3.16785302
Si       3.34010347       1.19082641       1.51336520
Si       3.35768808       8.65934205       7.95916831
16
Lattice="5.744808142225176 2.0543470333270544 0.9308390467324528 0.9686943111501962 8.677330224362922 1.278749311112973 -0.011596728988103428 -0.8837365968762297 7.264075011561763" Properties=species:S:1:pos:R:3 unique_starting_index=212 config_type=initial n_minim_iter=16 stress="-0.0001360694627221529 -1.6802846300481347e-05 0.0002027847810394455 -1.6802846300481347e-05 3.9511538880657235e-05 -7.713708849800792e-06 0.0002027847810394455 -7.713708849800792e-06 -0.00012044135742970116" pbc="T T T"
Si       4.06000397       5.76078682       2.82503965
Si       2.64190175       4.08715384       6.64862372
Si       1.33107502       2.39534587       1.64988533
Si       5.37083071       7.45259479       7.82377804
Si       1.19576337       2.05806903       6.55148627
Si       5.50614235       7.78987163       2.92217709
Si       4.75298422       6.04361422       0.58273511
Si       1.94892151       3.80432644       8.89092826
Si       1.64986770       6.22159627       6.09431178
Si       5.05203802       3.62634439       3.37935159
Si       1.80421184       7.01462010       8.37061611
Si       4.89769389       2.83332056       1.10304726
Si       4.89730295       3.21628935       6.30635192
Si       1.80460278       6.63165131       3.16731145
Si       3.34118415       1.19122281       1.51465001
Si       3.36072157       8.65671785       7.95901335
16
Lattice="5.745659134478415 2.0546624452512656 0.924705641952013 0.9695116133791617 8.674363954182233 1.2753715471228786 -0.019671122742709247 -0.8865274325647744 7.271363100725426" Properties=species:S:1:pos:R:3 unique_starting_index=212 config_type=initial n_minim_iter=17 stress="5.501385272427173e-05 3.15067894682967e-05 -6.294829452300709e-05 3.15067894682967e-05 1.4300857969226077e-05 4.781072455877883e-07 -6.294829452300709e-05 4.781072455877883e-07 -3.211541935353168e-05" pbc="T T T"
Si       4.06236604       5.76032995       2.81856183
Si       2.63313358       4.08216901       6.65287846
Si       1.32964490       2.39415182       1.64637237
Si       5.36585473       7.44834715       7.82506792
Si       1.18858541       2.05172503       6.55650964
Si       5.50691422       7.79077394       2.91493065
Si       4.75286849       6.04060484       0.57496220
Si       1.94263113       3.80189413       8.89647809
Si       1.64337884       6.21651998       6.09521675
Si       5.05212078       3.62597899       3.37622354
Si       1.79711991       7.00874016       8.37216393
Si       4.89837971       2.83375881       1.09927636
Si       4.88982804       3.21176699       6.30623519
Si       1.80567158       6.63073198       3.16520510
Si       3.34231948       1.19290688       1.51141553
Si       3.35318015       8.64959208       7.96002476
16
Lattice="5.743234547409141 2.05125373112707 0.9179130064957004 0.9671966481730371 8.665013404876108 1.2665544868484715 -0.02852154923141117 -0.8956263475670654 7.29457394932308" Properties=species:S:1:pos:R:3 unique_starting_index=212 config_type=initial n_minim_iter=18 stress="-6.855014486587765e-05 -0.00015268416592559595 0.00011629902957805504 -0.00015268416592559595 -0.00011746416645969569 4.33376817376617e-05 0.00011629902957805504 4.33376817376617e-05 0.0005984766799768702" pbc="T T T"
Si       4.06555338       5.75467959       2.80783172
Si       2.61635627       4.06596120       6.67120973
Si       1.32561438       2.39122551       1.63957235
Si       5.35629527       7.42941528       7.83946909
Si       1.17528457       2.03410384       6.57102648
Si       5.50662507       7.78653694       2.90801496
Si       4.74977454       6.03260995       0.56226394
Si       1.93213511       3.78803084       8.91677750
Si       1.63024057       6.20270234       6.10555685
Si       5.05166907       3.61793845       3.37348459
Si       1.78458466       6.98700454       8.38446103
Si       4.89732499       2.83363625       1.09458042
Si       4.87391196       3.19266600       6.31828626
Si       1.80799768       6.62797479       3.16075518
Si       3.33921419       1.19582312       1.50999706
Si       3.34269546       8.62481766       7.96904438
16
Lattice="5.742428694045018 2.050453416367821 0.9161714172466444 0.9663942360521586 8.663519410211586 1.2641227406221185 -0.03030010046267059 -0.8977129217125004 7.297050567670839" Properties=species:S:1:pos:R:3 unique_starting_index=212 config_type=initial n_minim_iter=19 stress="-2.3772062385107153e-05 -5.4984269820467836e-05 5.0026422161266446e-05 -5.4984269820467836e-05 -5.756623721956733e-05 2.7598259643651017e-05 5.0026422161266446e-05 2.7598259643651017e-05 0.00019559982284841668" pbc="T T T"
Si       4.06590626       5.75301959       2.80431323
Si       2.61261657       4.06324031       6.67303149
Si       1.32369474       2.39065286       1.63576687
Si       5.35482809       7.42560704       7.84157786
Si       1.17300356       2.03035886       6.57179176
Si       5.50551927       7.78590104       2.90555297
Si       4.74823349       6.03063743       0.55882017
Si       1.93028934       3.78562247       8.91852456
Si       1.62777116       6.20077108       6.10564059
Si       5.05075167       3.61548882       3.37170413
Si       1.78149641       6.98257736       8.38542811
Si       4.89702642       2.83368254       1.09191662
Si       4.87073364       3.18880695       6.31843742
Si       1.80778919       6.62745295       3.15890731
Si       3.33752504       1.19558687       1.50894346
Si       3.34099779       8.62067304       7.96840127
16
Lattice="5.741534825911048 2.0498438945934474 0.9135614949971674 0.9656390545483676 8.662522429044225 1.2608083302366901 -0.03309674411712718 -0.900649391456368 7.3006350597111185" Properties=species:S:1:pos:R:3 unique_starting_index=212 config_type=initial n_minim_iter=20 stress="1.3034905673185721e-05 2.7158138698295684e-05 -3.772199136308255e-06 2.7158138698295684e-05 2.6067398786835683e-06 -5.090189069386175e-06 -3.772199136308255e-06 -5.090189069386175e-06 -0.00010393515188447567" pbc="T T T"
Si       4.06644568       5.75171096       2.79972952
Si       2.60763145       4.06000598       6.67527537
Si       1.32189386       2.39062357       1.63203363
Si       5.35218327       7.42109336       7.84297125
Si       1.16939578       2.02594366       6.57337071
Si       5.50468136       7.78577327       2.90163417
Si       4.74660796       6.02911294       0.55427118
Si       1.92746917       3.78260399       8.92073370
Si       1.62393222       6.19816256       6.10565041
Si       5.05014492       3.61355438       3.36935447
Si       1.77728015       6.97811301       8.38628883
Si       4.89679699       2.83360392       1.08871605
Si       4.86627020       3.18410201       6.31866464
Si       1.80780694       6.62761492       3.15634025
Si       3.33604271       1.19540929       1.50746080
Si       3.33803443       8.61630764       7.96754408
16
Lattice="5.738954921077043 2.0483972535247568 0.9088841503045774 0.9629144294137838 8.662169315909273 1.2558725891748774 -0.03835015853211478 -0.9052316243234442 7.307341925690339" Properties=species:S:1:pos:R:3 unique_starting_index=212 config_type=initial n_minim_iter=21 stress="5.507283753569015e-05 0.00012073747956558343 -6.122133931010614e-05 0.00012073747956558343 8.305073979158995e-05 -4.038477561359708e-05 -6.122133931010614e-05 -4.038477561359708e-05 -0.0003974789705700385" pbc="T T T"
Si       4.06547104       5.74896234       2.79237196
Si       2.59804815       4.05637260       6.67972670
Si       1.31837890       2.39172618       1.62631786
Si       5.34514029       7.41360876       7.84578080
Si       1.16202106       2.01967409       6.57653454
Si       5.50149813       7.78566086       2.89556413
Si       4.74265620       6.02706346       0.54734103
Si       1.92086299       3.77827148       8.92475764
Si       1.61570756       6.19491265       6.10706458
Si       5.04781163       3.61042230       3.36503409
Si       1.76825856       6.97337476       8.38916443
Si       4.89526063       2.83196018       1.08293424
Si       4.85711203       3.17636989       6.31910287
Si       1.80640716       6.62896506       3.15299580
Si       3.33289506       1.19429625       1.50515981
Si       3.33062413       8.61103869       7.96693886
