16
Lattice="6.456184826302701 0.5780238102360942 1.7028356388653194 2.7408320245888933 4.480193507707215 1.0610253958293905 6.4265379822847635 2.2021598613716282 14.013658549652424" Properties=species:S:1:pos:R:3 unique_starting_index=3 config_type=initial n_minim_iter=1 energy=-2605.0542628640032 free_energy=-2605.0542628640032 pbc="T T T"
Si       9.01365652       5.60791117       8.61463576
Si       9.89909145       3.31280361      14.98848803
Si       2.37301361       3.14130243       4.16765345
Si       6.19971478       3.10658807       3.11760983
Si       8.64990376       1.51674986       6.77975458
Si       9.92288090       3.55486252       9.23422036
Si       4.65370179       3.24190570       4.88006124
Si       8.46760721       3.47686610       3.59350792
Si       6.37270911       2.21962623       9.95655105
Si       8.54418633       1.83853804       9.05350316
Si      11.10078780       4.18749653      11.18400104
Si       4.82241473       1.00991263       5.64242999
Si       7.29238064       5.36667705      11.72193910
Si       7.24183519       3.16655334      12.11257322
Si       9.51834398       3.22622255      12.62792053
Si       5.77124106       1.23512735       1.59910897
16
Lattice="6.388019931110989 0.5681629637913833 1.671255851696184 2.728016513608486 4.449410315753763 0.9647264607367982 6.339275785072802 1.947481495616238 13.901060031379657" Properties=species:S:1:pos:R:3 unique_starting_index=3 config_type=initial n_minim_iter=2 stress="-0.010822231671311034 0.001958871241382829 -0.0012480030652503426 0.001958871241382829 -0.002526880463015067 -0.007329433764836701 -0.0012480030652503426 -0.007329433764836701 -0.012221181006314571" pbc="T T T"
Si       8.91960859       5.45074755       8.45566036
Si       9.77314401       3.04308314      14.84670194
Si       2.36074002       3.05163608       4.08039863
Si       6.13698961       3.06709197       3.02083600
Si       8.55326607       1.40535844       6.69662416
Si       9.82591817       3.40854093       9.11187366
Si       4.60863622       3.15996542       4.78772078
Si       8.39394761       3.42102037       3.49061399
Si       6.29842476       2.03614094       9.86555586
Si       8.43689880       1.67431456       8.97631533
Si      10.97357390       4.01300159      11.02498201
Si       4.75533136       0.91705127       5.59741536
Si       7.21743056       5.15257525      11.55109095
Si       7.14806489       2.93301004      11.98339851
Si       9.41086009       3.00428770      12.50243443
Si       5.71311255       1.22560063       1.56017117
16
Lattice="6.467492308458535 0.5562490514795569 1.7090191383444677 2.765798366644684 4.4381021852620295 0.9454182865474211 6.420321140410284 1.806607743592972 14.23690119735317" Properties=species:S:1:pos:R:3 unique_starting_index=3 config_type=initial n_minim_iter=3 stress="0.01315102025784367 0.002311184404770833 -3.307506974292083e-05 0.002311184404770833 0.012084982371554257 -0.009281496097206483 -3.307506974292083e-05 -0.009281496097206483 0.011882154853387877" pbc="T T T"
Si       9.02522870       5.36514111       8.62453460
Si       9.88734226       2.88355364      15.20354758
Si       2.40986179       2.99850565       4.14502638
Si       6.20693882       3.06188503       3.04476379
Si       8.66317894       1.32778071       6.83658038
Si       9.97083470       3.33512998       9.31819489
Si       4.67133255       3.12800397       4.87777459
Si       8.51652788       3.38384457       3.53844840
Si       6.38439755       1.92413278      10.10905473
Si       8.53210697       1.55773932       9.21666169
Si      11.10376417       3.93788008      11.25029827
Si       4.79507201       0.86734534       5.74581345
Si       7.32100242       5.04669209      11.78502866
Si       7.22778105       2.78614536      12.25388711
Si       9.53977486       2.87923161      12.80707154
Si       5.78574184       1.21986578       1.59495493
16
Lattice="6.419879392086299 0.5440673699443077 1.7195837686891113 2.731733782072117 4.3735554517849895 0.9943782951004924 6.37535924546868 1.899455101065171 14.267351122221237" Properties=species:S:1:pos:R:3 unique_starting_index=3 config_type=initial n_minim_iter=4 stress="0.00466765458779083 0.000838735866637663 0.00045870205363734946 0.000838735866637663 -0.00669105126222887 -0.0016444196055569581 0.00045870205363734946 -0.0016444196055569581 0.007654329911808345" pbc="T T T"
Si       8.94155007       5.34190735       8.69466186
Si       9.80949042       2.95196277      15.25135647
Si       2.39387208       2.98103710       4.17475546
Si       6.14903736       3.04133070       3.07005595
Si       8.60129994       1.34091159       6.85136655
Si       9.90151607       3.35167720       9.36705938
Si       4.63238663       3.12266334       4.91424733
Si       8.45346073       3.33974744       3.57668120
Si       6.33816436       1.96828090      10.14485026
Si       8.46623977       1.58475543       9.25579633
Si      11.01196192       3.97090426      11.29795175
Si       4.74880860       0.90003946       5.76877425
Si       7.26339545       5.06897056      11.84294232
Si       7.16657811       2.83021595      12.29120992
Si       9.47240249       2.93324201      12.85754184
Si       5.74121326       1.20126496       1.61472768
16
Lattice="6.370283308522412 0.5449429452566472 1.7014245565422554 2.6951457609328977 4.439273464558967 1.021951877150773 6.315384090890765 2.0390337121580138 14.111875732716928" Properties=species:S:1:pos:R:3 unique_starting_index=3 config_type=initial n_minim_iter=5 stress="-0.000507804529446472 -0.002415950236284457 -0.00019644879887830327 -0.002415950236284457 0.0027587898139519317 0.0008939195138627941 -0.00019644879887830327 0.0008939195138627941 0.0010051220344743424" pbc="T T T"
Si       8.84861953       5.47339291       8.63831531
Si       9.71814309       3.09868392      15.09329382
Si       2.36793827       3.05340774       4.14633448
Si       6.08879057       3.10507809       3.05259099
Si       8.53144782       1.39097360       6.77808741
Si       9.81590384       3.45266881       9.28337372
Si       4.58860920       3.20277780       4.87854540
Si       8.38124598       3.39262555       3.56048315
Si       6.27867413       2.06864668      10.04275998
Si       8.39561844       1.66369697       9.15825595
Si      10.91038256       4.10017815      11.19769212
Si       4.70059328       0.95313517       5.71174323
Si       7.19013015       5.22810241      11.74144676
Si       7.09549728       2.95585553      12.16732837
Si       9.38751173       3.06699446      12.73183286
Si       5.69449070       1.21435834       1.60391389
16
Lattice="6.393971930351296 0.6060564283093255 1.6956291554089347 2.743588917143914 4.46112320591222 1.026174278050737 6.365421496793854 2.125112350604795 14.013684501079632" Properties=species:S:1:pos:R:3 unique_starting_index=3 config_type=initial n_minim_iter=6 stress="0.00012849093474730076 0.0026304132473247686 0.0007742099194080549 0.0026304132473247686 -2.79072181530809e-05 0.0017099901593393887 0.0007742099194080549 0.0017099901593393887 -0.004595360352599727" pbc="T T T"
Si       8.92494269       5.56739208       8.59595550
Si       9.78432427       3.20994031      14.99490645
Si       2.40795004       3.07877280       4.11784127
Si       6.13294528       3.17917679       3.03184903
Si       8.57530358       1.47841999       6.73893311
Si       9.88303686       3.55203686       9.22732255
Si       4.64224631       3.25548792       4.84782876
Si       8.44256999       3.47248587       3.54642760
Si       6.32092313       2.14849896       9.97858185
Si       8.44963097       1.76548788       9.09679757
Si      10.99043838       4.21613400      11.14148785
Si       4.71886010       1.00864730       5.67923943
Si       7.27016307       5.30285569      11.66472598
Si       7.15199952       3.04032437      12.08565900
Si       9.45471310       3.18045786      12.65414300
Si       5.72295957       1.26980626       1.60026291
16
Lattice="6.355941274745142 0.5928234315016983 1.6824529146795775 2.72389741219257 4.433800475888006 1.005868638185 6.293356310086112 2.0575979044795383 14.040755320812073" Properties=species:S:1:pos:R:3 unique_starting_index=3 config_type=initial n_minim_iter=7 stress="-0.004390729598387232 0.0006226046675395274 -0.0004976888917562337 0.0006226046675395274 -0.0038286639288227413 0.0005347466105913241 -0.0004976888917562337 0.0005347466105913241 -0.004904037715986534" pbc="T T T"
Si       8.83927133       5.50409595       8.59160580
Si       9.68509571       3.11696089      15.01794623
Si       2.38822375       3.04247646       4.10588960
Si       6.08579790       3.18120294       2.99220875
Si       8.51464612       1.43241508       6.73725498
Si       9.80631732       3.47975172       9.22070847
Si       4.61648077       3.22747003       4.83245257
Si       8.39518744       3.43578724       3.51750335
Si       6.25304641       2.09938329       9.99733802
Si       8.39448640       1.73061220       9.09832039
Si      10.90292949       4.14323437      11.15731943
Si       4.65916451       0.98190493       5.69474702
Si       7.20224390       5.20818084      11.65791173
Si       7.07758474       2.96623275      12.09714891
Si       9.37104306       3.11806284      12.67306994
Si       5.68840380       1.25826989       1.58800485
16
Lattice="6.359220452212781 0.5927931381922591 1.698624188580322 2.72935894792313 4.4292876998110335 1.001968023870458 6.315850103526104 2.019986907703419 14.113658259610714" Properties=species:S:1:pos:R:3 unique_starting_index=3 config_type=initial n_minim_iter=8 stress="-0.0012233523886818927 0.00011161755865302451 0.0008049267920260096 0.00011161755865302451 -0.0015449644826106249 2.545905134825562e-05 0.0008049267920260096 2.545905134825562e-05 -0.0012640605264425942" pbc="T T T"
Si       8.84517378       5.48211998       8.64148075
Si       9.70416016       3.06531304      15.10246155
Si       2.40341691       3.02512975       4.11295093
Si       6.08809514       3.20710211       2.98334937
Si       8.52784695       1.41131998       6.77979763
Si       9.83155872       3.45262936       9.27384806
Si       4.63957377       3.22292658       4.84383977
Si       8.41104238       3.42902941       3.53019066
Si       6.26803221       2.07102434      10.05690398
Si       8.41557467       1.71035927       9.15340104
Si      10.92034093       4.12303613      11.22922961
Si       4.64958750       0.97177662       5.73732059
Si       7.22761092       5.16203063      11.69863766
Si       7.09439246       2.92001166      12.15825692
Si       9.39553791       3.08970386      12.75089453
Si       5.69292784       1.26284169       1.60217030
16
Lattice="6.357186652310111 0.5973988158553455 1.6738393580151092 2.7309258458352503 4.431825668206881 0.9885665542469081 6.258494589008458 2.0133286561446457 14.12768922263094" Properties=species:S:1:pos:R:3 unique_starting_index=3 config_type=initial n_minim_iter=9 stress="0.001078825513941935 0.00025333823411489016 -0.0013846632543179436 0.00025333823411489016 0.0008759659795198888 0.00011563455817462822 -0.0013846632543179436 0.00011563455817462822 0.001256587788213351" pbc="T T T"
Si       8.81262830       5.48252836       8.62989627
Si       9.64534490       3.05725259      15.10304669
Si       2.39050232       3.02283508       4.11082977
Si       6.08193091       3.22541492       2.95042779
Si       8.50456053       1.41295653       6.76334211
Si       9.80688090       3.45332649       9.25851995
Si       4.63110749       3.22443974       4.82745295
Si       8.40486250       3.43661012       3.49551539
Si       6.23034481       2.06551688      10.06030853
Si       8.38308117       1.70844081       9.14188323
Si      10.87848540       4.12778727      11.21767965
Si       4.62105909       0.97359995       5.73639031
Si       7.18371454       5.15165231      11.68973059
Si       7.04811815       2.90893465      12.16427553
Si       9.34843230       3.08634337      12.74921753
Si       5.69149938       1.27051509       1.57891810
16
Lattice="6.363265099298049 0.5855068165547319 1.6911163096755375 2.7294559657688744 4.4236883816115045 0.9861624416335287 6.28743749349165 1.96895182719942 14.182761308930607" Properties=species:S:1:pos:R:3 unique_starting_index=3 config_type=initial n_minim_iter=10 stress="0.002856930524443859 -0.00062187738366115 0.0002617991411139174 -0.00062187738366115 0.003236961680853866 -0.00031221697036611367 0.0002617991411139174 -0.00031221697036611367 0.0031885332145076464" pbc="T T T"
Si       8.82215313       5.44469695       8.67427299
Si       9.67819004       3.00506683      15.16300197
Si       2.39469329       3.00745565       4.12270908
Si       6.08829799       3.22660316       2.95104935
Si       8.51834022       1.38789885       6.80717889
Si       9.83689454       3.41563399       9.30841702
Si       4.65086342       3.20276201       4.83095292
Si       8.40883749       3.42177090       3.51107534
Si       6.25457268       2.02566844      10.10319421
Si       8.40308176       1.67154656       9.18371377
Si      10.89516080       4.08940039      11.28006489
Si       4.62746262       0.95727048       5.76380255
Si       7.20062357       5.10001043      11.71655216
Si       7.07595383       2.85840562      12.22034554
Si       9.37588710       3.03664096      12.80696263
Si       5.69730297       1.26519183       1.58931914
16
Lattice="6.359599321146236 0.5775167759346829 1.6781859572360565 2.7278919796400003 4.396119553027378 0.9664712753458384 6.250449589582415 1.906919093959919 14.21347595121508" Properties=species:S:1:pos:R:3 unique_starting_index=3 config_type=initial n_minim_iter=11 stress="0.00176124806236997 -0.0006725244465351591 0.00027306656389529345 -0.0006725244465351591 0.0026317225185181086 -0.00022541839460370116 0.00027306656389529345 -0.00022541839460370116 0.002182583546571613" pbc="T T T"
Si       8.78914407       5.37441431       8.69255288
Si       9.64829295       2.94744176      15.16933465
Si       2.37336504       2.97893472       4.12938445
Si       6.08827960       3.22823231       2.90885589
Si       8.49002520       1.36982820       6.82577577
Si       9.83932764       3.36240572       9.32790336
Si       4.66430087       3.15572710       4.78672609
Si       8.38401912       3.41155692       3.48247336
Si       6.23706546       1.96232465      10.11967325
Si       8.37531742       1.62218001       9.18450143
Si      10.84979735       4.03649937      11.31498537
Si       4.61010673       0.94437778       5.76625728
Si       7.15357990       5.00632179      11.68406835
Si       7.05879433       2.77717362      12.26495830
Si       9.34362857       2.95383529      12.82417956
Si       5.69644573       1.26915707       1.56250811
16
Lattice="6.3603327813904365 0.5879844551333997 1.661948015824252 2.7353399500945343 4.37837052193031 0.9628611443306655 6.238560849600276 1.9232861404879202 14.1356689742531" Properties=species:S:1:pos:R:3 unique_starting_index=3 config_type=initial n_minim_iter=12 stress="-0.0023862469995149555 0.0005005118193155605 0.0001699138979457292 0.0005005118193155605 -0.003975819193403227 -0.00011033925593295896 0.0001699138979457292 -0.00011033925593295896 -0.004223771328409333" pbc="T T T"
Si       8.79107136       5.36536559       8.64509571
Si       9.64322050       2.99400244      15.07049156
Si       2.36814968       2.97762624       4.11161754
Si       6.09371702       3.21048817       2.89568518
Si       8.47768952       1.38711329       6.77942552
Si       9.83791442       3.36339248       9.27983454
Si       4.66239714       3.14941894       4.75018644
Si       8.38342278       3.42155844       3.46815039
Si       6.22452308       1.96924060      10.06734035
Si       8.36991720       1.64057370       9.13352783
Si      10.84679319       4.04442975      11.26331227
Si       4.62446158       0.96148621       5.72693172
Si       7.14264432       5.00432445      11.60014770
Si       7.05699720       2.78450184      12.20321650
Si       9.33787244       2.95305567      12.74695467
Si       5.69995394       1.27880276       1.54245360
16
Lattice="6.318106326673538 0.6192650957101254 1.6595299442992666 2.7372940394039187 4.38831179399166 0.9649046853368817 6.170931337227502 1.9533028392937786 14.24308233119913" Properties=species:S:1:pos:R:3 unique_starting_index=3 config_type=initial n_minim_iter=13 stress="-0.005254738910152331 0.0023774000371799336 -0.0002683966924300575 0.0023774000371799336 -0.0016336801401053743 0.0006282446077478314 -0.0002683966924300575 0.0006282446077478314 0.001259166571298657" pbc="T T T"
Si       8.72565854       5.39619381       8.71528757
Si       9.55750025       3.06505509      15.16742488
Si       2.35791829       2.98972050       4.13724999
Si       6.06074306       3.26106454       2.88200264
Si       8.40108535       1.42156588       6.81498547
Si       9.78264887       3.39262157       9.35356533
Si       4.64621328       3.17774760       4.75148247
Si       8.33914245       3.47475260       3.48114436
Si       6.16016898       1.98743690      10.15528007
Si       8.30393877       1.68067995       9.20241566
Si      10.76327162       4.10311919      11.37104592
Si       4.58668954       1.00039651       5.77180877
Si       7.08427370       5.01543350      11.63187150
Si       6.99787093       2.79359830      12.29989861
Si       9.26426542       2.97826683      12.84132059
Si       5.66825038       1.31930222       1.53372210
16
Lattice="6.344096733618711 0.6036826011577375 1.6419981195767113 2.7398372954896253 4.37085916526615 0.9510979159900521 6.165893646692654 1.9164976024681677 14.208332501984003" Properties=species:S:1:pos:R:3 unique_starting_index=3 config_type=initial n_minim_iter=14 stress="-0.0005396864112785335 0.0003723961604820907 -0.0011561857480241512 0.0003723961604820907 -0.0006421897122172297 0.00012418852962256595 -0.0011561857480241512 0.00012418852962256595 0.000460989137975821" pbc="T T T"
Si       8.72971714       5.34813732       8.68769372
Si       9.56464153       3.03399750      15.11631298
Si       2.35515761       2.97312130       4.11893775
Si       6.07555343       3.25391898       2.84321858
Si       8.41676257       1.38752716       6.78435006
Si       9.81473586       3.34122182       9.32796927
Si       4.65888220       3.16062693       4.71192310
Si       8.36690503       3.45569157       3.45542313
Si       6.16014234       1.94823597      10.13779639
Si       8.32254758       1.64598806       9.17687102
Si      10.77863169       4.06294643      11.34981272
Si       4.59542411       0.99273888       5.75760358
Si       7.07891258       4.95714781      11.55759780
Si       7.00147511       2.73989044      12.26836106
Si       9.27889857       2.92274172      12.80531021
Si       5.69199327       1.31234901       1.51278706
16
Lattice="6.36935197685907 0.5897474598349866 1.6703209473981573 2.7427493874321525 4.370676552672157 0.9617531075893614 6.247928601274306 1.9027788601106694 14.212337433452408" Properties=species:S:1:pos:R:3 unique_starting_index=3 config_type=initial n_minim_iter=15 stress="0.0028361131675038944 -0.0009454190398580601 0.0010834427278020372 -0.0009454190398580601 0.002733407038118034 -0.00030526419852039145 0.0010834427278020372 -0.00030526419852039145 0.00037657212839727104" pbc="T T T"
Si       8.78567198       5.32466973       8.71991026
Si       9.66034337       3.04427685      15.13348902
Si       2.37602510       2.97456319       4.12475506
Si       6.10095858       3.24944160       2.86142107
Si       8.46180054       1.36279851       6.81017260
Si       9.89416176       3.31043206       9.37697351
Si       4.68030667       3.16423645       4.71444274
Si       8.39974082       3.45586001       3.49520077
Si       6.22295282       1.92667285      10.16457401
Si       8.37972440       1.62003686       9.21158485
Si      10.85343878       4.04851390      11.40082360
Si       4.64684973       0.99882320       5.77146401
Si       7.13545002       4.92423710      11.52028162
Si       7.07721250       2.71649344      12.27657036
Si       9.36393009       2.88411908      12.82556061
Si       5.71448433       1.30861962       1.53442005
16
Lattice="6.359789196706471 0.5944804295441903 1.6701616786679072 2.7436403517964814 4.359453706032421 0.9591459856671795 6.237346455698056 1.894065060634961 14.224136763501418" Properties=species:S:1:pos:R:3 unique_starting_index=3 config_type=initial n_minim_iter=16 stress="0.0007109278914494661 -0.00030350801075014884 0.00018377953552505764 -0.00030350801075014884 7.927458305058374e-05 0.00030533477401860717 0.00018377953552505764 0.00030533477401860717 0.0005537473772252742" pbc="T T T"
Si       8.78061492       5.30064252       8.73193275
Si       9.64812451       3.05216518      15.15103431
Si       2.37394196       2.96635884       4.13362402
Si       6.10038642       3.26274265       2.85255795
Si       8.44434661       1.36207048       6.82053619
Si       9.89421003       3.29405838       9.39955145
Si       4.66827974       3.16715332       4.70979710
Si       8.38498112       3.46934328       3.49211874
Si       6.21806134       1.91556032      10.18521494
Si       8.35906318       1.61367492       9.21778914
Si      10.83785500       4.04118944      11.42584747
Si       4.64405571       1.01286891       5.77839969
Si       7.11726164       4.87677780      11.47294259
Si       7.07024285       2.70464690      12.28009699
Si       9.35010246       2.85934237      12.83185228
Si       5.70598727       1.31808281       1.53268849
16
Lattice="6.356008871653815 0.5986083013176017 1.6731709657668086 2.747580887962989 4.355386015825157 0.9522373625697472 6.246701708766064 1.873371398013447 14.211527877582194" Properties=species:S:1:pos:R:3 unique_starting_index=3 config_type=initial n_minim_iter=17 stress="-0.0015047044205411312 0.0005128558723029436 -0.00040781841594294513 0.0005128558723029436 -0.0010835579622025633 6.811646357571453e-05 -0.00040781841594294513 6.811646357571453e-05 -0.0005176899988288383" pbc="T T T"
Si       8.79656643       5.27288999       8.72878698
Si       9.65954402       3.04689481      15.14607064
Si       2.37406478       2.95944675       4.13652829
Si       6.10786302       3.28137945       2.84681908
Si       8.44331924       1.36043685       6.82831040
Si       9.90979601       3.26952701       9.40985669
Si       4.66066957       3.17349542       4.70297341
Si       8.37738986       3.48883433       3.48761646
Si       6.22702947       1.89716043      10.19014974
Si       8.35433046       1.60143538       9.20798585
Si      10.84613191       4.02447983      11.43384779
Si       4.65085877       1.02480561       5.77866913
Si       7.11382885       4.82444426      11.38781011
Si       7.08114691       2.68895344      12.26352976
Si       9.35756889       2.81989389      12.81817182
Si       5.70289585       1.33120749       1.53363969
16
Lattice="6.370556604280101 0.5892518295930729 1.684106834800539 2.751041952873521 4.350759520516903 0.9462980177974153 6.286565944884228 1.8342993236215814 14.206449499821504" Properties=species:S:1:pos:R:3 unique_starting_index=3 config_type=initial n_minim_iter=18 stress="-0.0007734247658442789 0.0003409529185745447 -0.00032111399493318953 0.0003409529185745447 -0.000521039861350104 -0.00043539818110788204 -0.00032111399493318953 -0.00043539818110788204 -0.0004294357445337005" pbc="T T T"
Si       8.84545297       5.21989245       8.73119503
Si       9.70719828       3.00100511      15.14947551
Si       2.36956430       2.94917330       4.14293092
Si       6.12235134       3.29250738       2.86454190
Si       8.48443145       1.35027668       6.84682713
Si       9.95202550       3.21645641       9.42254397
Si       4.66131224       3.17714319       4.71731784
Si       8.39204522       3.49343030       3.49690918
Si       6.25298074       1.85872351      10.19909020
Si       8.38466579       1.56677961       9.20550943
Si      10.89967303       3.97921385      11.44049489
Si       4.66938815       1.02727623       5.79291809
Si       7.13248349       4.77413457      11.27773923
Si       7.11687245       2.66241998      12.26286903
Si       9.40719993       2.74508263      12.81913402
Si       5.71581855       1.34314847       1.54577089
16
Lattice="6.375491612304728 0.5834222559096348 1.6903924534164587 2.7485694768638345 4.355008893582264 0.9507518440857387 6.303488032897725 1.8369520169499531 14.204204085593442" Properties=species:S:1:pos:R:3 unique_starting_index=3 config_type=initial n_minim_iter=19 stress="0.00010013008399239906 -0.00012017195421300538 9.25555055342472e-05 -0.00012017195421300538 -0.00017920249079981612 -0.00021173686986528993 9.25555055342472e-05 -0.00021173686986528993 -0.00017239716679610533" pbc="T T T"
Si       8.86369101       5.21254587       8.73379293
Si       9.72319271       2.98910411      15.15037744
Si       2.36422689       2.95473886       4.14611434
Si       6.11863535       3.29329533       2.88991021
Si       8.50882751       1.35509427       6.85013909
Si       9.96086201       3.20760021       9.42043468
Si       4.65851032       3.18679395       4.73861589
Si       8.40049128       3.49076830       3.51012782
Si       6.26102500       1.85520606      10.19844142
Si       8.39871419       1.55950533       9.21026385
Si      10.92206182       3.97454909      11.43177884
Si       4.67221466       1.03014664       5.80424225
Si       7.14157160       4.78892313      11.24513226
Si       7.12805731       2.67499552      12.26604512
Si       9.42934380       2.73315484      12.82330247
Si       5.71896187       1.34870324       1.55814400
16
Lattice="6.370123687859454 0.584373714447777 1.6891504708528695 2.7455189557015576 4.361615720420235 0.9531644018353816 6.293741191280387 1.848430752195013 14.208012910368701" Properties=species:S:1:pos:R:3 unique_starting_index=3 config_type=initial n_minim_iter=20 stress="0.0007112108103706277 -0.00017380091458331676 0.0002664312880448695 -0.00017380091458331676 0.0009618174663698199 0.00028210833164919237 0.0002664312880448695 0.00028210833164919237 0.0005413257388008456" pbc="T T T"
Si       8.85601297       5.21253797       8.74035985
Si       9.70820157       2.99704415      15.14758891
Si       2.35345235       2.96851755       4.14847538
Si       6.10255253       3.30200978       2.90721767
Si       8.51197579       1.36994264       6.84563021
Si       9.95334224       3.20737352       9.41621518
Si       4.65209375       3.20070994       4.74851221
Si       8.39859420       3.49764936       3.51595904
Si       6.25299771       1.85352218      10.20320006
Si       8.38846294       1.55802087       9.22207507
Si      10.91031153       3.98616045      11.42694841
Si       4.66108668       1.04335994       5.81886358
Si       7.12648584       4.80484193      11.20308214
Si       7.11950741       2.69470683      12.27534087
Si       9.42458251       2.73103249      12.82716899
Si       5.71219892       1.36495939       1.56427225
16
Lattice="6.362718793024741 0.5834031193869584 1.6800949045493496 2.742081271578673 4.361179652501902 0.9462313600124153 6.273684971326681 1.8397253529986677 14.183284589188636" Properties=species:S:1:pos:R:3 unique_starting_index=3 config_type=initial n_minim_iter=21 stress="-0.0009592631183331932 -2.1451414440425133e-05 -7.92544350421127e-05 -2.1451414440425133e-05 -0.0007150626925705909 0.00018988514746982353 -7.92544350421127e-05 0.00018988514746982353 -0.0008884009785401772" pbc="T T T"
Si       8.83535931       5.20836683       8.71699704
Si       9.68293803       2.97539407      15.11727589
Si       2.34846730       2.97781357       4.13712363
Si       6.08905476       3.28873404       2.91043638
Si       8.50880919       1.37221934       6.82460283
Si       9.93181331       3.20334402       9.37406793
Si       4.64534536       3.19256595       4.74527925
Si       8.39291807       3.48377747       3.49637536
Si       6.24994326       1.84745982      10.17855381
Si       8.37102397       1.55167610       9.20699194
Si      10.88146022       3.97036111      11.38548328
Si       4.64354969       1.03598556       5.81235546
Si       7.10823955       4.79572075      11.19282552
Si       7.10379399       2.71033107      12.24836292
Si       9.40204811       2.73813778      12.79067187
Si       5.69939896       1.36227644       1.56460132
