10
Lattice="7.739757854757417 -0.37372949131479316 -0.02629696025032747 -3.849335911033422 4.769146210244396 1.0479297136215224 -1.9676356942658313 -1.2060261134242756 5.773578613281422" Properties=species:S:1:pos:R:3 unique_starting_index=21 config_type=initial n_minim_iter=1 energy=-1625.5411335183599 free_energy=-1625.5411335183599 pbc="T T T"
Si       2.40336356       0.13978529       6.20653822
Si      -0.23842371       0.48999777       3.77085246
Si      -0.48638125       2.25086041       2.28600003
Si       1.07118975       4.16937238       2.61209474
Si       1.87641324       1.22204636       3.03594344
Si      -1.72235427       3.05075810       5.83343789
Si       3.10542367       3.22605900       3.11525835
Si      -3.01792698       1.08751743       5.83217994
Si       0.05933847       0.94159912       6.18851205
Si      -0.90837282       3.94563879       3.85718745
10
Lattice="7.781501512305801 -0.5000011766712862 -0.035160694320394065 -3.949352455986926 4.761972251565671 1.0768053157651425 -1.9617756615563313 -1.1411776492146188 5.855119474529079" Properties=species:S:1:pos:R:3 unique_starting_index=21 config_type=initial n_minim_iter=2 stress="-0.0008497467451789706 -0.006282719123338467 0.0017079117238549193 -0.006282719123338467 -0.004854495984928046 -0.002301698784195923 0.0017079117238549193 -0.002301698784195923 0.0036544742492797917" pbc="T T T"
Si       2.39951465       0.12473930       6.28551913
Si      -0.25041833       0.48248442       3.83895264
Si      -0.53763395       2.23979848       2.32418250
Si       0.99926786       4.08674348       2.67003377
Si       1.86254170       1.18698988       3.05752433
Si      -1.77377062       3.02510386       5.92850816
Si       3.06301099       3.12934779       3.16049146
Si      -3.05426345       1.13176347       5.91938389
Si       0.03142901       0.94256269       6.28549198
Si      -0.98041264       3.90519595       3.91750578
10
Lattice="7.894885861611411 -0.4586615268687871 -0.14740744298646874 -3.9952355754088664 4.756151289458704 1.2280603562727777 -2.075645572606992 -1.0375017770224304 5.891205322298096" Properties=species:S:1:pos:R:3 unique_starting_index=21 config_type=initial n_minim_iter=3 stress="0.012805496240915844 -0.0009112846758599597 -0.0006078598983803947 -0.0009112846758599597 0.008144745214761 0.0023212940391828035 -0.0006078598983803947 0.0023212940391828035 0.012345682968846364" pbc="T T T"
Si       2.33309916       0.29824739       6.26880105
Si      -0.29581067       0.52218105       3.91005639
Si      -0.59179532       2.30944056       2.38741869
Si       0.99660244       4.12877580       2.79160418
Si       1.85530395       1.26776405       3.00331031
Si      -1.80791231       3.08046815       6.05196548
Si       3.08849171       3.21847922       3.18970902
Si      -3.17219977       1.21005661       6.01930617
Si      -0.06522563       1.07412644       6.36047282
Si      -1.01832797       3.96685346       4.02105191
10
Lattice="7.839790349255343 -0.4155414569786085 -0.2475466441470617 -3.958444697455626 4.673743402323678 1.3331119127385034 -2.1385591905031407 -0.9390927012981747 5.81678765922799" Properties=species:S:1:pos:R:3 unique_starting_index=21 config_type=initial n_minim_iter=4 stress="-0.0013276998738229822 0.0018678935126273122 -0.0032932801438795537 0.0018678935126273122 -0.006361477500478249 0.005641777874813569 -0.0032932801438795537 0.005641777874813569 -0.004365073317178852" pbc="T T T"
Si       2.22282175       0.43990755       6.13084035
Si      -0.32918551       0.53775743       3.90353168
Si      -0.63555237       2.33533339       2.39954293
Si       0.96836434       4.09648268       2.84735467
Si       1.80928513       1.31255049       2.88080022
Si      -1.79205443       3.06352839       6.04509584
Si       3.04905820       3.24435113       3.14866696
Si      -3.21918477       1.24649132       5.99694122
Si      -0.15803626       1.16559854       6.31283844
Si      -1.03293532       3.95055097       4.02990516
10
Lattice="7.823256290232551 -0.43399297879418114 -0.2149173950881407 -3.9555836415888077 4.710451802706631 1.279286922925902 -2.1097916157264036 -0.9951748612811049 5.833522048992446" Properties=species:S:1:pos:R:3 unique_starting_index=21 config_type=initial n_minim_iter=5 stress="-0.00010671648026045227 0.0016560794542225768 -0.001352154092914974 0.0016560794542225768 0.003608819587520394 -0.00023017149825335312 -0.001352154092914974 -0.00023017149825335312 -0.0005682794296069379" pbc="T T T"
Si       2.23378859       0.39708645       6.13456226
Si      -0.30404471       0.49142104       3.92117645
Si      -0.64836881       2.34670089       2.39061582
Si       0.96073733       4.10751922       2.84302567
Si       1.80519868       1.29698844       2.84495356
Si      -1.73834546       3.02011546       6.03599055
Si       3.05313814       3.24562584       3.13691686
Si      -3.19575135       1.19978434       5.98966656
Si      -0.14582286       1.12459727       6.33037079
Si      -1.02185026       3.94870176       3.99829084
10
Lattice="7.875822270130712 -0.5015221433533342 -0.08081842158506544 -4.006098891673534 4.697816326936775 1.1888095744132994 -2.0132276106305014 -1.0107460290273373 5.8699984521564295" Properties=species:S:1:pos:R:3 unique_starting_index=21 config_type=initial n_minim_iter=6 stress="0.0035131926288396844 -0.001857870420417384 0.004253821131406089 -0.001857870420417384 0.002070571424422797 -0.002841949244296872 0.004253821131406089 -0.002841949244296872 0.0047746490260525175" pbc="T T T"
Si       2.34946758       0.31886668       6.20190981
Si      -0.20906554       0.44885208       3.95225074
Si      -0.66729080       2.30322756       2.41748951
Si       0.96439812       4.08143213       2.88007514
Si       1.82288396       1.24409920       2.83879053
Si      -1.61574268       2.95174236       6.07338168
Si       3.10789640       3.17620711       3.19697214
Si      -3.13236784       1.16150620       5.98681014
Si      -0.05765704       1.07471607       6.39970891
Si      -1.01162148       3.90298199       4.00930888
10
Lattice="7.80392366835824 -0.5161571249311626 -0.1486155313312575 -3.9873421808852716 4.721320351191393 1.2066578577739095 -2.0440341222579788 -1.0268690842062658 5.866280857810589" Properties=species:S:1:pos:R:3 unique_starting_index=21 config_type=initial n_minim_iter=7 stress="-0.0010064479409303854 0.000536943641929668 0.0013134626622833608 0.000536943641929668 -0.0007314240510735321 -0.000662124071408802 0.0013134626622833608 -0.000662124071408802 -0.0014097389092218137" pbc="T T T"
Si       2.28147872       0.26782658       6.12551361
Si      -0.20534072       0.44558750       3.91205276
Si      -0.71298363       2.26659139       2.43492274
Si       0.92517518       4.14640006       2.84995401
Si       1.74508027       1.22769817       2.77495747
Si      -1.61672524       2.95772736       6.07749471
Si       3.03786298       3.17789040       3.14646541
Si      -3.15488935       1.15784072       5.99374324
Si      -0.10984236       1.05984715       6.36492813
Si      -1.07413466       3.92943252       4.02648360
10
Lattice="7.813995959322741 -0.5388126075188523 -0.22133372582806599 -4.015677358941176 4.726601432528779 1.2728778387888853 -2.095123987101075 -0.9834992547696635 5.8932018835364" Properties=species:S:1:pos:R:3 unique_starting_index=21 config_type=initial n_minim_iter=8 stress="0.0001376459346385887 0.0006145713129925806 -0.0011454058572061105 0.0006145713129925806 -0.0014949443037120009 0.0018818028843283964 -0.0011454058572061105 0.0018818028843283964 -0.0008552627489102948" pbc="T T T"
Si       2.22093563       0.30640333       6.10742755
Si      -0.23160005       0.45577009       3.93803313
Si      -0.76057783       2.28112004       2.46757302
Si       0.88558416       4.15671461       2.89163009
Si       1.71437629       1.23999438       2.73659603
Si      -1.65046549       2.96841992       6.13052279
Si       2.99609088       3.18203470       3.14014180
Si      -3.20929876       1.19612550       6.05195150
Si      -0.17274760       1.09617379       6.39174747
Si      -1.12539800       3.94655273       4.07264217
10
Lattice="7.784109679345753 -0.5808405523181226 -0.2463934913675752 -4.027855972838484 4.774111801646045 1.2592035272223951 -2.1013025215416166 -1.0197651605130154 5.928403451679275" Properties=species:S:1:pos:R:3 unique_starting_index=21 config_type=initial n_minim_iter=9 stress="-0.00018157213865789285 -0.002531597525667919 -0.0027523223544162726 -0.002531597525667919 0.0030761872171800185 -0.001364548060853721 -0.0027523223544162726 -0.001364548060853721 0.0029624899307579854" pbc="T T T"
Si       2.18732565       0.24738815       6.11535259
Si      -0.23896654       0.43950000       3.94600974
Si      -0.78855308       2.27457185       2.47410000
Si       0.84850275       4.18282857       2.87333127
Si       1.69387615       1.21974194       2.72958750
Si      -1.67811854       2.95783360       6.13389297
Si       2.92207316       3.16173127       3.11128142
Si      -3.20369370       1.19799988       6.10093163
Si      -0.17707121       1.04862969       6.38074219
Si      -1.16327157       3.95960979       4.07302456
10
Lattice="7.8097109512818275 -0.5249821672603218 -0.11573307670733475 -3.9913407425076146 4.720381699035395 1.1804006471418678 -2.0201345171445446 -1.0381205909202569 5.869200300425184" Properties=species:S:1:pos:R:3 unique_starting_index=21 config_type=initial n_minim_iter=10 stress="-0.0040327699064925246 0.0006986349078057738 0.0008752383850420369 0.0006986349078057738 -0.0005986102374985411 -0.001957678149744896 0.0008752383850420369 -0.001957678149744896 -0.0037181781153477612" pbc="T T T"
Si       2.29465985       0.24682803       6.09781717
Si      -0.14627914       0.42044242       3.92564630
Si      -0.77356206       2.24620304       2.48153824
Si       0.91282224       4.20279367       2.89758731
Si       1.74686638       1.21580189       2.69242372
Si      -1.51584562       2.90145680       6.07930246
Si       2.95958900       3.16081914       3.12757383
Si      -3.08413173       1.17423593       6.06111833
Si      -0.04028281       1.01629314       6.31866401
Si      -1.08415121       3.93123403       4.04259134
10
Lattice="7.94532226407252 -0.5286967800939183 -0.08790720430927852 -4.058452573200887 4.69339455284533 1.2270236462522497 -2.0295608238351366 -0.9642508752438337 5.912332860893955" Properties=species:S:1:pos:R:3 unique_starting_index=21 config_type=initial n_minim_iter=11 stress="0.004236806329436691 0.0006513005443008426 2.036541982538714e-05 0.0006513005443008426 0.0005899473059180596 0.0022394171216260396 2.036541982538714e-05 0.0022394171216260396 0.002661615202054813" pbc="T T T"
Si       2.37859361       0.30459390       6.17130879
Si      -0.13139330       0.44959402       3.95520427
Si      -0.78949147       2.25246399       2.55279349
Si       0.92211691       4.21185358       2.98889014
Si       1.78698089       1.22557354       2.73078925
Si      -1.50478536       2.93969118       6.16778074
Si       2.98702190       3.16648940       3.20600401
Si      -3.10194936       1.24202851       6.15826841
Si       0.00742561       1.06079404       6.37218400
Si      -1.08777875       3.93908445       4.12423411
10
Lattice="8.017122458001536 -0.5480551855701473 -0.0411096106309519 -4.100703620419592 4.673824134797729 1.2257577159441906 -2.0082367624454394 -0.9318618689629199 5.93813967222669" Properties=species:S:1:pos:R:3 unique_starting_index=21 config_type=initial n_minim_iter=12 stress="0.003440712507751072 -0.00045197445052877396 0.000985614042128223 -0.00045197445052877396 0.0011907671561290723 0.00033069407969447013 0.000985614042128223 0.00033069407969447013 0.0032294828064574482" pbc="T T T"
Si       2.47976248       0.32272270       6.21339578
Si      -0.10983557       0.42636324       3.95100728
Si      -0.81190890       2.26003795       2.61477128
Si       0.90155782       4.20977557       3.05749419
Si       1.80654864       1.20798744       2.72847791
Si      -1.44944679       2.93601626       6.21324716
Si       2.96318200       3.16379745       3.25409476
Si      -3.08438164       1.27318441       6.24853001
Si       0.07634285       1.05361597       6.38227057
Si      -1.07759401       3.92243149       4.15238240
10
Lattice="8.035304807196816 -0.5571749124685988 -0.046477149795965116 -4.1164705853876375 4.66481012171637 1.2426568564865794 -2.0143305601418984 -0.9094572932199267 5.946876444091458" Properties=species:S:1:pos:R:3 unique_starting_index=21 config_type=initial n_minim_iter=13 stress="0.0011135391186923157 -0.0001425047009546727 -0.00010695776271993058 -0.0001425047009546727 0.0006333485942180336 0.0002404117171956786 -0.00010695776271993058 0.0002404117171956786 0.0011094742694481986" pbc="T T T"
Si       2.51633344       0.33915259       6.21396787
Si      -0.11553084       0.41171035       3.93177292
Si      -0.83059541       2.26670048       2.65118037
Si       0.87505646       4.21413814       3.08844059
Si       1.79808063       1.19726739       2.71414310
Si      -1.43381609       2.94436655       6.23513708
Si       2.92457069       3.17050463       3.26632617
Si      -3.09094324       1.29616506       6.30522718
Si       0.09263354       1.05398207       6.37193931
Si      -1.08803362       3.92049904       4.17180689
10
Lattice="8.034798712565664 -0.5764798473876326 -0.034586967840425024 -4.126912166638272 4.6568587178511915 1.2356681255206308 -2.0019804753714636 -0.9026749215776408 5.951627090786826" Properties=species:S:1:pos:R:3 unique_starting_index=21 config_type=initial n_minim_iter=14 stress="-0.0019720176963600048 0.00015624339272114993 -0.0005945522804076202 0.00015624339272114993 0.00027713420268431205 -0.0007273822588579089 -0.0005945522804076202 -0.0007273822588579089 -0.001497557278155305" pbc="T T T"
Si       2.56117345       0.33606574       6.20913158
Si      -0.11042174       0.37893377       3.90856452
Si      -0.84662396       2.26202024       2.67578602
Si       0.84958437       4.21027691       3.10456556
Si       1.78036516       1.17200160       2.68564911
Si      -1.39202852       2.93527231       6.24669863
Si       2.88107372       3.16293317       3.26867054
Si      -3.07630003       1.30179562       6.34801602
Si       0.11802175       1.03579698       6.35743188
Si      -1.10762522       3.91551855       4.19081338
10
Lattice="8.091743085144472 -0.5760449137868694 0.026809317617692598 -4.148380893046043 4.621988680031984 1.222510033518297 -1.9693709309215748 -0.8746290657133028 5.951720449419385" Properties=species:S:1:pos:R:3 unique_starting_index=21 config_type=initial n_minim_iter=15 stress="0.0008065813452955842 0.00040849213972820236 -0.00027766658524836505 0.00040849213972820236 -0.001607504708935164 0.0016486858390221768 -0.00027766658524836505 0.0016486858390221768 -0.00021596436408963485" pbc="T T T"
Si       2.64089268       0.37185411       6.25380187
Si      -0.09665089       0.36921514       3.92076797
Si      -0.82315594       2.25497530       2.68483125
Si       0.87408183       4.17523624       3.12911181
Si       1.80652701       1.16149697       2.69965399
Si      -1.33834477       2.93218399       6.26723399
Si       2.90688753       3.13825555       3.29919031
Si      -3.03029134       1.31779474       6.36144511
Si       0.17826673       1.04056261       6.37003749
Si      -1.10625798       3.90832861       4.23413010
10
Lattice="8.086106521255411 -0.5919329755568471 0.051332104614683564 -4.152023464358071 4.62426483979465 1.1971845465719877 -1.947794901255623 -0.8878901623472696 5.956015537080262" Properties=species:S:1:pos:R:3 unique_starting_index=21 config_type=initial n_minim_iter=16 stress="0.0011140314417144163 -0.0015673118689789546 0.0005565534572355578 -0.0015673118689789546 0.0008672742083227034 -0.0010470664006062204 0.0005565534572355578 -0.0010470664006062204 0.0024429214023698456" pbc="T T T"
Si       2.66487383       0.37369071       6.27213447
Si      -0.10370530       0.33762464       3.93009548
Si      -0.80425223       2.25879396       2.67680118
Si       0.86479177       4.14623311       3.11418380
Si       1.79562762       1.14884437       2.68965934
Si      -1.30891563       2.91414572       6.27341181
Si       2.91326075       3.11783025       3.29262720
Si      -3.00503889       1.29950742       6.34883393
Si       0.19092250       1.02311765       6.37895116
Si      -1.11109028       3.90164071       4.23395476
10
Lattice="8.082258029173357 -0.5340390440868035 0.10104060030582435 -4.109229260149087 4.594920082247791 1.165774345078466 -1.919615280823613 -0.9020196175155156 5.904195396630971" Properties=species:S:1:pos:R:3 unique_starting_index=21 config_type=initial n_minim_iter=17 stress="-0.0014129021409005646 8.9268250612145e-05 0.00097926005512513 8.9268250612145e-05 -0.0006559715220115543 -0.0009476457340319292 0.00097926005512513 -0.0009476457340319292 -0.0012859079265962429" pbc="T T T"
Si       2.73043593       0.42343413       6.27165324
Si      -0.11900800       0.31576362       3.89805922
Si      -0.73218211       2.26447580       2.66431408
Si       0.89219170       4.13202696       3.07399286
Si       1.80054826       1.15903837       2.69076988
Si      -1.24862040       2.91954106       6.24101863
Si       2.94473301       3.12570631       3.27618504
Si      -2.93598754       1.28559334       6.29258838
Si       0.25272886       1.01459298       6.31968204
Si      -1.06157595       3.89751374       4.20787456
10
Lattice="8.094905114809132 -0.5242704332585693 0.10694504859502713 -4.108874101178042 4.591181755333552 1.1678075931585508 -1.9197808985807983 -0.898397391925832 5.901939875337885" Properties=species:S:1:pos:R:3 unique_starting_index=21 config_type=initial n_minim_iter=18 stress="-0.0004529201833078355 0.00028482980899421326 0.00019675451610172426 0.00028482980899421326 0.0005247764921717651 -0.000479451914440239 0.00019675451610172426 -0.000479451914440239 -0.00043990619163846237" pbc="T T T"
Si       2.74810455       0.43885861       6.26679194
Si      -0.11407204       0.30752918       3.89469817
Si      -0.73403115       2.25999461       2.69053272
Si       0.88533675       4.15583434       3.08116663
Si       1.78429044       1.16257045       2.66505714
Si      -1.21099505       2.92043597       6.26240943
Si       2.92985059       3.12699196       3.26942795
Si      -2.91390107       1.29741037       6.31163293
Si       0.27682405       1.01035186       6.30056875
Si      -1.06371671       3.90582237       4.22197767
10
Lattice="8.103283153503595 -0.51642830675685 0.12218963392514172 -4.106677647875847 4.580475669804676 1.1630762471611975 -1.911576891236029 -0.8940619908117843 5.894474698174932" Properties=species:S:1:pos:R:3 unique_starting_index=21 config_type=initial n_minim_iter=19 stress="0.00010509016271586925 -0.00010078170544436015 -0.0003147864900113013 -0.00010078170544436015 0.000420672504176748 -2.5716507407475502e-05 -0.0003147864900113013 -2.5716507407475502e-05 0.000280971728787274" pbc="T T T"
Si       2.77176879       0.45838658       6.26739255
Si      -0.11315667       0.29527993       3.89249829
Si      -0.72355364       2.25172461       2.70514744
Si       0.88427365       4.16195097       3.07842555
Si       1.76737551       1.16449728       2.64543445
Si      -1.17172676       2.91779085       6.28088797
Si       2.92706532       3.11847296       3.26413616
Si      -2.88605563       1.30355305       6.31260633
Si       0.30280190       1.00560675       6.28371727
Si      -1.06385065       3.90771107       4.23359166
10
Lattice="8.132549921331327 -0.49307442561484005 0.17964534464548723 -4.100842276453013 4.545138687962732 1.1418127335914838 -1.8792970580405144 -0.8820720460168031 5.8710408669185465" Properties=species:S:1:pos:R:3 unique_starting_index=21 config_type=initial n_minim_iter=20 stress="0.0006834834605980859 6.0050683828091445e-05 -2.498109467610976e-06 6.0050683828091445e-05 -1.9268624434205494e-05 0.00040059730361942874 -2.498109467610976e-06 0.00040059730361942874 0.0004382529307636515" pbc="T T T"
Si       2.84623267       0.49934126       6.27411717
Si      -0.09590267       0.27118799       3.88441397
Si      -0.70514613       2.23052984       2.72160248
Si       0.90976221       4.16577602       3.08785014
Si       1.76041244       1.16908452       2.62160297
Si      -1.08416621       2.90511544       6.30198011
Si       2.93940312       3.10699781       3.27572526
Si      -2.82681110       1.31246216       6.30884987
Si       0.37580405       0.99741186       6.25120684
Si      -1.03877931       3.89711306       4.24286880
10
Lattice="8.116159133189901 -0.4682154300759587 0.21246838154518988 -4.074673367796991 4.5103610828276155 1.1225087370787485 -1.854485037298616 -0.8785222319760775 5.830560003198453" Properties=species:S:1:pos:R:3 unique_starting_index=21 config_type=initial n_minim_iter=21 stress="-0.0010460780676752293 -0.00014010527132652254 -0.0009034685853827637 -0.00014010527132652254 -0.0014085210137203214 0.0006680799809294448 -0.0009034685853827637 0.0006680799809294448 -0.0010201549007691356" pbc="T T T"
Si       2.88137594       0.55107004       6.25866133
Si      -0.10693080       0.23825490       3.87380789
Si      -0.68152604       2.20298498       2.69032285
Si       0.95203828       4.14902780       3.06683972
Si       1.75228534       1.18116894       2.61811903
Si      -1.04977041       2.89175944       6.28826071
Si       2.95921782       3.09357582       3.28012999
Si      -2.79540481       1.30932832       6.25798048
Si       0.41869851       0.98792092       6.20201374
Si      -1.01074112       3.87797402       4.22248156
