24
Lattice="5.774922368928498 -1.1858344500190303 0.9235705933104299 1.5499164474463585 8.797609346890333 -0.8405363336636728 2.4281889150947262 1.925500293621854 8.780938907132585" Properties=species:S:1:pos:R:3 unique_starting_index=94 config_type=initial n_minim_iter=16 energy=-3908.1865517156043 free_energy=-3908.1865517156043 pbc="T T T"
Si       8.03942131       7.10121776       8.41942263
Si       0.64459799       2.08237027       1.71435754
Si       1.76802348       7.44992752      -0.39453491
Si       6.38544330       8.98201479       5.84423606
Si       4.77131996       2.36166756       1.63210635
Si       5.08150530       3.99257862       9.19977791
Si       3.70128172       1.11403985       3.48680127
Si       2.87892379      -0.84977060       2.41367930
Si       7.86189124       0.80738826       5.91074736
Si       8.53313540       7.71281466       6.18453444
Si       4.88157991       5.92402975       7.62520834
Si       5.80191639       1.38778944       4.88630963
Si       4.28297465       6.28142495       3.24768353
Si       2.48713724       5.72105623       7.26901224
Si       5.20767334       3.58697412       5.20325297
Si       6.65028749       4.97331467       6.38237979
Si       4.07530428       2.07827932       8.04115784
Si       3.29692590       5.76434463       0.21301070
Si       7.87969067       4.51452450       3.25291159
Si       3.18866426       3.50119720       6.39776576
Si       7.12941332       6.55566567       4.61179784
Si       0.54813389      -0.20907946       2.42752480
Si       4.72791466       7.26292820       5.42414415
Si       5.47374012       4.25206278       2.95903157
