12
Lattice="5.619681089132953 0.5304784557081008 0.23017251865070634 2.421770079991517 5.032366533873467 1.9875172209303886 2.9384247290078944 4.474172858331977 10.824277480410021" Properties=species:S:1:pos:R:3 unique_starting_index=192 config_type=initial n_minim_iter=1 energy=-1952.6386302752758 free_energy=-1952.6386302752758 pbc="T T T"
Si       8.84093335       4.62553125      10.18234983
Si       4.50170515       6.48613447       3.69936639
Si       7.54886260       3.15473076       4.37084104
Si       9.36693190       7.90380860       8.67913979
Si       8.23338743       6.87958487      11.55819171
Si       4.85048160       5.19210825       8.71758937
Si       8.90871797       9.27118456      12.11086214
Si       2.64296416       4.88508936       3.64606163
Si       7.38816312       6.58359709       9.35184167
Si       5.57709833       4.33357740       3.61580441
Si       5.17207766       7.05481328      10.40895785
Si       3.86835658       3.02855909       2.54172290
12
Lattice="5.643280652504342 0.5634428094579278 0.1969195771161361 2.4511368129366837 5.027810592778165 1.9629086704843177 2.9158500178294218 4.461914356597815 10.781962436670605" Properties=species:S:1:pos:R:3 unique_starting_index=192 config_type=initial n_minim_iter=2 stress="0.0010051357646185123 0.0034272059540934904 -0.0028002972010522185 0.0034272059540934904 -0.002379246205424646 -7.339882784861769e-07 -0.0028002972010522185 -7.339882784861769e-07 -0.001039642273305059" pbc="T T T"
Si       8.84383686       4.64807940      10.11698899
Si       4.54158458       6.48740420       3.65654447
Si       7.57254205       3.18229109       4.31127510
Si       9.40402445       7.91773946       8.60329226
Si       8.24450107       6.89351121      11.47615514
Si       4.85129747       5.19750206       8.65589026
Si       8.92914847       9.27694708      12.02431313
Si       2.66213106       4.87967628       3.61968316
Si       7.40788903       6.59778176       9.28735357
Si       5.60542902       4.35004711       3.57070360
Si       5.17650714       7.04948727      10.35044584
Si       3.88207995       3.03791482       2.51410803
12
Lattice="5.649179593300898 0.5424364422931185 0.21048727424545896 2.4390328178741885 5.034685535184719 1.9625339699049973 2.9290580339694983 4.448267960188002 10.795961827099852" Properties=species:S:1:pos:R:3 unique_starting_index=192 config_type=initial n_minim_iter=3 stress="0.005274696915682325 0.0010041615945419408 -0.001932273599985497 0.0010041615945419408 0.0033976423557523124 -0.002089935327512601 -0.001932273599985497 -0.002089935327512601 0.0037958131415591167" pbc="T T T"
Si       8.85918156       4.60959611      10.16276598
Si       4.53697340       6.48996532       3.65825680
Si       7.58148350       3.15024362       4.32232199
Si       9.40750191       7.88449866       8.63194664
Si       8.26238542       6.87304608      11.49182279
Si       4.85511580       5.19099128       8.64744267
Si       8.92946665       9.25314835      12.04508664
Si       2.65424344       4.88133941       3.62912987
Si       7.42228291       6.58552084       9.31318151
Si       5.60556548       4.34027375       3.57984065
Si       5.18230705       7.04010336      10.36469643
Si       3.87091490       3.02598862       2.52900009
12
Lattice="5.614849050704133 0.5238733317277063 0.22983978430548338 2.4158918220336703 5.016689203908856 1.969042446628852 2.935487451192633 4.443346100755046 10.761310966123911" Properties=species:S:1:pos:R:3 unique_starting_index=192 config_type=initial n_minim_iter=4 stress="-0.0019327397149081266 -0.00033597717731750914 -0.0009797418470451672 -0.00033597717731750914 -0.002800181429690044 -0.0008800464338410015 -0.0009797418470451672 -0.0008800464338410015 -0.004591859603797622" pbc="T T T"
Si       8.82533680       4.58338311      10.16700794
Si       4.50825615       6.46502346       3.66310251
Si       7.54188157       3.11931756       4.32570400
Si       9.35862585       7.83770485       8.64091589
Si       8.23733932       6.85167251      11.46984246
Si       4.83698206       5.18055276       8.61173813
Si       8.88527310       9.21662426      12.03034053
Si       2.63515505       4.86565256       3.63413439
Si       7.39673204       6.56551844       9.31004842
Si       5.57254863       4.31838612       3.58671530
Si       5.16715773       7.02261517      10.34389536
Si       3.83884136       3.00646505       2.54087098
12
Lattice="5.603244964398949 0.5320136894787303 0.26609405010846715 2.426296352328147 5.0407197573924005 2.0285672741688114 2.9932309371608237 4.522951380549152 10.883050105995633" Properties=species:S:1:pos:R:3 unique_starting_index=192 config_type=initial n_minim_iter=5 stress="0.00020663169329033598 6.825285107508533e-05 0.0010502590890030653 6.825285107508533e-05 -0.0008759220766875885 0.0012664778509033615 0.0010502590890030653 0.0012664778509033615 0.0028216993606386253" pbc="T T T"
Si       8.86431193       4.66600644      10.33659456
Si       4.53193082       6.50404120       3.75003091
Si       7.54857501       3.15060877       4.41109057
Si       9.39541519       7.90709527       8.80964927
Si       8.29676390       6.95239197      11.63830650
Si       4.87489646       5.25097864       8.71070178
Si       8.93181121       9.31851516      12.21728977
Si       2.65136179       4.90371540       3.71532138
Si       7.44425982       6.65086826       9.46717061
Si       5.58529216       4.35645398       3.66948930
Si       5.22244141       7.11034353      10.49112607
Si       3.83849393       3.02755085       2.60778525
12
Lattice="5.590181345610171 0.5334814470498157 0.26719360122357105 2.4179169139349455 5.097005999142446 2.007564430668279 2.9898448581503123 4.557811361801764 10.79884631837057" Properties=species:S:1:pos:R:3 unique_starting_index=192 config_type=initial n_minim_iter=6 stress="0.0018337218297943209 -0.0012949857699089394 -0.0004099288344615072 -0.0012949857699089394 0.007042532215328137 -0.00010167040949787713 -0.0004099288344615072 -0.00010167040949787713 -0.0006200172748542899" pbc="T T T"
Si       8.84672796       4.70531127      10.28412516
Si       4.52892388       6.56969423       3.70340936
Si       7.52222288       3.15753747       4.37486551
Si       9.38147436       7.97709477       8.73999918
Si       8.29199459       7.02021366      11.54938612
Si       4.86048721       5.28503967       8.61771360
Si       8.89528222       9.41005752      12.10274080
Si       2.63700907       4.96496681       3.69831866
Si       7.43429350       6.71663156       9.40786211
Si       5.57147076       4.39841998       3.63437698
Si       5.21563132       7.18409986      10.40248183
Si       3.82529371       3.05112510       2.59951331
12
Lattice="5.568450755475114 0.5310459885853264 0.29291531427983186 2.4223186642673515 5.0327851048307375 1.9883227882718901 3.037199034497357 4.429114393672891 10.82414991862948" Properties=species:S:1:pos:R:3 unique_starting_index=192 config_type=initial n_minim_iter=7 stress="-0.0011156842826017118 7.766208581921956e-05 -0.00031295693155695547 7.766208581921956e-05 0.0006060719124519084 -0.004016680814553065 -0.00031295693155695547 -0.004016680814553065 0.0024305680085687084" pbc="T T T"
Si       8.86768069       4.60118109      10.36541614
Si       4.54901794       6.46879250       3.66879117
Si       7.49665580       3.07060859       4.40394907
Si       9.40953149       7.83600858       8.75655595
Si       8.34505214       6.87772161      11.59976662
Si       4.87786562       5.13842319       8.60969853
Si       8.90405289       9.24202044      12.09248138
Si       2.63574327       4.90255533       3.71706075
Si       7.46524552       6.58519217       9.45425900
Si       5.56827194       4.32834574       3.63362150
Si       5.26104121       7.05211622      10.40539382
Si       3.82750710       2.99763875       2.62714588
12
Lattice="5.600660056119888 0.5297141907013427 0.3125531532237918 2.440441591358829 5.0317176345794445 2.027654885554628 3.084006811127449 4.497629555351594 10.832234007541736" Properties=species:S:1:pos:R:3 unique_starting_index=192 config_type=initial n_minim_iter=8 stress="0.0016424456771981396 0.0007605713562187444 0.00031199211424752873 0.0007605713562187444 -0.0011750337469656035 0.0005751350674539331 0.00031199211424752873 0.0005751350674539331 -0.00137377542970216" pbc="T T T"
Si       8.94657975       4.67311507      10.40543253
Si       4.59091850       6.47275744       3.70593034
Si       7.53937396       3.08047806       4.43363070
Si       9.49496382       7.87785633       8.81074607
Si       8.43463936       6.94597449      11.65073837
Si       4.91930668       5.16788446       8.62650539
Si       8.97741588       9.31446188      12.13595012
Si       2.64978610       4.92045329       3.76742716
Si       7.53863601       6.63402530       9.50671583
Si       5.61018382       4.33753819       3.66358564
Si       5.32150243       7.11799408      10.43540371
Si       3.85779627       3.00501123       2.66271486
12
Lattice="5.5390218144302645 0.5145935486315608 0.30698448097934006 2.395589955588068 5.045241710130819 2.0643385178155786 3.0196776067643447 4.560905607201678 10.914322336445222" Properties=species:S:1:pos:R:3 unique_starting_index=192 config_type=initial n_minim_iter=9 stress="-0.004612635172804168 -0.0014092006121214566 -0.0016721293385397384 -0.0014092006121214566 -5.267486112915728e-07 0.0033807106854642673 -0.0016721293385397384 0.0033807106854642673 0.0005642811269115191" pbc="T T T"
Si       8.81431687       4.72463957      10.49653921
Si       4.52908200       6.49344010       3.73213523
Si       7.42128559       3.07498632       4.44945574
Si       9.37303643       7.91243398       8.88328825
Si       8.32008584       7.00240092      11.76030226
Si       4.80968878       5.18651898       8.68080620
Si       8.83329690       9.40237142      12.22709626
Si       2.57952625       4.94326774       3.84798409
Si       7.44189403       6.67878513       9.60376432
Si       5.54027086       4.33599431       3.67960602
Si       5.23046080       7.19585283      10.51087557
Si       3.79896131       3.01261157       2.70663564
12
Lattice="5.575551992688312 0.5285575138214623 0.37201355700081773 2.4496454881230454 5.019189854989251 2.0557840048795 3.183627250489286 4.481089506959851 10.89132717395388" Properties=species:S:1:pos:R:3 unique_starting_index=192 config_type=initial n_minim_iter=10 stress="0.0004940962348591683 -0.0004932482226238235 0.0019469018864162791 -0.0004932482226238235 -0.00029818737403058113 0.0013847529450632793 0.0019469018864162791 0.0013847529450632793 0.0005613569835196081" pbc="T T T"
Si       8.99407294       4.67343136      10.58986240
Si       4.64450324       6.46258711       3.69072687
Si       7.49179208       3.03690564       4.48414138
Si       9.59108289       7.84357689       8.91157345
Si       8.55635793       6.92297967      11.81796238
Si       4.89849706       5.08826644       8.65407258
Si       9.07037235       9.36343214      12.22594283
Si       2.61950503       4.89589887       3.89845598
Si       7.66379900       6.61746121       9.65993525
Si       5.64866202       4.29188835       3.66693465
Si       5.41858399       7.14902149      10.46991355
Si       3.84429546       2.99392716       2.75610643
12
Lattice="5.5736463598456245 0.5366813843805561 0.3418033841018771 2.448697617966568 5.008266011752336 2.000806296207317 3.141338311785314 4.396321831285157 10.832078237640737" Properties=species:S:1:pos:R:3 unique_starting_index=192 config_type=initial n_minim_iter=11 stress="0.0009512863095037576 0.00031288811134427206 -0.0020850936066885498 0.00031288811134427206 0.00030124802651831223 -0.0021576366298889605 -0.0020850936066885498 -0.0021576366298889605 -0.0005875953268383018" pbc="T T T"
Si       8.94509392       4.59106621      10.52334953
Si       4.64409373       6.44686450       3.58981103
Si       7.46274324       3.00924278       4.41117627
Si       9.57510496       7.78394107       8.78465463
Si       8.51813233       6.83409536      11.73568351
Si       4.83539651       5.01434829       8.59029607
Si       9.04533883       9.31271160      12.09686292
Si       2.59369552       4.86052245       3.86724149
Si       7.66072993       6.55862235       9.57516984
Si       5.64946110       4.26805652       3.57173382
Si       5.38524862       7.08532719      10.36463466
Si       3.81992594       2.98175325       2.71284279
12
Lattice="5.536322850225313 0.5564093335971909 0.3857569306602663 2.462437892171413 5.033770883516396 2.0247101018571905 3.217659676229829 4.415299287980943 10.898943105754594" Properties=species:S:1:pos:R:3 unique_starting_index=192 config_type=initial n_minim_iter=12 stress="5.805767916409846e-05 0.0007505580449967679 0.001447040202078114 0.0007505580449967679 0.001860333142311449 -0.0007156590410793311 0.001447040202078114 -0.0007156590410793311 -0.0005687664942034506" pbc="T T T"
Si       8.97458440       4.60761296      10.68300204
Si       4.66542332       6.48087789       3.59516811
Si       7.43790471       3.01586458       4.47488001
Si       9.61258948       7.82626406       8.86975689
Si       8.58485002       6.87786774      11.88774316
Si       4.84538520       5.02068048       8.67116543
Si       9.10141162       9.41430103      12.18787575
Si       2.60211454       4.88714081       3.93371142
Si       7.74936340       6.62211205       9.69565046
Si       5.65866431       4.30795022       3.57579421
Si       5.45908594       7.13266212      10.43155835
Si       3.79114310       3.00119076       2.75057628
12
Lattice="5.536417623584578 0.541466169569277 0.3677425929570011 2.444532912654365 5.01224218575996 2.030214753118957 3.170507092180671 4.405098382178539 10.937270188582062" Properties=species:S:1:pos:R:3 unique_starting_index=192 config_type=initial n_minim_iter=13 stress="0.00014264191231974977 0.0004476247282341384 0.00028939004944691547 0.0004476247282341384 0.0003943457121824696 0.0002154027880844357 0.00028939004944691547 0.0002154027880844357 -0.00043979726219937947" pbc="T T T"
Si       8.93247031       4.57463921      10.69821492
Si       4.63171358       6.44895762       3.59870453
Si       7.42336331       2.99264843       4.47543629
Si       9.56580764       7.78759352       8.87308037
Si       8.52703353       6.84534478      11.92355354
Si       4.80886419       5.00232907       8.72029077
Si       9.04004551       9.37836804      12.21164746
Si       2.58115660       4.87030028       3.93833728
Si       7.70803256       6.59533690       9.71687696
Si       5.63826364       4.29132222       3.56504900
Si       5.40789441       7.09810611      10.46544997
Si       3.77358195       2.98300440       2.74016804
12
Lattice="5.524534566212779 0.5013967424713246 0.355198860084946 2.403651192298545 4.956408570186701 2.047626905990758 3.108420967050336 4.356650069920296 11.044290571596544" Properties=species:S:1:pos:R:3 unique_starting_index=192 config_type=initial n_minim_iter=14 stress="-2.669679968838065e-05 -0.0005281269597838461 -0.0013327302217513814 -0.0005281269597838461 -0.0015545214669633978 0.0006836390662797742 -0.0013327302217513814 0.0006836390662797742 0.0012781514505792874" pbc="T T T"
Si       8.85771422       4.48454937      10.80887495
Si       4.56770415       6.36511769       3.60251983
Si       7.37635784       2.91140050       4.49851811
Si       9.49718477       7.66459241       8.92533276
Si       8.44290652       6.75014393      12.05401312
Si       4.73495453       4.92621397       8.83358609
Si       8.92329386       9.27628833      12.28629900
Si       2.53013731       4.81921174       3.98286088
Si       7.65245940       6.51201274       9.83620232
Si       5.60402701       4.23103636       3.54746859
Si       5.32956029       7.00352705      10.55143698
Si       3.72995808       2.91862752       2.75728238
12
Lattice="5.516131674884454 0.49377720669591885 0.37869819769247914 2.4020246001201686 4.945228873723974 2.061019851285165 3.1428997025941108 4.336597836051435 11.098418436437294" Properties=species:S:1:pos:R:3 unique_starting_index=192 config_type=initial n_minim_iter=15 stress="-9.457037983094821e-05 -0.0012585667683911146 -6.602643643933765e-05 -0.0012585667683911146 -0.001204724883183698 -0.00011059576603168056 -6.602643643933765e-05 -0.00011059576603168056 -0.0005682225628067722" pbc="T T T"
Si       8.86267580       4.46217759      10.90892275
Si       4.56322268       6.35484854       3.60950363
Si       7.36779554       2.89621276       4.52920383
Si       9.53810915       7.62523094       8.98561321
Si       8.46473120       6.73385632      12.14659118
Si       4.73304717       4.91114592       8.90233691
Si       8.95190183       9.25838227      12.34789327
Si       2.52985705       4.79186700       4.01172628
Si       7.69449407       6.50015472       9.95375772
Si       5.63100442       4.21134071       3.53504434
Si       5.35399481       6.96801101      10.58895964
Si       3.71764857       2.88099861       2.79263907
12
Lattice="5.481737414803012 0.5267912958108268 0.40579469212501545 2.421607385579517 4.980272855425167 2.096035630601414 3.194127164144402 4.38027180188255 11.223957648882916" Properties=species:S:1:pos:R:3 unique_starting_index=192 config_type=initial n_minim_iter=16 stress="-3.73254485623321e-05 0.0010030706638197333 -0.00019553721221146606 0.0010030706638197333 0.002138233691409012 -0.0009460959158785541 -0.00019553721221146606 -0.0009460959158785541 -0.0024203742733968528" pbc="T T T"
Si       8.85041081       4.54296788      11.08851453
Si       4.57119690       6.41156054       3.64764580
Si       7.33694279       2.95462295       4.60241131
Si       9.58644611       7.71188926       9.10473140
Si       8.48313337       6.84242127      12.33473956
Si       4.74936142       4.97169294       9.04801547
Si       8.99737742       9.36485042      12.48900112
Si       2.55726204       4.81576276       4.05342574
Si       7.74265425       6.60533183      10.15305010
Si       5.66382250       4.26241638       3.53424910
Si       5.39683543       7.00947474      10.69827131
Si       3.71254894       2.87796964       2.84686316
12
Lattice="5.454552487200186 0.5118050428987608 0.43083123866436496 2.4062572715674246 4.944417365815598 2.155955536542983 3.2077325125654075 4.378012676202845 11.436021521218919" Properties=species:S:1:pos:R:3 unique_starting_index=192 config_type=initial n_minim_iter=17 stress="0.002377644529938803 0.0015278488918177057 0.0005589904986713443 0.0015278488918177057 0.001256386595877714 -0.0004559462414499573 0.0005589904986713443 -0.0004559462414499573 0.0007289254774480224" pbc="T T T"
Si       8.81625440       4.52555562      11.37100581
Si       4.54725870       6.36405974       3.70409529
Si       7.28516839       2.92005469       4.70827393
Si       9.58320289       7.65817393       9.29117358
Si       8.46783895       6.83182078      12.63753369
Si       4.71508070       4.94148867       9.25433928
Si       8.98125964       9.34308874      12.72558684
Si       2.53890757       4.78000115       4.15150305
Si       7.76609117       6.60698882      10.42518463
Si       5.66747959       4.22918759       3.54961611
Si       5.38718508       6.96724614      10.89163930
Si       3.68311836       2.82961232       2.92572304
12
Lattice="5.400076775836486 0.47576315552872295 0.4482639274957874 2.3578067447417594 4.894233377354072 2.2438989963171605 3.1703997172601097 4.3982235589745216 11.724686804960193" Properties=species:S:1:pos:R:3 unique_starting_index=192 config_type=initial n_minim_iter=18 stress="0.0018768970070900336 0.0002990103497268875 0.00099466751982968 0.0002990103497268875 -0.0009334771161297751 0.0005830514196107521 0.00099466751982968 0.0005830514196107521 0.004202004584991893" pbc="T T T"
Si       8.70322939       4.51430073      11.72197139
Si       4.47437940       6.29387693       3.80496351
Si       7.17887731       2.87773294       4.85411129
Si       9.48271650       7.59260975       9.54517474
Si       8.35356275       6.82836994      13.01990399
Si       4.63728921       4.92085167       9.52479053
Si       8.87777842       9.29156283      13.06032376
Si       2.49485075       4.73637847       4.25925344
Si       7.70231331       6.61492052      10.76169348
Si       5.62733518       4.17415488       3.59035304
Si       5.29650771       6.91436604      11.16589859
Si       3.62932271       2.76614936       3.02326692
12
Lattice="5.393653119228813 0.46730108349677185 0.4416550833653028 2.3453840513928013 4.890943416553918 2.2451188170774103 3.1473307252239575 4.41158111515794 11.699845939295033" Properties=species:S:1:pos:R:3 unique_starting_index=192 config_type=initial n_minim_iter=19 stress="0.0013975816752948753 -0.0007073535055440993 0.0011834535046728151 -0.0007073535055440993 -0.0005542503757811623 0.0010820348691384163 0.0011834535046728151 0.0010820348691384163 0.003473598355513647" pbc="T T T"
Si       8.68166957       4.52772292      11.69098075
Si       4.46980433       6.28434275       3.80931886
Si       7.15726295       2.87298975       4.85326263
Si       9.43654061       7.59930374       9.53449510
Si       8.31983379       6.83303806      12.97588388
Si       4.62310703       4.91584447       9.47712639
Si       8.84580041       9.27819333      13.04205433
Si       2.48466962       4.74238338       4.24765004
Si       7.66097736       6.61927065      10.71293379
Si       5.60456629       4.16312403       3.60737593
Si       5.26040614       6.92474572      11.15182754
Si       3.62438927       2.77142876       3.02211657
12
Lattice="5.355249881594651 0.4637019503246705 0.4427589694249724 2.3266373996230243 4.879258900769072 2.256530308292129 3.125009461576691 4.405701884666351 11.750059536947566" Properties=species:S:1:pos:R:3 unique_starting_index=192 config_type=initial n_minim_iter=20 stress="0.0006576290261814046 -0.0006318555470983485 -0.00018113962118677834 -0.0006318555470983485 0.0013385730935051186 4.0390825837041694e-05 -0.00018113962118677834 4.0390825837041694e-05 0.0011177475983531406" pbc="T T T"
Si       8.61552139       4.53532042      11.77865655
Si       4.45495404       6.26385876       3.79983806
Si       7.08135491       2.85893251       4.88727813
Si       9.37873391       7.59249909       9.56932919
Si       8.25597820       6.83185034      13.04599221
Si       4.57109792       4.87923342       9.51221330
Si       8.79356766       9.26557456      13.07859381
Si       2.46224483       4.73108008       4.27045255
Si       7.62214873       6.63120274      10.78486953
Si       5.58147295       4.14170756       3.59088245
Si       5.20843132       6.90537165      11.18302628
Si       3.58741521       2.74830166       3.05186015
12
Lattice="5.329818839591783 0.46403044968977886 0.4331628557399277 2.314430665733431 4.858569736605428 2.2589878511863826 3.093903670591981 4.391451601018146 11.77280620032132" Properties=species:S:1:pos:R:3 unique_starting_index=192 config_type=initial n_minim_iter=21 stress="-0.001966948830685083 -0.0008255118831622876 -0.0018004840150193464 -0.0008255118831622876 -0.0006798273629572154 -0.0006394230490548714 -0.0018004840150193464 -0.0006394230490548714 -0.0043221366394735105" pbc="T T T"
Si       8.56405535       4.53928400      11.79381451
Si       4.44692238       6.23575476       3.79579305
Si       7.03416765       2.86076062       4.91117849
Si       9.32162890       7.58122530       9.58027660
Si       8.18174513       6.81538909      13.04922751
Si       4.53547036       4.85047344       9.53775282
Si       8.75666860       9.22242502      13.08938471
Si       2.45818428       4.71024042       4.26158551
Si       7.56831243       6.62711309      10.80253077
Si       5.56445345       4.11773103       3.58278840
Si       5.15044705       6.86154592      11.19566850
Si       3.55352923       2.72359875       3.05595468
