22
Lattice="7.4714468735694535 8.074596279434486e-15 3.052697638729258e-13 -3.735723436784733 6.470462795536961 6.704998923531796e-13 -5.021564136920828e-13 -1.563491558967186e-12 12.290227893923833" Properties=species:S:1:pos:R:3 unique_starting_index=144 config_type=initial n_minim_iter=1 energy=-3576.2123433002776 free_energy=-3576.2123433002776 pbc="T T T"
Si       1.33773241       0.77303838       9.75320222
Si       6.13310978       0.77303838       9.75320222
Si       3.73542110       4.92595701       9.75320222
Si       2.39738635       5.69847173       3.60808827
Si      -2.39799102       5.69847173       3.60808827
Si      -0.00030234       1.54555311       3.60808827
Si       1.58678080       3.39786265       4.93878813
Si      -0.00030234       6.14677127       4.93878813
Si      -1.58738547       3.39786265       4.93878813
Si       2.14833796       3.07364747      11.08390207
Si       3.73542110       0.32473884      11.08390207
Si       5.32250423       3.07364747      11.08390207
Si       3.73542110       4.28446249       5.22085832
Si       1.89328296       1.09378564       5.22085832
Si       5.57755923       1.09378564       5.22085832
Si      -0.00030234       2.18704762      11.36597226
Si       1.84183580       5.37772447      11.36597226
Si      -1.84244048       5.37772447      11.36597226
Si       3.73542110       2.15734459       0.31007652
Si      -0.00030234       4.31416552       6.45519047
Si      -0.00030234       0.00052366      11.82320090
Si      -0.00030234       0.00052366       5.67808696
22
Lattice="7.469571789411221 8.095193377729954e-15 3.051931513361694e-13 -3.7347858947056167 6.468838925021699 6.703316192264987e-13 -5.021364873424281e-13 -1.563429517183716e-12 12.28974019851325" Properties=species:S:1:pos:R:3 unique_starting_index=144 config_type=initial n_minim_iter=2 stress="-0.0001632048951118239 3.3714511319021956e-17 5.936231738843385e-17 3.3714511319021956e-17 -0.00016320489511215895 -7.895904658009026e-17 5.936231738843385e-17 -7.895904658009026e-17 -6.622784284723317e-05" pbc="T T T"
Si       1.33734048       0.77281192       9.75285285
Si       6.13162679       0.77281192       9.75285285
Si       3.73448363       4.92478566       9.75285285
Si       2.39684089       5.69707406       3.60798275
Si      -2.39744542       5.69707406       3.60798275
Si      -0.00030226       1.54510032       3.60798275
Si       1.58634913       3.39702920       4.93859035
Si      -0.00030226       6.14519003       4.93859035
Si      -1.58695366       3.39702920       4.93859035
Si       2.14783224       3.07285678      11.08346045
Si       3.73448363       0.32469595      11.08346045
Si       5.32113503       3.07285678      11.08346045
Si       3.73448363       4.28343596       5.22064401
Si       1.89276561       1.09348677       5.22064401
Si       5.57620165       1.09348677       5.22064401
Si      -0.00030226       2.18645002      11.36551411
Si       1.84141576       5.37639921      11.36551411
Si      -1.84202028       5.37639921      11.36551411
Si       3.73448363       2.15680317       0.31007172
Si      -0.00030226       4.31308281       6.45494182
Si      -0.00030226       0.00052353      11.82263807
Si      -0.00030226       0.00052353       5.67776797
22
Lattice="7.471251247786085 8.097470647372613e-15 3.052617709583397e-13 -3.7356256238930485 6.470293378638933 6.704823365746393e-13 -5.027370358184085e-13 -1.5652993578296668e-12 12.304438562269835" Properties=species:S:1:pos:R:3 unique_starting_index=144 config_type=initial n_minim_iter=3 stress="-4.353669451854476e-05 5.60533590218449e-17 6.789416997704186e-17 5.60533590218449e-17 -4.353669451849698e-05 -4.438139136550725e-17 6.789416997704186e-17 -4.438139136550725e-17 0.00012142637354705107" pbc="T T T"
Si       1.33470766       0.77129202       9.76629911
Si       6.13593893       0.77129202       9.76629911
Si       3.73532329       4.92928027       9.76629911
Si       2.40031330       5.70004865       3.61407983
Si      -2.40091796       5.70004865       3.61407983
Si      -0.00030233       1.54206040       3.61407983
Si       1.58490606       3.39883207       4.94427616
Si      -0.00030233       6.14449355       4.94427616
Si      -1.58551072       3.39883207       4.94427616
Si       2.15011490       3.07250860      11.09649545
Si       3.73532329       0.32684712      11.09649545
Si       5.32053169       3.07250860      11.09649545
Si       3.73532329       4.28673353       5.22662300
Si       1.89116945       1.09256539       5.22662300
Si       5.57947713       1.09256539       5.22662300
Si      -0.00030233       2.18460713      11.37884228
Si       1.84385151       5.37877528      11.37884228
Si      -1.84445617       5.37877528      11.37884228
Si       3.73532329       2.15728811       0.31118189
Si      -0.00030233       4.31405256       6.46340117
Si      -0.00030233       0.00052365      11.83214900
Si      -0.00030233       0.00052365       5.67992972
22
Lattice="7.471965580075169 8.09645433921517e-15 3.0529095727966483e-13 -3.735982790037591 6.4709120085480265 6.705464419254554e-13 -5.024367159904676e-13 -1.5643642955598785e-12 12.297088264582069" Properties=species:S:1:pos:R:3 unique_starting_index=144 config_type=initial n_minim_iter=4 stress="8.377229221833805e-06 2.828299825893566e-16 1.1252704696103176e-16 2.828299825893566e-16 8.37722922216842e-06 4.0657934937781893e-17 1.1252704696103176e-16 4.0657934937781893e-17 -0.00015679336674597028" pbc="T T T"
Si       1.33460601       0.77123340       9.76065890
Si       6.13675485       0.77123340       9.76065890
Si       3.73568043       4.93001629       9.76065890
Si       2.40077206       5.70072600       3.61211477
Si      -2.40137678       5.70072600       3.61211477
Si      -0.00030236       1.54194311       3.61211477
Si       1.58489294       3.39925210       4.94132443
Si      -0.00030236       6.14489090       4.94132443
Si      -1.58549766       3.39925210       4.94132443
Si       2.15048513       3.07270730      11.08986856
Si       3.73568043       0.32706850      11.08986856
Si       5.32087573       3.07270730      11.08986856
Si       3.73568043       4.28699332       5.22337866
Si       1.89148024       1.09274489       5.22337866
Si       5.57988062       1.09274489       5.22337866
Si      -0.00030236       2.18496608      11.37192280
Si       1.84389783       5.37921451      11.37192280
Si      -1.84450255       5.37921451      11.37192280
Si       3.73568043       2.15749437       0.31098921
Si      -0.00030236       4.31446503       6.45953334
Si      -0.00030236       0.00052370      11.82486684
Si      -0.00030236       0.00052370       5.67632271
22
Lattice="7.471665332223261 8.096779088558075e-15 3.0527868969717304e-13 -3.735832666111637 6.470651986280843 6.705194971909495e-13 -5.029190861982153e-13 -1.5658661816805104e-12 12.308894227068686" Properties=species:S:1:pos:R:3 unique_starting_index=144 config_type=initial n_minim_iter=5 stress="0.00010809545257008385 3.5638277707747084e-16 1.1839095499777856e-16 3.5638277707747084e-16 0.00010809545257037042 6.103771804073022e-17 1.1839095499777856e-16 6.103771804073022e-17 3.356309754324615e-05" pbc="T T T"
Si       1.33316384       0.77040074       9.77126377
Si       6.13789680       0.77040074       9.77126377
Si       3.73553032       4.93142154       9.77126377
Si       2.40206413       5.70129860       3.61681665
Si      -2.40266883       5.70129860       3.61681665
Si      -0.00030235       1.54027780       3.61681665
Si       1.58381552       3.39970079       4.94598888
Si      -0.00030235       6.14347342       4.94598888
Si      -1.58442021       3.39970079       4.94598888
Si       2.15141245       3.07199855      11.10043599
Si       3.73553032       0.32822592      11.10043599
Si       5.31964818       3.07199855      11.10043599
Si       3.73553032       4.28496397       5.22740345
Si       1.89301251       1.09362952       5.22740345
Si       5.57804812       1.09362952       5.22740345
Si      -0.00030235       2.18673536      11.38185057
Si       1.84221546       5.37806982      11.38185057
Si      -1.84282015       5.37806982      11.38185057
Si       3.73553032       2.15740767       0.31142385
Si      -0.00030235       4.31429167       6.46587097
Si      -0.00030235       0.00052367      11.83558981
Si      -0.00030235       0.00052367       5.68114269
