18
Lattice="14.091630456704278 4.021560873833959 3.091927936923806 8.647157264558155 11.831046954190773 3.0919279369238684 8.647157264558055 6.0284653088217475 10.639139834579275" Properties=species:S:1:pos:R:3 unique_starting_index=39 config_type=initial n_minim_iter=4 energy=-2922.8954281898255 free_energy=-2922.8954281898255 pbc="T T T"
Si      18.23532239      14.11341943       6.28225351
Si      15.40659356      13.75567174      12.02500186
Si      19.54934718       9.21381071      10.20348063
Si      18.23532239       9.69817753      12.02500186
Si      15.40659356      15.15612609      10.20348063
Si      19.54934718      12.22859826       6.28225351
Si       3.36466729       5.13351065       2.49771522
Si       4.66638686       1.86588561       4.31923646
Si       5.98041165       2.76885853       0.69325168
Si       3.36466729       3.73305631       4.31923646
Si       4.66638686       4.65367970       0.69325168
Si       5.98041165       1.38151878       2.49771522
Si      15.12552059      11.93675279      10.61761578
Si      17.73737072       9.58216862       8.80732251
Si      16.43144565      12.84719350       6.99702924
Si      15.12552059      13.32857465       8.80732251
Si      17.73737072      10.97399048       6.99702924
Si      16.43144565      10.06354978      10.61761578
