12
Lattice="5.001473809161012 -0.7058028906075372 1.086402606827832 -2.3270871282444827 5.148655066314149 -0.45626197135180546 1.727000774764357 -0.4990372731448497 9.497462457378871" Properties=species:S:1:pos:R:3 unique_starting_index=44 config_type=initial n_minim_iter=1 energy=-1950.2006569249495 free_energy=-1950.2006569249495 pbc="T T T"
Si       0.66691632       1.90138928       7.86082364
Si      -0.00702975       2.74406442       3.64376691
Si       0.85779589       3.35033238       5.94118838
Si       2.38792998       1.92452428       4.81812911
Si       4.16950419       3.27784256       8.83772200
Si       4.14539384       0.26768433       6.91187723
Si       2.39355776       2.36366428       1.26723431
Si      -0.36584495       3.31923231       1.29184837
Si       2.71842631       1.17643469       8.69086743
Si       5.13710538      -0.12879638       3.81115800
Si       1.47116568       0.15752566       6.17052297
Si       4.04421002      -0.64470450       9.60844906
12
Lattice="5.045618115796116 -0.6853200201069712 1.0786911066556288 -2.34019659071059 5.019111678482606 -0.47431735229501626 1.7759524173362828 -0.5240598093169911 9.249197695898655" Properties=species:S:1:pos:R:3 unique_starting_index=44 config_type=initial n_minim_iter=2 stress="-0.015155735723810076 0.0011052580394321605 0.002667221097466132 0.0011052580394321605 -0.017758927000419155 0.0008450392237123241 0.002667221097466132 0.0008450392237123241 -0.02161970503657719" pbc="T T T"
Si       0.70949579       1.83605703       7.64271691
Si      -0.02075766       2.67396735       3.56486331
Si       0.89046983       3.23667589       5.75667669
Si       2.46255696       1.83989050       4.65835764
Si       4.21963883       3.17273112       8.61286923
Si       4.22608227       0.26641165       6.72513186
Si       2.39918491       2.26081857       1.25507885
Si      -0.36903647       3.23166467       1.25508553
Si       2.77682402       1.12127894       8.46752385
Si       5.20471611      -0.15763338       3.72545628
Si       1.51700368       0.14078188       5.97610460
Si       4.11711557      -0.65194394       9.37201100
12
Lattice="5.197146009920826 -0.6795590195130812 1.081073997998203 -2.4069156480980665 4.953704660013274 -0.5079285330590592 1.846606277816574 -0.5792085342809532 9.147161577876199" Properties=species:S:1:pos:R:3 unique_starting_index=44 config_type=initial n_minim_iter=3 stress="0.0002893860676157502 -0.002513523557873949 0.001017438651466932 -0.002513523557873949 -0.011243387844525787 0.00028081528883672907 0.001017438651466932 0.00028081528883672907 -0.014145188742664317" pbc="T T T"
Si       0.75579543       1.77968566       7.54234417
Si      -0.06078545       2.63355613       3.55010404
Si       0.92950412       3.14636249       5.64877160
Si       2.59883261       1.75779237       4.55171971
Si       4.33035052       3.08598539       8.51597350
Si       4.39631594       0.26054913       6.63079748
Si       2.44180312       2.16238441       1.26559079
Si      -0.39135690       3.18081564       1.23620253
Si       2.87779913       1.06013188       8.37454799
Si       5.38373867      -0.21194124       3.68957125
Si       1.58881638       0.11392756       5.86054107
Si       4.26494058      -0.68879959       9.28208495
12
Lattice="5.192320372877886 -0.6237716081882052 1.1011730346436301 -2.3471640691218956 4.908755394582933 -0.5459272351947358 1.8690747409549624 -0.6132548671430637 9.16401586306633" Properties=species:S:1:pos:R:3 unique_starting_index=44 config_type=initial n_minim_iter=4 stress="-0.002361994956480495 -0.0022873095378911266 -0.0012677656676113723 -0.0022873095378911266 -0.007030681063383057 -0.001775959677430486 -0.0012677656676113723 -0.001775959677430486 -0.007623743080884799" pbc="T T T"
Si       0.81540886       1.75425856       7.54515257
Si      -0.07168897       2.61532497       3.58237645
Si       0.99458535       3.10467480       5.61683878
Si       2.68972047       1.73067427       4.50752139
Si       4.36106678       3.08214621       8.53429580
Si       4.45160037       0.30581047       6.62508290
Si       2.44441106       2.11246807       1.30152996
Si      -0.36964464       3.15553845       1.23170128
Si       2.91286924       1.04515955       8.38922949
Si       5.41152555      -0.20753296       3.70663058
Si       1.62051974       0.10526134       5.82329251
Si       4.29687247      -0.68098017       9.31290840
12
Lattice="5.233937277876496 -0.5208663078341285 1.168689739185112 -2.269853814293117 4.871837569606817 -0.5556377190032156 2.0026277277848754 -0.5374348565980442 9.207561809909567" Properties=species:S:1:pos:R:3 unique_starting_index=44 config_type=initial n_minim_iter=5 stress="-0.00039273886705011883 -0.002330479637473499 -0.0015646719065186263 -0.002330479637473499 0.0015420609601710783 0.0009809811859466165 -0.0015646719065186263 0.0009809811859466165 0.0018712504275341562" pbc="T T T"
Si       0.98465958       1.83352043       7.58893339
Si      -0.02804691       2.64544946       3.64380254
Si       1.17226567       3.16107708       5.64052468
Si       2.86146451       1.78834390       4.51444629
Si       4.54205683       3.22535062       8.64405222
Si       4.61422414       0.45461396       6.67560227
Si       2.50249801       2.11118536       1.39380432
Si      -0.31777931       3.16219023       1.25794855
Si       3.07000923       1.14996616       8.45434342
Si       5.51988600      -0.12287613       3.78416249
Si       1.72856934       0.16702628       5.80976851
Si       4.46364863      -0.55067081       9.39502346
12
Lattice="5.324667515464524 -0.37822431531236306 1.2580845689029403 -2.171503086349763 4.789147525726741 -0.6180194486610179 2.1908361744002063 -0.5263521915016129 9.20851368483943" Properties=species:S:1:pos:R:3 unique_starting_index=44 config_type=initial n_minim_iter=6 stress="0.0011212118215953128 0.0014622786450765848 -0.0014859166094050445 0.0014622786450765848 0.0025734401731072488 -0.0006762112464123581 -0.0014859166094050445 -0.0006762112464123581 0.00715785456570517" pbc="T T T"
Si       1.21954123       1.84228057       7.57758507
Si       0.05582707       2.61674108       3.65918209
Si       1.43378017       3.17164870       5.60355727
Si       3.08577295       1.82290973       4.48521441
Si       4.82642714       3.30745403       8.69251133
Si       4.85112275       0.57228158       6.69931064
Si       2.61540514       2.11074067       1.47635942
Si      -0.24544622       3.13288685       1.24227975
Si       3.30453714       1.19888318       8.46918098
Si       5.69522401      -0.02093185       3.86804655
Si       1.87446721       0.18094300       5.76251621
Si       4.71379602      -0.47075232       9.44568425
12
Lattice="5.442172238487739 -0.2679015354774233 1.3645779374130047 -2.116156806554318 4.764772600500414 -0.6622346637140047 2.453114447342274 -0.4781024766896139 9.099501808364721" Properties=species:S:1:pos:R:3 unique_starting_index=44 config_type=initial n_minim_iter=7 stress="0.0033171289873320246 0.006710797201057671 0.0031411164591147035 0.006710797201057671 0.005459707537727733 0.0006201607671217524 0.0031411164591147035 0.0006201607671217524 0.006864317894162108" pbc="T T T"
Si       1.50657642       1.91163834       7.48978889
Si       0.15103437       2.62800644       3.63732045
Si       1.74584747       3.26699818       5.52067740
Si       3.31569321       1.88370834       4.42018254
Si       5.15677205       3.44045947       8.67561373
Si       5.13747813       0.68591725       6.66581658
Si       2.75023995       2.14149888       1.57733769
Si      -0.20064960       3.14156906       1.21621819
Si       3.60046239       1.29386003       8.40152002
Si       5.91297189       0.06894467       3.94328750
Si       2.05362283       0.20720974       5.64691286
Si       5.04936729      -0.38400415       9.40255616
12
Lattice="5.484995501958893 -0.3427687896835807 1.3724811304955111 -2.203110122155783 4.816062300912426 -0.6784624505566252 2.5271728061266856 -0.5264990667722348 8.898672249929989" Properties=species:S:1:pos:R:3 unique_starting_index=44 config_type=initial n_minim_iter=8 stress="0.0006557605977261941 0.002311978280800211 0.005560035980072824 0.002311978280800211 0.002640014081625726 0.00040918425799423903 0.005560035980072824 0.00040918425799423903 0.0064010437243805" pbc="T T T"
Si       1.55687518       1.90916151       7.33330832
Si       0.11114895       2.61982416       3.55498731
Si       1.83693163       3.33873190       5.38300642
Si       3.29648318       1.83942335       4.28289474
Si       5.15173639       3.37917025       8.50693162
Si       5.18284187       0.56085284       6.51481924
Si       2.79043588       2.14275572       1.60618025
Si      -0.29733518       3.15240989       1.16077243
Si       3.64772505       1.25517181       8.22623692
Si       5.97633842      -0.01795554       3.90383103
Si       2.06875778       0.12964775       5.48696997
Si       5.14803535      -0.50494819       9.21813821
12
Lattice="5.513531921199773 -0.4000530567676309 1.2699809824385577 -2.267596749525168 4.860657621870698 -0.6421711734614537 2.407459402262922 -0.5661123957089553 8.59966923625211" Properties=species:S:1:pos:R:3 unique_starting_index=44 config_type=initial n_minim_iter=9 stress="-0.005615150726024327 -0.004053844895154258 0.0029084964747486198 -0.004053844895154258 -0.005789310321005965 0.00010773521540568981 0.0029084964747486198 0.00010773521540568981 0.0024900615162530876" pbc="T T T"
Si       1.44386178       1.90953993       7.09819683
Si       0.00995943       2.62183094       3.44497891
Si       1.78687759       3.38825102       5.18597328
Si       3.20014574       1.80791767       4.07895368
Si       4.99974729       3.33084014       8.19578863
Si       5.11119668       0.46085118       6.24523557
Si       2.80070537       2.15111264       1.55793098
Si      -0.39569435       3.16078182       1.11300793
Si       3.53260097       1.22222941       7.94333908
Si       5.96720092      -0.08160986       3.72871572
Si       1.96770692       0.06539867       5.27094719
Si       5.04478628      -0.59093281       8.88017834
12
Lattice="5.559507133028435 -0.37965395548792963 1.0856729240406853 -2.2587383960254215 4.922013751803406 -0.567490865369741 2.142382321410421 -0.5809901644055101 8.262810466570839" Properties=species:S:1:pos:R:3 unique_starting_index=44 config_type=initial n_minim_iter=10 stress="-0.0006432823190510132 0.0014745700490533774 -0.0016623955604986376 0.0014745700490533774 0.0032425861693286618 0.003761427920682011 -0.0016623955604986376 0.003761427920682011 -0.0018364101528056632" pbc="T T T"
Si       1.22042172       1.93671285       6.82073927
Si      -0.08849549       2.66730339       3.32314389
Si       1.61807604       3.40627270       4.96288074
Si       3.10378197       1.83830262       3.86601896
Si       4.82999397       3.37908818       7.80279945
Si       5.00930912       0.48721455       5.92680459
Si       2.80842155       2.20657295       1.42649494
Si      -0.41659684       3.19528628       1.08228298
Si       3.33804510       1.23633393       7.61178583
Si       5.93130681      -0.05392610       3.45790029
Si       1.80158873       0.05617378       5.05011663
Si       4.79843656      -0.57417797       8.46147554
12
Lattice="5.638565417548524 -0.376459587468006 1.0760334096064756 -2.2840721639013593 4.900980944305162 -0.6146828665933164 2.164339992959312 -0.6754336278054134 8.140304772708596" Properties=species:S:1:pos:R:3 unique_starting_index=44 config_type=initial n_minim_iter=11 stress="0.0017369139107007174 0.0021376498341362043 -0.00045254331246541326 0.0021376498341362043 -0.00213857931069285 -2.1953990102430023e-05 -0.00045254331246541326 -2.1953990102430023e-05 -0.0067052575362531305" pbc="T T T"
Si       1.24117092       1.86754803       6.69273343
Si      -0.12155075       2.61930986       3.25890881
Si       1.66483837       3.34231913       4.83324606
Si       3.14929491       1.77902734       3.76238021
Si       4.87397034       3.28093492       7.65870654
Si       5.10285957       0.42848946       5.82423868
Si       2.85524119       2.17416206       1.40742140
Si      -0.44238535       3.16592076       1.02519562
Si       3.39173982       1.15189984       7.49107427
Si       6.02094803      -0.09496899       3.41400460
Si       1.81523055      -0.01444033       4.93950437
Si       4.86309784      -0.65985459       8.34216508
12
Lattice="5.623947487324901 -0.42378094826495943 1.0837889514115215 -2.3144301432993464 4.915507510940985 -0.6616960030114233 2.1497132822060583 -0.7742020074230641 8.209774429352928" Properties=species:S:1:pos:R:3 unique_starting_index=44 config_type=initial n_minim_iter=12 stress="0.0013313399618352449 0.00040049665133406207 0.0003355598005689453 0.00040049665133406207 -0.0034410382025227846 -0.004531527330579478 0.0003355598005689453 -0.004531527330579478 -0.0016576132108092323" pbc="T T T"
Si       1.20311980       1.79477195       6.72104594
Si      -0.14874924       2.58402028       3.25899461
Si       1.62560246       3.26223978       4.83521460
Si       3.09731798       1.71105450       3.78422106
Si       4.82138935       3.15806163       7.69207992
Si       5.09059565       0.32663947       5.87431159
Si       2.84228074       2.15465036       1.39099810
Si      -0.46370126       3.15958913       0.98950548
Si       3.37748841       1.04937469       7.54701432
Si       5.99430021      -0.16777198       3.44394728
Si       1.79441461      -0.08635801       4.97019996
Si       4.83845275      -0.77225667       8.41483679
12
Lattice="5.612288856563817 -0.49037415169799203 1.0522637098501149 -2.3658415403242388 4.989913944236784 -0.6540579362746581 2.094630283808736 -0.8125558904378289 8.174901648911675" Properties=species:S:1:pos:R:3 unique_starting_index=44 config_type=initial n_minim_iter=13 stress="-0.0062139829764602415 -0.002868272213251314 0.0025188813141980198 -0.002868272213251314 -0.0008318961545564473 -0.0036738975281218255 0.0025188813141980198 -0.0036738975281218255 -0.0023911418702166694" pbc="T T T"
Si       1.12697774       1.84379631       6.67407257
Si      -0.25848323       2.61171483       3.26079039
Si       1.58702975       3.25634693       4.78048586
Si       2.99061650       1.66030826       3.74913589
Si       4.68210540       3.11974105       7.67021899
Si       5.09684230       0.25250664       5.84556558
Si       2.84309585       2.17440032       1.39191042
Si      -0.52514723       3.21477236       0.94052079
Si       3.34356630       1.02455320       7.53628072
Si       5.95793236      -0.25399458       3.42745185
Si       1.73266224      -0.14482462       4.88816010
Si       4.78158244      -0.83000171       8.38210950
12
Lattice="5.687558001634588 -0.4415569771160676 0.9792935545684887 -2.3773119566420005 4.896719238016053 -0.5610258185283128 1.9767504012517112 -0.6813046556374942 8.262169129152204" Properties=species:S:1:pos:R:3 unique_starting_index=44 config_type=initial n_minim_iter=14 stress="0.0011547345885295048 -0.0007962988271681718 0.004326869266192591 -0.0007962988271681718 -0.0036482543207272573 0.0009687473181148115 0.004326869266192591 0.0009687473181148115 0.002604952732758029" pbc="T T T"
Si       1.03074507       1.95623671       6.76372266
Si      -0.38386314       2.61839619       3.36458408
Si       1.55242073       3.23782523       4.84996573
Si       2.94973260       1.66192946       3.79664872
Si       4.59497553       3.19719843       7.79169090
Si       5.13313465       0.35701459       5.88545885
Si       2.88168572       2.18464177       1.41061330
Si      -0.51782451       3.20689455       0.97191256
Si       3.28859164       1.13137627       7.64283499
Si       5.99213811      -0.19915925       3.41228275
Si       1.67462958      -0.08347263       4.88346161
Si       4.71475937      -0.65582549       8.45308762
12
Lattice="5.751991461332346 -0.39865448424759636 0.7605936135013871 -2.363078530391066 4.940638505147866 -0.4408654239513209 1.6296405953458475 -0.6337711185351118 8.061858603797525" Properties=species:S:1:pos:R:3 unique_starting_index=44 config_type=initial n_minim_iter=15 stress="0.005452261576550487 0.004072147319542753 -0.0008154431891693799 0.004072147319542753 0.002320604254450494 0.0007953627450558832 -0.0008154431891693799 0.0007953627450558832 0.0014778583983956544" pbc="T T T"
Si       0.76714866       2.07020986       6.61888726
Si      -0.59648559       2.66176475       3.34143408
Si       1.44326894       3.31867318       4.70429374
Si       2.78451348       1.69385212       3.64586449
Si       4.31018465       3.31323439       7.55603206
Si       5.00183861       0.39610154       5.63583670
Si       2.92993947       2.28642087       1.31872017
Si      -0.54049189       3.27150758       0.95814985
Si       3.01876397       1.21847330       7.43486141
Si       5.94458507      -0.15484677       3.17692230
Si       1.47349376      -0.09312037       4.69595431
Si       4.42832641      -0.57171634       8.17211581
12
Lattice="5.7031742948048265 -0.4273016840395665 0.7684863829944745 -2.368905163112033 4.960261817503474 -0.43580466613517804 1.6276076901988341 -0.6276240063594882 8.07976742440179" Properties=species:S:1:pos:R:3 unique_starting_index=44 config_type=initial n_minim_iter=16 stress="0.0015545479230981208 0.0007018600765701225 -0.0012709123042606576 0.0007018600765701225 0.0031541786009521497 0.0015773525082338447 -0.0012709123042606576 0.0015773525082338447 0.002606173504859462" pbc="T T T"
Si       0.76186813       2.07268845       6.63966607
Si      -0.59679656       2.66804543       3.34327692
Si       1.41657288       3.33439611       4.72605087
Si       2.76084318       1.69645966       3.66566266
Si       4.26554037       3.31682612       7.57386602
Si       4.93838476       0.37857305       5.65695710
Si       2.88642422       2.27554215       1.32626180
Si      -0.54170970       3.28027103       0.97641036
Si       2.97227155       1.22088053       7.44396483
Si       5.89612984      -0.17875958       3.18830894
Si       1.47847387      -0.08721933       4.71865608
Si       4.40907412      -0.58217584       8.19370511
12
Lattice="5.677649020834876 -0.45935734590619337 0.74062282624737 -2.3884467717271707 4.965399455371004 -0.4280432016106138 1.5696754817457341 -0.647956785274328 8.063822329362159" Properties=species:S:1:pos:R:3 unique_starting_index=44 config_type=initial n_minim_iter=17 stress="-0.0026961180022174133 -0.0021333984751316618 -0.0024907966761223343 -0.0021333984751316618 -0.0007818490101009937 0.0010131261973279227 -0.0024907966761223343 0.0010131261973279227 0.0017719250805386822" pbc="T T T"
Si       0.71127894       2.06274428       6.61961648
Si      -0.66383707       2.65019162       3.33115175
Si       1.36805787       3.31085736       4.69938242
Si       2.70538575       1.66786266       3.65750996
Si       4.15964488       3.28586184       7.53843200
Si       4.86984119       0.33576397       5.64171256
Si       2.84683171       2.25453043       1.31464981
Si      -0.54092321       3.28469615       0.98070412
Si       2.87241047       1.19794395       7.40839119
Si       5.85152534      -0.23097508       3.16667807
Si       1.46338956      -0.11034994       4.69483701
Si       4.36019059      -0.60562141       8.17508871
12
Lattice="5.67570969182409 -0.47754888902420284 0.7598222421296772 -2.398168574974768 4.992135627817026 -0.4560394012620682 1.6052558660249816 -0.6910247262552771 8.045157913161063" Properties=species:S:1:pos:R:3 unique_starting_index=44 config_type=initial n_minim_iter=18 stress="-0.00023230009123259546 -0.001401605797431443 -0.0008133663816543627 -0.001401605797431443 0.0017684220271866086 -0.00044585993315246833 -0.0008133663816543627 -0.00044585993315246833 0.002957999414118541" pbc="T T T"
Si       0.74013275       2.03925279       6.58391970
Si      -0.66205460       2.63334358       3.29033776
Si       1.37539793       3.29255459       4.66801810
Si       2.70583504       1.65539816       3.66208646
Si       4.18178478       3.26411968       7.50030363
Si       4.87823492       0.29639766       5.65684965
Si       2.83900411       2.25349746       1.30876951
Si      -0.51225405       3.29832043       0.97180639
Si       2.87015840       1.16466686       7.37235589
Si       5.85811152      -0.27086862       3.18472930
Si       1.50224418      -0.14007493       4.68718981
Si       4.40933881      -0.63985249       8.17396122
12
Lattice="5.692365393217903 -0.5090486025470266 0.7215195114432421 -2.433955823418316 5.012773785796783 -0.44675084768460727 1.5534754975813025 -0.7177577740643584 7.972270650485324" Properties=species:S:1:pos:R:3 unique_starting_index=44 config_type=initial n_minim_iter=19 stress="0.000719070793766845 -0.002128352080338901 -0.0009370897369252048 -0.002128352080338901 -0.0010570072439941344 -0.00054003006691984 -0.0009370897369252048 -0.00054003006691984 -0.0009348981457950605" pbc="T T T"
Si       0.67797206       2.04405573       6.50702371
Si      -0.73105475       2.61856528       3.25000594
Si       1.32285346       3.26239372       4.59840811
Si       2.64666215       1.62952296       3.62922429
Si       4.10984960       3.23698387       7.40450586
Si       4.86580315       0.25163329       5.61197563
Si       2.83407449       2.25686958       1.27970455
Si      -0.50833386       3.31522598       0.95561829
Si       2.80274560       1.13887075       7.28854690
Si       5.85095090      -0.32788685       3.14407369
Si       1.48371626      -0.17815435       4.62569206
Si       4.38039998      -0.65260403       8.09975966
12
Lattice="5.675663149761972 -0.496260392318012 0.7722619914061538 -2.4067528570793537 5.028471878113409 -0.4867151935580908 1.647288571405323 -0.7448699742142053 7.933941136942013" Properties=species:S:1:pos:R:3 unique_starting_index=44 config_type=initial n_minim_iter=20 stress="-0.002004137409982993 0.003601773011339722 0.00265418946440826 0.003601773011339722 -0.00013893231457915193 -0.004353342643685705 0.00265418946440826 -0.004353342643685705 -0.005149198952499819" pbc="T T T"
Si       0.75332910       2.05838247       6.44318582
Si      -0.69522189       2.57349974       3.18909728
Si       1.37497983       3.25968409       4.53766782
Si       2.66836149       1.63893120       3.62631634
Si       4.19981814       3.25456648       7.34889365
Si       4.94139222       0.24185302       5.66669602
Si       2.86058010       2.28957970       1.29812711
Si      -0.43395220       3.33296617       0.93776616
Si       2.85782492       1.12665903       7.23691673
Si       5.86516472      -0.36724643       3.20630891
Si       1.54628861      -0.22899047       4.60078122
Si       4.49036602      -0.61623921       8.11371546
12
Lattice="5.723045897447088 -0.4619504755391636 0.7642037767366204 -2.4257723610277884 5.007333215430072 -0.3483975733578748 1.680635813366068 -0.4781972290150126 7.942785519703257" Properties=species:S:1:pos:R:3 unique_starting_index=44 config_type=initial n_minim_iter=21 stress="0.009298918345395675 0.0029497790876210407 0.0015396615239667234 0.0029497790876210407 0.007650911402948755 0.0048647893105507435 0.0015396615239667234 0.0048647893105507435 -0.004690823282107289" pbc="T T T"
Si       0.71408569       2.34537310       6.49931276
Si      -0.72133691       2.55866529       3.21876947
Si       1.36531703       3.44483381       4.58248548
Si       2.63059365       1.77006428       3.68569266
Si       4.25947152       3.52836475       7.40264942
Si       5.04909867       0.39977646       5.81844878
Si       2.95667950       2.43181010       1.38435432
Si      -0.34601754       3.38422674       1.01938782
Si       2.85841049       1.36423161       7.25975094
Si       5.90833361      -0.34609954       3.28209965
Si       1.56100934      -0.19156234       4.59912059
Si       4.58742072      -0.21524262       8.19662880
