14
Lattice="3.4495687832078654 1.6768777316334707e-28 -2.1261437990850067e-28 3.299831079081351e-29 9.067253239371205 -3.8905399849262394e-15 3.3658865867802197e-29 -4.533626619685601 7.85247164784223" Properties=species:S:1:pos:R:3 unique_starting_index=124 config_type=initial n_minim_iter=13 energy=-2277.733337740976 free_energy=-2277.733337740976 pbc="T T T"
Si       2.58713265       2.99744864       6.85104932
Si       2.58713265      -2.89828045       7.02281366
Si       2.58713265      -0.09916818       1.83108032
Si       0.86243613       4.43445844       6.02139133
Si       0.86243613       7.53107526       1.00142233
Si       0.86243613       1.63534617       0.82965800
Si       2.58805197       1.17146572       3.82230704
Si       2.58805197       0.63767877       6.95583720
Si       2.58805197      -1.80914448       4.92679906
Si       0.86151681       2.72448214       2.92567259
Si       0.86151681       5.70509233       4.03016461
Si       0.86151681       5.17130539       0.89663445
Si       2.58610682       4.53362662       2.61749055
Si       0.86346196       0.00000000       5.23498110
