18
Lattice="6.1529118720829405 0.6104954323316212 0.14552542364417825 3.214601420644579 9.461488307533749 -1.8248266227518863 2.723210671442992 -0.8864498115803614 6.76885208673513" Properties=species:S:1:pos:R:3 unique_starting_index=194 config_type=initial n_minim_iter=1 energy=-2929.9364099330364 free_energy=-2929.9364099330364 pbc="T T T"
Si       6.09119171       1.00287938       1.49508866
Si       6.88643979       4.60808872       5.33971234
Si       5.77110983       3.34415980       1.59219826
Si       3.10130766       0.03967552       5.78756405
Si       7.36952039       7.65525226       2.96313067
Si       7.65614849       9.75617449       1.23346880
Si       4.21917899       1.41485121      -1.39726474
Si       2.22872820       3.20487650       3.57595880
Si       4.82033709       7.02176506       0.25425035
Si       5.69197927       9.25067908       0.02948630
Si       2.43937357       1.48616770       0.20078893
Si       5.22318183       4.39013467       3.63012324
Si       8.10171327       4.32536837       1.45000999
Si       3.97374883       3.66943090       0.06048501
Si       6.23522242       5.91447911       1.81646039
Si       9.42009485       8.24179939       2.07899216
Si       7.37443058       1.75384140       3.44159305
Si       4.15703785       2.19249440       4.44694173
18
Lattice="6.162351014357822 0.6158390654433193 0.15061926366451914 3.225231953817823 9.471683019320258 -1.825006187640046 2.7321065277077747 -0.8865066310929374 6.773982657522341" Properties=species:S:1:pos:R:3 unique_starting_index=194 config_type=initial n_minim_iter=2 stress="0.0007271773619960452 6.467492711968465e-05 0.00026724807303559806 6.467492711968465e-05 0.0009636693659803873 7.063132046582182e-05 0.00026724807303559806 7.063132046582182e-05 0.0009510982474109545" pbc="T T T"
Si       6.10153286       1.00789526       1.50111485
Si       6.90449746       4.61550647       5.34573143
Si       5.78333794       3.35108742       1.59703138
Si       3.11086837       0.04081687       5.79229821
Si       7.38907772       7.66581672       2.96912590
Si       7.67608778       9.76958644       1.23794866
Si       4.22529503       1.41996931      -1.39465879
Si       2.23786506       3.20810823       3.57891043
Si       4.83317952       7.03142686       0.25660622
Si       5.70729137       9.26228559       0.03198891
Si       2.44447949       1.48934982       0.20231240
Si       5.23757637       4.39651297       3.63519374
Si       8.11836218       4.33501091       1.45623980
Si       3.98240729       3.67545572       0.06262159
Si       6.25036750       5.92351584       1.82089333
Si       9.44134030       8.25502174       2.08625775
Si       7.38882683       1.76048632       3.44927806
Si       4.16819977       2.19637327       4.45146025
18
Lattice="6.167729425652591 0.6237352463937984 0.15544454938976834 3.239476594420343 9.464322885283456 -1.8247239523768854 2.7388746510710016 -0.8859967077544078 6.762669526434343" Properties=species:S:1:pos:R:3 unique_starting_index=194 config_type=initial n_minim_iter=3 stress="-0.000321294650105654 0.0007801651092445947 0.0013164292913474562 0.0007801651092445947 -0.0007580567527302332 -0.00045830379428245005 0.0013164292913474562 -0.00045830379428245005 -0.0011075361639939195" pbc="T T T"
Si       6.10704861       1.01342135       1.50485622
Si       6.92075331       4.61395400       5.33461641
Si       5.79339048       3.35413516       1.59690195
Si       3.11908834       0.04115659       5.78244676
Si       7.40942952       7.66179659       2.96551567
Si       7.69706749       9.76655018       1.23468201
Si       4.22959296       1.42634743      -1.38915444
Si       2.24870057       3.20338515       3.57249961
Si       4.84743395       7.03023539       0.25491517
Si       5.72379806       9.25763454       0.03017112
Si       2.44932853       1.49119739       0.20205308
Si       5.25223897       4.39427654       3.63030084
Si       8.13290676       4.34023943       1.45699243
Si       3.99059440       3.67630313       0.06218485
Si       6.26476516       5.92296678       1.81802628
Si       9.45941653       8.25540552       2.08632558
Si       7.39781639       1.76719830       3.44936911
Si       4.17708964       2.19596218       4.44344764
18
Lattice="6.193717875967441 0.6294925088275211 0.13264657553786174 3.2694712582838252 9.45840686298483 -1.8338336228975791 2.7246495704549067 -0.8826711352021368 6.741008766281391" Properties=species:S:1:pos:R:3 unique_starting_index=194 config_type=initial n_minim_iter=4 stress="0.0012305681449175225 0.0007495411105195709 -0.0013806909916489263 0.0007495411105195709 -0.00020078071173385567 0.0004033418589193174 -0.0013806909916489263 0.0004033418589193174 -0.00039070966796384476" pbc="T T T"
Si       6.12182055       1.01527694       1.48870079
Si       6.93431500       4.61116051       5.28870779
Si       5.81399445       3.35901875       1.57356869
Si       3.11365716       0.04398440       5.75994728
Si       7.44372836       7.65304781       2.93829861
Si       7.73603275       9.76611514       1.19983985
Si       4.25657534       1.43491514      -1.40308085
Si       2.25456064       3.19737631       3.56303543
Si       4.87635299       7.03606282       0.23320631
Si       5.75424350       9.25470583       0.00650292
Si       2.46325541       1.49451537       0.18838129
Si       5.27104611       4.39072106       3.61013539
Si       8.17155175       4.34668586       1.42240849
Si       4.01146835       3.67811497       0.04171430
Si       6.28974139       5.92357175       1.78917188
Si       9.48998287       8.25603156       2.05489167
Si       7.40980975       1.77759738       3.42436971
Si       4.17529769       2.19720745       4.41744093
18
Lattice="6.180079008828314 0.6168821616203991 0.1430508135831262 3.2398040352022766 9.45974104599562 -1.8366977852094015 2.7326083274222825 -0.8933898557243406 6.7549986204683155" Properties=species:S:1:pos:R:3 unique_starting_index=194 config_type=initial n_minim_iter=5 stress="8.778827273350296e-05 -0.00030845648404576997 -0.00011964341830614875 -0.00030845648404576997 -4.557568943506452e-05 -3.854129404028522e-05 -0.00011964341830614875 -3.854129404028522e-05 0.00021037150662645652" pbc="T T T"
Si       6.10879117       1.00158365       1.50212452
Si       6.92010798       4.59614207       5.30266060
Si       5.79777472       3.34912235       1.58324989
Si       3.11755119       0.03358169       5.77264522
Si       7.41906978       7.63894437       2.95151741
Si       7.70175661       9.75639715       1.20713209
Si       4.24318952       1.42907275      -1.39780474
Si       2.25044985       3.19132617       3.57009438
Si       4.85179462       7.03260532       0.23658463
Si       5.72246022       9.25001016       0.01042475
Si       2.45574682       1.49089160       0.19076282
Si       5.25833860       4.37956446       3.62228780
Si       8.14958098       4.33214406       1.43489898
Si       3.99568175       3.67257834       0.04526532
Si       6.26765648       5.91340185       1.79786965
Si       9.45510678       8.24048528       2.06963349
Si       7.39534874       1.76260661       3.44126820
Si       4.16910413       2.18717392       4.42861417
18
Lattice="6.166241792629484 0.6237074550217315 0.14935140589126744 3.2392842493142346 9.476870707148592 -1.8274937085926963 2.731865567701818 -0.8880266398905986 6.756453753564936" Properties=species:S:1:pos:R:3 unique_starting_index=194 config_type=initial n_minim_iter=6 stress="-0.0011672318293144749 0.00044976567578809326 0.00045159409171806 0.00044976567578809326 0.0009533905064183835 0.00026521117671736004 0.00045159409171806 0.00026521117671736004 -0.00044787108938539836" pbc="T T T"
Si       6.09837322       1.01091952       1.50734217
Si       6.91563355       4.61586564       5.31446618
Si       5.78913199       3.36210014       1.58910180
Si       3.11572933       0.03885379       5.77584094
Si       7.41038599       7.65750144       2.96657954
Si       7.69183182       9.77852825       1.21992152
Si       4.23418787       1.43455870      -1.38995811
Si       2.25167355       3.20031706       3.57051650
Si       4.84409804       7.04833276       0.24560940
Si       5.71685593       9.27379227       0.02294336
Si       2.45052819       1.49553777       0.19382728
Si       5.25306829       4.39271222       3.63021156
Si       8.13654319       4.34689536       1.44638428
Si       3.99036698       3.68230493       0.05120422
Si       6.26017942       5.92916634       1.80601673
Si       9.44440953       8.26349124       2.08162647
Si       7.38227245       1.77542401       3.44614370
Si       4.16669056       2.19728169       4.43489918
18
Lattice="6.1778573573515825 0.6182428187486103 0.1550792930559243 3.2383267203712687 9.448418390861725 -1.8381790030493181 2.7445482740864224 -0.895355729471302 6.768037829898308" Properties=species:S:1:pos:R:3 unique_starting_index=194 config_type=initial n_minim_iter=7 stress="-9.205717706625463e-05 0.000111136573772355 0.0009462550759466794 0.000111136573772355 -0.0007920621930395374 -0.001032269661134228 0.0009462550759466794 -0.001032269661134228 0.0001721005032395828" pbc="T T T"
Si       6.11226409       1.00426364       1.51407430
Si       6.93640668       4.59480686       5.32424965
Si       5.80056212       3.34941955       1.58971137
Si       3.12843932       0.02689743       5.78661976
Si       7.42243022       7.61839549       2.97638188
Si       7.69849941       9.74055057       1.21505804
Si       4.24266079       1.43133399      -1.38439901
Si       2.25929268       3.18235509       3.56752580
Si       4.84442883       7.02573725       0.24073400
Si       5.72003223       9.24865175       0.01859386
Si       2.45325768       1.48996097       0.19324093
Si       5.26496878       4.36823479       3.63649423
Si       8.15394500       4.32647742       1.45215475
Si       3.99744434       3.66942783       0.04832063
Si       6.27063873       5.90393628       1.80371414
Si       9.46080467       8.22979426       2.08162701
Si       7.39515864       1.76512327       3.45224332
Si       4.17918636       2.18171475       4.44312508
18
Lattice="6.19124895611452 0.614228084368421 0.15939518669271052 3.238862792710994 9.433661494615706 -1.8182639653868475 2.755062811356863 -0.8852754088401393 6.7569857400363" Properties=species:S:1:pos:R:3 unique_starting_index=194 config_type=initial n_minim_iter=8 stress="0.00047619685087227755 -0.00035880277589292003 0.0009856108828622705 -0.00035880277589292003 -0.0005659995579393238 0.00028641979202501344 0.0009856108828622705 0.00028641979202501344 -0.0005574910185793817" pbc="T T T"
Si       6.12362652       1.00201595       1.52137705
Si       6.95791633       4.59583829       5.32254752
Si       5.81220122       3.35050184       1.59241502
Si       3.14107444       0.03059365       5.77977120
Si       7.43930411       7.59572557       3.00134605
Si       7.70682153       9.72551466       1.22851663
Si       4.25526243       1.43059971      -1.37301779
Si       2.26970123       3.17838693       3.56507956
Si       4.84632736       7.02315260       0.25137259
Si       5.72237102       9.24290635       0.03683687
Si       2.45750987       1.48920503       0.19250126
Si       5.28028425       4.35920030       3.64682758
Si       8.17705800       4.31981150       1.46115076
Si       4.00636828       3.66485987       0.05031094
Si       6.28125186       5.89512116       1.80767121
Si       9.47230373       8.21776290       2.09913503
Si       7.40230476       1.77097578       3.45508864
Si       4.18825896       2.18260031       4.44201669
18
Lattice="6.197005281167926 0.6223698661731336 0.15086692374640348 3.257431926206837 9.432983550890079 -1.8370929439410708 2.747736032164194 -0.8914233865712655 6.754004772443372" Properties=species:S:1:pos:R:3 unique_starting_index=194 config_type=initial n_minim_iter=9 stress="-8.343041128289613e-05 0.0001659343835279759 -0.0004844498578297713 0.0001659343835279759 0.0002665893849779155 -0.00024769241523142123 -0.0004844498578297713 -0.00024769241523142123 1.7625322116645713e-05" pbc="T T T"
Si       6.12290483       1.00737600       1.52136196
Si       6.97522404       4.59613501       5.29554915
Si       5.81948722       3.36447594       1.57323747
Si       3.14116696       0.01848658       5.77651965
Si       7.45949371       7.56548645       3.00571781
Si       7.71889514       9.72209865       1.19538411
Si       4.27184194       1.44782901      -1.37284844
Si       2.28228077       3.16434911       3.55314731
Si       4.85178254       7.03811477       0.22878564
Si       5.73116334       9.25588082       0.01568534
Si       2.46063930       1.49546247       0.17841320
Si       5.29520380       4.34293397       3.64593309
Si       8.20166651       4.32655572       1.44215849
Si       4.01937919       3.66998959       0.02818791
Si       6.29096312       5.89281999       1.77810864
Si       9.47662010       8.21896423       2.08013246
Si       7.38616846       1.78688289       3.44623105
Si       4.18606968       2.17660815       4.43274217
18
Lattice="6.2115216086664224 0.6200288772974538 0.1648046417924999 3.2617120748515225 9.382574055848142 -1.8129017191811192 2.767768814444562 -0.8730321296118059 6.764042995685269" Properties=species:S:1:pos:R:3 unique_starting_index=194 config_type=initial n_minim_iter=10 stress="0.0005129238395336266 -6.058562482016694e-05 -0.00021861124263753925 -6.058562482016694e-05 -0.0004734510370252789 0.0013388269077027003 -0.00021861124263753925 0.0013388269077027003 0.0004814661993583571" pbc="T T T"
Si       6.13459659       1.01061950       1.54273895
Si       7.02701799       4.59611674       5.31338754
Si       5.83690620       3.37271108       1.58019884
Si       3.16597607       0.01447692       5.79257734
Si       7.49121926       7.48433043       3.08413878
Si       7.72801673       9.66836708       1.22490188
Si       4.29338992       1.45107606      -1.35390544
Si       2.30751983       3.14900999       3.55863108
Si       4.84851877       7.02524102       0.24866276
Si       5.73072923       9.22914287       0.04822964
Si       2.46055506       1.49466023       0.17581832
Si       5.32724078       4.30465969       3.68954806
Si       8.24433048       4.30844743       1.46442358
Si       4.03854266       3.65649987       0.02752251
Si       6.30589145       5.86144709       1.78165095
Si       9.48370994       8.18276058       2.12539465
Si       7.37582083       1.80291487       3.47108271
Si       4.20572148       2.16911654       4.45231306
18
Lattice="6.232693946546168 0.6068090803074148 0.17938429000565725 3.2504738148261505 9.359076611040939 -1.8137988213628773 2.796906351491925 -0.8876480917125585 6.748273831594688" Properties=species:S:1:pos:R:3 unique_starting_index=194 config_type=initial n_minim_iter=11 stress="0.0022632199152592394 -0.0010648454682474408 -0.0002860048751105664 -0.0010648454682474408 0.0009920704686252277 0.0010622967936267287 -0.0002860048751105664 0.0010622967936267287 -0.0018319917444856576" pbc="T T T"
Si       6.14911156       1.00556556       1.55414932
Si       7.10249052       4.58959006       5.28811344
Si       5.85642288       3.39208291       1.56110876
Si       3.20084001      -0.03200567       5.78796945
Si       7.52410696       7.35938169       3.15761402
Si       7.72188624       9.61701418       1.21751042
Si       4.32460579       1.46027103      -1.33099069
Si       2.33799507       3.12687153       3.53078835
Si       4.82738101       7.03534571       0.24460243
Si       5.71097041       9.22593049       0.05140342
Si       2.45317554       1.49669826       0.16252701
Si       5.36923739       4.23456644       3.71827910
Si       8.30390992       4.28063021       1.46293494
Si       4.06485237       3.64873796       0.00564856
Si       6.31583487       5.82422846       1.74032488
Si       9.47161262       8.14549812       2.14151735
Si       7.34669707       1.80744124       3.47958068
Si       4.23345196       2.13748330       4.44818593
18
Lattice="6.227104008634878 0.605911484825128 0.1983815804312217 3.24497159524541 9.313872698266279 -1.8115814657647256 2.814510944067458 -0.8843309663758786 6.774512182867536" Properties=species:S:1:pos:R:3 unique_starting_index=194 config_type=initial n_minim_iter=12 stress="0.0024745888244736055 -0.0010175685795121834 -8.481352529829055e-05 -0.0010175685795121834 -0.0009397729826207763 0.0013003999575686286 -8.481352529829055e-05 0.0013003999575686286 -0.001391911746969087" pbc="T T T"
Si       6.13771618       1.01580144       1.57481768
Si       7.15914386       4.59568838       5.30667712
Si       5.85793371       3.41755763       1.55924947
Si       3.22277200      -0.06601055       5.82018785
Si       7.54052272       7.23416928       3.26335748
Si       7.70612086       9.55817396       1.23765579
Si       4.33617126       1.47016681      -1.31698142
Si       2.36596327       3.10951455       3.53156730
Si       4.80221807       7.03500298       0.25707559
Si       5.68809014       9.20544318       0.06985734
Si       2.43712786       1.49956236       0.15532701
Si       5.39906831       4.16826963       3.77841588
Si       8.33480353       4.26133740       1.47765100
Si       4.08234853       3.64032488      -0.00847336
Si       6.31184550       5.78852847       1.71977625
Si       9.43349787       8.11075556       2.18648889
Si       7.29060573       1.82689392       3.51541798
Si       4.25037270       2.11543595       4.47632560
18
Lattice="6.185537326044821 0.6071946442413532 0.21858295884524043 3.219685449453676 9.312002318779175 -1.822702872756878 2.818025654238539 -0.8927420528860989 6.8151722971794895" Properties=species:S:1:pos:R:3 unique_starting_index=194 config_type=initial n_minim_iter=13 stress="0.001452621016794333 -0.0007996852891744776 0.0003283053358405317 -0.0007996852891744776 -0.0011471501461087102 0.0008612968156959833 0.0003283053358405317 0.0008612968156959833 -0.0003135799442538384" pbc="T T T"
Si       6.08952223       1.03486273       1.58759289
Si       7.17659157       4.62489850       5.33639088
Si       5.82612207       3.45731465       1.55952729
Si       3.22562866      -0.11426815       5.86353969
Si       7.51006164       7.13476218       3.36657336
Si       7.65217071       9.54292072       1.25951663
Si       4.31462354       1.48059190      -1.31767039
Si       2.37811739       3.11124379       3.53603475
Si       4.75291249       7.06050118       0.27143122
Si       5.63630542       9.21695294       0.07917968
Si       2.40446553       1.50688563       0.15234667
Si       5.40058514       4.11256271       3.84103547
Si       8.31312193       4.25956037       1.48790326
Si       4.07931551       3.64974959      -0.02362099
Si       6.27496030       5.78181188       1.69600862
Si       9.33652788       8.11187497       2.22934687
Si       7.19514781       1.84786280       3.55829613
Si       4.24845554       2.09632073       4.51176856
18
Lattice="6.081927625113602 0.6208078918007147 0.23440368068362238 3.1766854710903076 9.371171113001237 -1.8548593490491858 2.78755555221734 -0.9093852593073409 6.88739387716495" Properties=species:S:1:pos:R:3 unique_starting_index=194 config_type=initial n_minim_iter=14 stress="-0.0024275974436144356 0.0009569599392811112 0.0005028516022195338 0.0009569599392811112 0.0006574676271881635 -5.90565131720862e-05 0.0005028516022195338 -5.90565131720862e-05 0.002471353060861731" pbc="T T T"
Si       5.97852962       1.07803254       1.57796111
Si       7.11005324       4.69802712       5.39686499
Si       5.74005831       3.51174164       1.57317814
Si       3.18457601      -0.17224461       5.92739988
Si       7.39795750       7.10892686       3.43939582
Si       7.55393549       9.60554716       1.29129522
Si       4.22700929       1.48571266      -1.35884031
Si       2.35685645       3.15188633       3.55680615
Si       4.68303408       7.11122062       0.29720052
Si       5.55756137       9.26355362       0.07341680
Si       2.34972506       1.51857691       0.16406680
Si       5.34844932       4.09104213       3.89780212
Si       8.19004638       4.29495775       1.48845423
Si       4.04134111       3.68854465      -0.03436491
Si       6.19295462       5.83294790       1.68280342
Si       9.15746384       8.17578645       2.26566727
Si       7.05258068       1.87277892       3.61132847
Si       4.21008094       2.09229574       4.56266669
18
Lattice="6.045204893272061 0.6183012351497862 0.2528097049610164 3.146343914342461 9.40213861724142 -1.9068780728632997 2.796466662751733 -0.9585900719178208 6.901246999286478" Properties=species:S:1:pos:R:3 unique_starting_index=194 config_type=initial n_minim_iter=15 stress="-0.0024623378638027734 0.0013042028015313317 0.0012755809349097242 0.0013042028015313317 -0.0014108359010280278 -0.003460341726984987 0.0012755809349097242 -0.003460341726984987 -0.0001271634683887824" pbc="T T T"
Si       5.91303869       1.11065649       1.57044506
Si       7.12801998       4.74295040       5.38633934
Si       5.71168154       3.55111867       1.56761617
Si       3.19158039      -0.29887774       5.93247784
Si       7.35766322       6.96312089       3.50466713
Si       7.51614634       9.62442131       1.25759353
Si       4.17907003       1.49261630      -1.38644861
Si       2.38441879       3.14625188       3.51252720
Si       4.63705745       7.14431864       0.30150011
Si       5.50788215       9.29426090       0.03528923
Si       2.32072788       1.52143002       0.16255020
Si       5.37877360       3.98809375       3.92725927
Si       8.16546851       4.29898931       1.46413235
Si       4.05471631       3.72240447      -0.09253230
Si       6.18289566       5.85788230       1.61980029
Si       9.03292859       8.17003583       2.26915955
Si       6.96080465       1.89318130       3.63080934
Si       4.20723815       2.04942976       4.56813774
18
Lattice="6.040575153412087 0.614576736239075 0.2454243431938703 3.1379664094252986 9.430359192722268 -1.922872181396818 2.7887027072363693 -0.9746947064892366 6.889607403322525" Properties=species:S:1:pos:R:3 unique_starting_index=194 config_type=initial n_minim_iter=16 stress="-0.0010842614627618436 0.0008841162428693817 0.0006249701377002075 0.0008841162428693817 0.0001934633283764261 -0.004344197275713165 0.0006249701377002075 -0.004344197275713165 -0.0020505741423369962" pbc="T T T"
Si       5.89640083       1.11708119       1.55306220
Si       7.09294456       4.75569464       5.37516755
Si       5.70347831       3.53758802       1.57781840
Si       3.17911386      -0.32821428       5.90789824
Si       7.32771427       6.98821221       3.45011376
Si       7.51944086       9.66494016       1.23377436
Si       4.14789083       1.47845799      -1.41298697
Si       2.37757443       3.15425722       3.49680503
Si       4.64135984       7.13991410       0.30740453
Si       5.50871014       9.30373522       0.01414555
Si       2.32442857       1.51435407       0.17173476
Si       5.37573047       3.98857587       3.89473067
Si       8.13548580       4.30763675       1.44582775
Si       4.05186797       3.73725117      -0.10666352
Si       6.19329640       5.89049272       1.62084871
Si       9.01362294       8.17385205       2.24535571
Si       6.97759437       1.88481209       3.61307738
Si       4.19243441       2.04889503       4.55365652
18
Lattice="6.04284402906156 0.6075420094100339 0.25459506145212635 3.127879077530453 9.4020805140733 -1.8999892881105813 2.799076187236835 -0.959922848046558 6.900908065947815" Properties=species:S:1:pos:R:3 unique_starting_index=194 config_type=initial n_minim_iter=17 stress="-0.0010609288678279432 0.0005417617922160037 0.0009737286543346725 0.0005417617922160037 -0.0015298733728832733 -0.002759965336088075 0.0009737286543346725 -0.002759965336088075 -0.001263260268599759" pbc="T T T"
Si       5.87587293       1.13337205       1.57025429
Si       7.10988789       4.78810379       5.39574497
Si       5.70382723       3.54259008       1.60491613
Si       3.19166522      -0.36933204       5.90848329
Si       7.31992023       6.90547500       3.52312615
Si       7.51605401       9.65241143       1.24850584
Si       4.13402475       1.46886371      -1.41558080
Si       2.40401555       3.14366284       3.49237422
Si       4.62686738       7.13042828       0.35290709
Si       5.49274630       9.29956981       0.04711566
Si       2.32394071       1.50691542       0.17468386
Si       5.41385103       3.93729898       3.93572972
Si       8.14723818       4.30080447       1.46051806
Si       4.06832554       3.74298160      -0.12942411
Si       6.21880986       5.89658038       1.63321322
Si       8.97490978       8.13283607       2.29254647
Si       6.96425540       1.91104131       3.62965651
Si       4.18608209       2.04662067       4.57801346
18
Lattice="6.073249857782288 0.5955029253638988 0.24941338560961923 3.1293470932187124 9.363867570447935 -1.8478548672923503 2.80510428381151 -0.9226150393341642 6.890826871462339" Properties=species:S:1:pos:R:3 unique_starting_index=194 config_type=initial n_minim_iter=18 stress="0.0003444049141921464 -0.0005704241400998982 0.000296198613172944 -0.0005704241400998982 -1.2162610119015957e-05 0.0004984003203259191 0.000296198613172944 0.0004984003203259191 -0.0003681343505949699" pbc="T T T"
Si       5.89342545       1.13547455       1.58049437
Si       7.12648628       4.80849539       5.40241307
Si       5.72210312       3.53203196       1.62840701
Si       3.20073349      -0.36289284       5.89279159
Si       7.32797468       6.88374461       3.56191734
Si       7.53104033       9.63360472       1.27059271
Si       4.14877904       1.45128369      -1.40568624
Si       2.41691259       3.13754342       3.49979948
Si       4.63182642       7.10820321       0.40283305
Si       5.49680386       9.29005629       0.10125122
Si       2.33740044       1.49602293       0.17343397
Si       5.44729931       3.92874117       3.95567757
Si       8.18282648       4.28816997       1.47510347
Si       4.08478259       3.73355011      -0.13084810
Si       6.26281401       5.89352328       1.67113741
Si       8.99586489       8.08785697       2.32887402
Si       7.00601690       1.92310720       3.62266949
Si       4.17628643       2.06133938       4.59603641
18
Lattice="6.087365900474452 0.5840009143964591 0.24316603592389383 3.1244578804939636 9.315138117068232 -1.79436838931947 2.8015804151098838 -0.8785206975923286 6.898469432553717" Properties=species:S:1:pos:R:3 unique_starting_index=194 config_type=initial n_minim_iter=19 stress="0.0002741028505581433 -5.8994015302819895e-05 -0.0003563941041265029 -5.8994015302819895e-05 0.0006498469532833184 0.0031972615700779547 -0.0003563941041265029 0.0031972615700779547 0.002117339659057559" pbc="T T T"
Si       5.89259809       1.16099238       1.57328632
Si       7.15556615       4.86938665       5.40906398
Si       5.72405637       3.54822087       1.64802275
Si       3.19593835      -0.38941762       5.89754195
Si       7.30578025       6.81185086       3.65215476
Si       7.52025175       9.60565213       1.30365244
Si       4.15399721       1.43001551      -1.40780103
Si       2.42479074       3.14235926       3.51247648
Si       4.61611699       7.08911301       0.48148871
Si       5.47491579       9.28387570       0.17192237
Si       2.32915117       1.48542973       0.16269709
Si       5.48726769       3.89012573       4.00568372
Si       8.21067831       4.27321885       1.47551770
Si       4.10312136       3.72731241      -0.14278215
Si       6.30999596       5.89293683       1.70199242
Si       8.96928334       8.03195931       2.37819989
Si       7.01701586       1.93965521       3.62180967
Si       4.14946979       2.06389058       4.64576362
18
Lattice="6.117505831406265 0.570581527642671 0.22807090183455306 3.1275188460242593 9.275600037722608 -1.775330738648892 2.799155551318057 -0.86308204547721 6.8798542051417675" Properties=species:S:1:pos:R:3 unique_starting_index=194 config_type=initial n_minim_iter=20 stress="0.001246201027399313 -0.00048203089272191017 -0.0013486951094336037 -0.00048203089272191017 0.001265650486907868 0.0028270740854480446 -0.0013486951094336037 0.0028270740854480446 0.0019013385432286884" pbc="T T T"
Si       5.92517248       1.15681632       1.55054732
Si       7.17794654       4.86906873       5.37201115
Si       5.73884856       3.53843750       1.63895540
Si       3.18708094      -0.38908959       5.88550611
Si       7.30501561       6.80019279       3.64162901
Si       7.53041092       9.56677869       1.30038255
Si       4.17869733       1.41110650      -1.40677240
Si       2.41354192       3.14081705       3.51857988
Si       4.62667227       7.05529711       0.50424235
Si       5.47603397       9.25371835       0.19365887
Si       2.33071315       1.47494417       0.14567334
Si       5.50446436       3.88035151       3.99703862
Si       8.24484865       4.24587898       1.45191140
Si       4.11141671       3.70581473      -0.14019935
Si       6.35043117       5.86894515       1.71269546
Si       8.99776532       7.98138906       2.36518657
Si       7.07020137       1.91042693       3.59470191
Si       4.13378044       2.05304464       4.65576079
18
Lattice="6.125635905681982 0.5615835465634513 0.22602623079076894 3.120175937577642 9.25962437125317 -1.777631603522157 2.802656896657036 -0.8688491739961807 6.867852344270093" Properties=species:S:1:pos:R:3 unique_starting_index=194 config_type=initial n_minim_iter=21 stress="0.0006357336167577741 -0.00020632251122833475 -0.0006024121448907957 -0.00020632251122833475 0.00035161279049603555 0.001472781976975111 -0.0006024121448907957 0.001472781976975111 0.0006272315685520747" pbc="T T T"
Si       5.93337378       1.15783659       1.53390624
Si       7.20113548       4.87481812       5.33591654
Si       5.73981057       3.54365732       1.62773162
Si       3.17950660      -0.41254087       5.88238669