8
Lattice="5.019671083587021 0.36383395043916794 -0.5878826304484874 1.8308679852078815 6.853610872872188 -1.373715093287359 0.5363150060661939 0.9025457202038816 5.224423415352464" Properties=species:S:1:pos:R:3 unique_starting_index=84 config_type=initial n_minim_iter=1 energy=-1303.641265082299 free_energy=-1303.641265082299 pbc="T T T"
Si       4.36048045       4.29002679      -1.08064882
Si       3.02637363       3.82996376       4.34347451
Si       3.42377019       0.82153551      -0.61212779
Si       3.96308389       7.29845503       3.87495348
Si       2.08975601       6.90297379       2.36425931
Si       5.29709807       1.21701676       0.89856638
Si       6.39969379       4.99161483       2.24788992
Si       0.98716028       3.12837571       1.01493577
8
Lattice="5.020812756601288 0.3558931532289462 -0.5938388869856366 1.8219794417536428 6.853616536965203 -1.374505764274669 0.5278178844078731 0.9017174020878499 5.2154395067068045" Properties=species:S:1:pos:R:3 unique_starting_index=84 config_type=initial n_minim_iter=2 stress="-0.000480524993914836 -0.00020823573407617254 -0.0002838714025320387 -0.00020823573407617254 9.660940775013568e-06 0.00021954935556267165 -0.0002838714025320387 0.00021954935556267165 0.00015409906373830122" pbc="T T T"
Si       4.35546736       4.28433635      -1.08525209
Si       3.01514273       3.82689075       4.33234694
Si       3.42394668       0.81645520      -0.61549714
Si       3.94666341       7.29477189       3.86259199
Si       2.07666586       6.90231858       2.35712881
Si       5.29394422       1.20890852       0.88996604
Si       6.38974218       4.98316207       2.23481514
Si       0.98086790       3.12806502       1.01227971
8
Lattice="5.027241822134594 0.3564952562886135 -0.5919274569391827 1.8242404314214498 6.8552297177053285 -1.3767770265728159 0.5302329705903065 0.898726968761363 5.210434030280754" Properties=species:S:1:pos:R:3 unique_starting_index=84 config_type=initial n_minim_iter=3 stress="0.0004885040223658716 -0.00023338125844264235 -1.8863335319491885e-06 -0.00023338125844264235 0.0004004447549271026 -0.0001881382297479992 -1.8863335319491885e-06 -0.0001881382297479992 7.778781779283115e-05" pbc="T T T"
Si       4.36058203       4.28519289      -1.08582558
Si       3.02113319       3.82525905       4.32755512
Si       3.42820821       0.81732598      -0.61415237
Si       3.95350701       7.29312596       3.85588192
Si       2.08168051       6.90179328       2.35153163
Si       5.30003472       1.20865866       0.89019792
Si       6.39893227       4.98273965       2.23122185
Si       0.98278296       3.12771229       1.01050770
8
Lattice="5.027507909935775 0.35958416883797356 -0.5896454120915404 1.8285501780078797 6.84925487901431 -1.3751828914760642 0.5324682660345099 0.8975054296920907 5.203499058079485" Properties=species:S:1:pos:R:3 unique_starting_index=84 config_type=initial n_minim_iter=4 stress="-0.00037552382050116024 8.355299756450954e-05 0.00011363616823234614 8.355299756450954e-05 -0.0011774440853973204 -0.00028729006126111407 0.00011363616823234614 -0.00028729006126111407 -0.001185720060449928" pbc="T T T"
Si       4.36246972       4.28282086      -1.08415883
Si       3.02605663       3.82352362       4.32282958
Si       3.42834896       0.81937817      -0.61194034
Si       3.96017740       7.28696631       3.85061109
Si       2.08963321       6.89554327       2.34818777
Si       5.29889315       1.21080121       0.89048298
Si       6.40326032       4.98188099       2.22858554
Si       0.98526603       3.12446349       1.01008521
8
Lattice="5.029488992510981 0.36332609409148386 -0.5893385245795347 1.8342639479839329 6.854841499609975 -1.372014531309 0.5338663986803626 0.9015661359206627 5.207670869654253" Properties=species:S:1:pos:R:3 unique_starting_index=84 config_type=initial n_minim_iter=5 stress="0.0005030584777934238 0.00016454393263350839 -0.00017312573660599118 0.00016454393263350839 -0.00011405068210358308 4.291080446538021e-06 -0.00017312573660599118 4.291080446538021e-06 -7.96016184048115e-05" pbc="T T T"
Si       4.36605043       4.28736514      -1.08271674
Si       3.03156891       3.83236859       4.32903456
Si       3.42943358       0.82285122      -0.61086640
Si       3.96818576       7.29688251       3.85718422
Si       2.09938150       6.90345538       2.35396240
Si       5.29823784       1.21627835       0.89235541
Si       6.40977179       4.99243255       2.23241428
Si       0.98784755       3.12730118       1.01390354
8
Lattice="5.024054982702761 0.3628125829836039 -0.5860374212569821 1.8304897692628448 6.8588348917448 -1.371145427206887 0.5368666986384919 0.9021346057299239 5.210050246500915" Properties=species:S:1:pos:R:3 unique_starting_index=84 config_type=initial n_minim_iter=6 stress="-9.296931853381121e-05 -0.00013060360150104734 0.0002041182799172708 -0.00013060360150104734 0.0003488815308815128 -4.892491597537274e-05 0.0002041182799172708 -4.892491597537274e-05 4.648480217914779e-05" pbc="T T T"
Si       4.36028252       4.28867375      -1.08029131
Si       3.03112893       3.83510833       4.33315871
Si       3.42514339       0.82273127      -0.60848671
Si       3.96626806       7.30105081       3.86135410
Si       2.09954681       6.90747623       2.35664277
Si       5.29186464       1.21630585       0.89622463
Si       6.40469898       4.99520492       2.23743861
Si       0.98671247       3.12857717       1.01542879
8
Lattice="5.025438302397728 0.364623320429642 -0.5879132633893823 1.834241937522331 6.854638828074231 -1.3715054619119762 0.5355706057594571 0.9022782675332051 5.211700804217228" Properties=species:S:1:pos:R:3 unique_starting_index=84 config_type=initial n_minim_iter=7 stress="-0.00010043060680454316 0.00010238885433843361 -0.0002275377224756681 0.00010238885433843361 -0.00021677374880249816 0.00014302381998527346 -0.0002275377224756681 0.00014302381998527346 0.00015358357149128474" pbc="T T T"
Si       4.36417803       4.28700607      -1.08168464
Si       3.03107282       3.83453434       4.33396672
Si       3.42621502       0.82332333      -0.60991019
Si       3.96903582       7.29821709       3.86219227
Si       2.10371421       6.90371227       2.35769358
Si       5.29153663       1.21782815       0.89458850
Si       6.40847908       4.99534310       2.23618841
Si       0.98677176       3.12619732       1.01609367
8
Lattice="5.0268050744714 0.3646985215638535 -0.5853171375397607 1.8339923647038712 6.855913362582667 -1.3719145500574748 0.5382224759280846 0.9008731195255256 5.20904061665685" Properties=species:S:1:pos:R:3 unique_starting_index=84 config_type=initial n_minim_iter=8 stress="-2.9054745972396864e-05 0.00011088844935451018 -2.8804876116163423e-05 0.00011088844935451018 4.6312505200622635e-05 1.239246561773271e-05 -2.8804876116163423e-05 1.239246561773271e-05 -0.0001857514700594144" pbc="T T T"
Si       4.36641670       4.28732999      -1.08027997
Si       3.03260321       3.83415502       4.33208890
Si       3.42681824       0.82297411      -0.60869682
Si       3.97220168       7.29851089       3.86050575
Si       2.10731336       6.90409593       2.35562674
Si       5.29170656       1.21738908       0.89618218
Si       6.41325730       4.99602620       2.23632278
Si       0.98576261       3.12545880       1.01548614
8
Lattice="5.026871139175153 0.3633648025049223 -0.5846195486549621 1.832063764902931 6.85393241593364 -1.372635013978395 0.5389628451766783 0.9000329815228191 5.210630305761543" Properties=species:S:1:pos:R:3 unique_starting_index=84 config_type=initial n_minim_iter=9 stress="8.981864728318692e-05 -8.984560124654642e-05 7.410989643862954e-05 -8.984560124654642e-05 -0.00011834336755523378 1.1223905423620021e-05 7.410989643862954e-05 1.1223905423620021e-05 4.460391736662087e-05" pbc="T T T"
Si       4.36547199       4.28527762      -1.08019098
Si       3.03242576       3.83205258       4.33356673
Si       3.42656581       0.82191980      -0.60858713
Si       3.97133194       7.29541040       3.86196287
Si       2.10651525       6.90178985       2.35599895
Si       5.29138250       1.21554035       0.89737679
Si       6.41323577       4.99309683       2.23751539
Si       0.98466198       3.12423337       1.01586035
8
Lattice="5.025020253358888 0.3637789830928938 -0.5849224583896172 1.8316082970560998 6.856224785756907 -1.3748774232850993 0.5387150761641221 0.8988337994026171 5.2115171282127335" Properties=species:S:1:pos:R:3 unique_starting_index=84 config_type=initial n_minim_iter=10 stress="-2.566319107439083e-05 5.512648742446846e-06 -4.6404366071874445e-05 5.512648742446846e-06 0.00015228023869310133 -0.00010485074976663853 -4.6404366071874445e-05 -0.00010485074976663853 0.0001323774682803213" pbc="T T T"
Si       4.36397632       4.28712275      -1.08158556
Si       3.03136731       3.83171482       4.33330280
Si       3.42522676       0.82262282      -0.60966539
Si       3.97011687       7.29621475       3.86138264
Si       2.10659178       6.90350581       2.35418817
Si       5.28875184       1.21533176       0.89752908
Si       6.41202298       4.99390524       2.23625309
Si       0.98332064       3.12493233       1.01546416
