22
Lattice="5.777766598515136 -1.1698268068243056 -1.2268688765917273 -1.9817733544676162 6.556927500010364 -2.3748951815222337 -3.0884004908280853 -3.793996810217871 15.060831309177562" Properties=species:S:1:pos:R:3 unique_starting_index=51 config_type=initial n_minim_iter=1 energy=-3582.486380789337 free_energy=-3582.486380789337 pbc="T T T"
Si       2.02676983       4.43392641      -0.63925551
Si      -1.00769682      -0.29064966       7.12112628
Si       0.52732221       3.46951022      -2.42376301
Si      -1.02328433       3.14370703       1.72091785
Si      -0.34380071       0.01127426       4.87497480
Si       3.20952066       0.26560997       5.86185102
Si      -0.27714952      -0.12115504      -0.28756061
Si      -0.03524395       2.27020554      -0.34785032
Si       1.60034395      -2.37440397       7.08179058
Si       0.90491224      -0.85299661      10.77126853
Si      -1.91763392       1.55046819      11.18471774
Si       3.64029880       1.29354473       3.75208161
Si      -0.04829294       1.88024657       3.46807924
Si      -0.00240516      -2.70812769      14.07655482
Si      -0.88352980      -1.95369993      11.99307855
Si       2.05453072       2.89373129       3.08207253
Si       0.23653967      -0.10607670       1.99760703
Si       2.62214034       1.06428310       8.00043971
Si       0.93045821      -0.51447210       8.43785880
Si       1.60738753      -1.24463081       4.89395051
Si       2.15527955       2.47730234       0.71523405
Si       2.47709766      -0.56457492       2.71236094
22
Lattice="5.776383883379813 -1.1682674411768796 -1.22275950081387 -1.9822867704273472 6.553730062602253 -2.3768770464230555 -3.0797692766802203 -3.7961632678767185 15.054440044159026" Properties=species:S:1:pos:R:3 unique_starting_index=51 config_type=initial n_minim_iter=2 stress="-0.0002783182216855521 -5.358859545994767e-05 -0.0001319444136056608 -5.358859545994767e-05 -0.0003294874788975768 2.5870181160547804e-05 -0.0001319444136056608 2.5870181160547804e-05 -0.0002811084381449899" pbc="T T T"
Si       2.02661752       4.43180245      -0.63897373
Si      -1.00348557      -0.29242807       7.11797837
Si       0.52628996       3.46834605      -2.42341677
Si      -1.02188710       3.14142106       1.71875998
Si      -0.34090734       0.00987305       4.87302787
Si       3.21262244       0.26429789       5.86142604
Si      -0.27732648      -0.12104219      -0.28767377
Si      -0.03518058       2.26907308      -0.34837827
Si       1.60397207      -2.37481061       7.08074900
Si       0.91097752      -0.85525946      10.76800004
Si      -1.91072469       1.54655161      11.17910754
Si       3.64237159       1.29232421       3.75239976
Si      -0.04611883       1.87827126       3.46630516
Si       0.00543865      -2.71025387      14.07212435
Si      -0.87668038      -1.95579171      11.98855474
Si       2.05632172       2.89151976       3.08136692
Si       0.23762207      -0.10654457       1.99706744
Si       2.62662452       1.06177644       7.99864999
Si       0.93528688      -0.51632545       8.43536886
Si       1.60982649      -1.24501964       4.89341345
Si       2.15579477       2.47591276       0.71563481
Si       2.47838640      -0.56478451       2.71292765
22
Lattice="5.777511267930777 -1.167628162206865 -1.220363182879453 -1.983163762623167 6.554968492634157 -2.3791448406416875 -3.0747558953238805 -3.799401490362208 15.05653562590008" Properties=species:S:1:pos:R:3 unique_starting_index=51 config_type=initial n_minim_iter=3 stress="0.0001370226435654428 -8.577217743168076e-06 0.00010783932796471292 -8.577217743168076e-06 -1.153951150347495e-05 -8.697771653779317e-05 0.00010783932796471292 -8.697771653779317e-05 0.00011085652364615309" pbc="T T T"
Si       2.02741921       4.43277961      -0.63886485
Si      -1.00076425      -0.29360954       7.11898799
Si       0.52589611       3.46944746      -2.42409499
Si      -1.02114257       3.14157800       1.71804995
Si      -0.33889930       0.00899483       4.87387569
Si       3.21610416       0.26388786       5.86377965
Si      -0.27757686      -0.12104319      -0.28795455
Si      -0.03502831       2.26955577      -0.34886932
Si       1.60711003      -2.37613620       7.08316735
Si       0.91574291      -0.85694168      10.77052323
Si      -1.90627817       1.54499377      11.18024134
Si       3.64538404       1.29254514       3.75437806
Si      -0.04450071       1.87803452       3.46670436
Si       0.01105705      -2.71270458      14.07529158
Si      -0.87205074      -1.95793780      11.99064594
Si       2.05845269       2.89174906       3.08240697
Si       0.23850044      -0.10688679       1.99760329
Si       2.63094055       1.06093255       8.00105957
Si       0.93918588      -0.51758241       8.43739704
Si       1.61211196      -1.24571523       4.89524612
Si       2.15709928       2.47638952       0.71641124
Si       2.48022847      -0.56508465       2.71455618
22
Lattice="5.775569102231537 -1.1668222389012182 -1.2193617910900356 -1.98122511987377 6.556563601399913 -2.3770419981975897 -3.0726746091386232 -3.798024475991216 15.050334482053808" Properties=species:S:1:pos:R:3 unique_starting_index=51 config_type=initial n_minim_iter=4 stress="-0.00012581057985863796 0.00014096547934589441 0.00015839693317960235 0.00014096547934589441 0.00026689198831239585 6.593978129694204e-05 0.00015839693317960235 6.593978129694204e-05 -0.00013301181839800588" pbc="T T T"
Si       2.02781789       4.43440247      -0.63705802
Si      -0.99920048      -0.29199949       7.11689991
Si       0.52674671       3.47100310      -2.42193508
Si      -1.01988667       3.14299975       1.71751542
Si      -0.33782565       0.00953586       4.87261941
Si       3.21614430       0.26660724       5.86197214
Si      -0.27773593      -0.12115826      -0.28853866
Si      -0.03407320       2.27069774      -0.34855065
Si       1.60667555      -2.37517200       7.08072404
Si       0.91709394      -0.85453511      10.76693425
Si      -1.90304390       1.54830837      11.17711250
Si       3.64616584       1.29586234       3.75361629
Si      -0.04375030       1.87955852       3.46627823
Si       0.01226422      -2.70965292      14.07063262
Si      -0.87025498      -1.95564384      11.98585986
Si       2.05851389       2.89412605       3.08264035
Si       0.23864636      -0.10666891       1.99715896
Si       2.63184647       1.06349172       7.99909882
Si       0.94050486      -0.51540406       8.43457526
Si       1.61142453      -1.24419850       4.89390570
Si       2.15758241       2.47784793       0.71760580
Si       2.47974791      -0.56427763       2.71387958
22
Lattice="5.780235594625088 -1.1674005926882218 -1.2229889830448089 -1.982980800093067 6.550772816427687 -2.376181059898695 -3.0816692493407856 -3.792205431296777 15.05691223872093" Properties=species:S:1:pos:R:3 unique_starting_index=51 config_type=initial n_minim_iter=5 stress="-0.0002729490469314783 5.262490559600328e-05 5.087354801687702e-05 5.262490559600328e-05 -0.00010375922551783856 5.4326682677669204e-05 5.087354801687702e-05 5.4326682677669204e-05 0.000295780180739182" pbc="T T T"
Si       2.02728211       4.42681042      -0.63715685
Si      -1.00255278      -0.29015419       7.12173507
Si       0.52923808       3.47002770      -2.42088752
Si      -1.02288229       3.14052244       1.71620944
Si      -0.33991487       0.00756624       4.87582608
Si       3.21416268       0.26695161       5.85989126
Si      -0.27816326      -0.12057493      -0.29123200
Si      -0.03284040       2.26970060      -0.35000326
Si       1.60241046      -2.37387486       7.08276516
Si       0.91271742      -0.85383920      10.76969421
Si      -1.90829526       1.55028649      11.18364027
Si       3.64926102       1.29738175       3.75081379
Si      -0.04769663       1.87738434       3.46856774
Si       0.00430546      -2.70331444      14.07728013
Si      -0.87572239      -1.95128180      11.98871707
Si       2.05424638       2.89065442       3.08372280
Si       0.23736188      -0.10777227       1.99845460
Si       2.62901112       1.05996078       8.00017382
Si       0.93836746      -0.51443594       8.43616725
Si       1.60725835      -1.24172389       4.89585355
Si       2.15876621       2.47349926       0.71897481
Si       2.47952918      -0.56545425       2.71329760
22
Lattice="5.784439565248317 -1.168184213537299 -1.2231262187112983 -1.984772847972759 6.551817379025244 -2.3749033764758414 -3.085866430678619 -3.7934599981400168 15.04818650179436" Properties=species:S:1:pos:R:3 unique_starting_index=51 config_type=initial n_minim_iter=6 stress="6.453101677319124e-05 -2.074280681538114e-05 6.012900665603121e-06 -2.074280681538114e-05 3.947568874533147e-05 2.6998451998496423e-05 6.012900665603121e-06 2.6998451998496423e-05 -0.0001329321297227447" pbc="T T T"
Si       2.02799007       4.42649197      -0.63732545
Si      -1.00433974      -0.29057672       7.11769739
Si       0.52990345       3.47095900      -2.41949817
Si      -1.02429130       3.14077198       1.71448988
Si      -0.34106950       0.00676480       4.87303662
Si       3.21509451       0.26617074       5.85504596
Si      -0.27831586      -0.12043043      -0.29143094
Si      -0.03272075       2.27015349      -0.35021558
Si       1.60217476      -2.37509057       7.07827564
Si       0.91170498      -0.85514540      10.76259719
Si      -1.91135203       1.55007468      11.17693941
Si       3.65127525       1.29716807       3.74722618
Si      -0.04894834       1.87704491       3.46628997
Si       0.00189530      -2.70435923      14.06879816
Si      -0.87802482      -1.95226042      11.98114410
Si       2.05406790       2.89029909       3.08133238
Si       0.23702566      -0.10828843       1.99720689
Si       2.62934155       1.05860033       7.99439291
Si       0.93781940      -0.51546325       8.43058539
Si       1.60721607      -1.24237316       4.89278962
Si       2.15979601       2.47301984       0.71838319
Si       2.48071169      -0.56628500       2.71122057
22
Lattice="5.785458039948649 -1.1653906106145118 -1.2254012930746296 -1.9816936148137112 6.55171929904639 -2.3779976776981693 -3.0950242109051476 -3.8029119376372087 15.053202934399811" Properties=species:S:1:pos:R:3 unique_starting_index=51 config_type=initial n_minim_iter=7 stress="-4.71225601040095e-05 0.0002797141483037481 -0.00025091399966096166 0.0002797141483037481 4.495039440740576e-05 -0.00039739545150106753 -0.00025091399966096166 -0.00039739545150106753 7.40029971142348e-05" pbc="T T T"
Si       2.03008799       4.42581750      -0.63983233
Si      -1.00883023      -0.29442559       7.12027522
Si       0.53407508       3.47395422      -2.42221795
Si      -1.02309747       3.13895466       1.71094633
Si      -0.34511379       0.00249720       4.87458319
Si       3.21306559       0.26388968       5.85117732
Si      -0.27854266      -0.11977369      -0.29289362
Si      -0.02919842       2.27095117      -0.35191072
Si       1.59697518      -2.37872577       7.07991410
Si       0.90770034      -0.86140633      10.76295780
Si      -1.91484908       1.54475038      11.17866905
Si       3.65063606       1.29748609       3.74302548
Si      -0.05162283       1.87368071       3.46542524
Si      -0.00765279      -2.71063394      14.07204564
Si      -0.88460916      -1.95917772      11.98302516
Si       2.05134090       2.88880907       3.08068584
Si       0.23490230      -0.11114864       1.99733974
Si       2.62791302       1.05426571       7.99254128
Si       0.93428915      -0.52096611       8.43111341
Si       1.60377507      -1.24496039       4.89409383
Si       2.15969198       2.47115517       0.71823420
Si       2.47960203      -0.56741735       2.71120018
22
Lattice="5.788444272310569 -1.1697453373299123 -1.2253544846458109 -1.9875350547533492 6.54852658847397 -2.3742749734034874 -3.0907942785813836 -3.788581074940783 15.05293462758627" Properties=species:S:1:pos:R:3 unique_starting_index=51 config_type=initial n_minim_iter=8 stress="2.559822985616169e-05 -0.0001578096006723004 -5.9220511595948695e-05 -0.0001578096006723004 -6.769570997733492e-05 -3.362703442845247e-05 -5.9220511595948695e-05 -3.362703442845247e-05 0.0002900071037182619" pbc="T T T"
Si       2.02801997       4.42028790      -0.63440974
Si      -1.00910567      -0.28767483       7.12335632
Si       0.53425342       3.47326051      -2.42085033
Si      -1.02317088       3.13935235       1.70953778
Si      -0.34732113       0.00431207       4.87704056
Si       3.21602357       0.26589887       5.84882825
Si      -0.27903508      -0.11873182      -0.29560312
Si      -0.02641074       2.27109147      -0.35089827
Si       1.59903010      -2.37421534       7.08055539
Si       0.91326683      -0.85457811      10.76377377
Si      -1.91177785       1.55666314      11.18278280
Si       3.65197680       1.29907268       3.74233784
Si      -0.05489370       1.87348593       3.46717027
Si      -0.00588534      -2.69687646      14.07353546
Si      -0.88111277      -1.94907478      11.98275797
Si       2.04681247       2.88847805       3.08694521
Si       0.23347087      -0.11290623       1.99762664
Si       2.63293827       1.05722491       7.99437238
Si       0.93779772      -0.51684901       8.43269359
Si       1.60523223      -1.24301215       4.89602146
Si       2.15730785       2.46610923       0.72435822
Si       2.48168559      -0.56753521       2.71303332
22
Lattice="5.7884290957399385 -1.1673109731270792 -1.224303383369956 -1.9851468769157248 6.546715452329821 -2.372301429983024 -3.0900981918645676 -3.785687232040252 15.048040193596986" Properties=species:S:1:pos:R:3 unique_starting_index=51 config_type=initial n_minim_iter=9 stress="0.0001630724442064418 0.00012410192064936867 -3.100905824752937e-05 0.00012410192064936867 -0.0001555814168234049 0.00011351317925039889 -3.100905824752937e-05 0.00011351317925039889 6.620854290718375e-05" pbc="T T T"
Si       2.03053351       4.42117932      -0.63178617
Si      -1.00872023      -0.28631271       7.12191822
Si       0.53596115       3.47280750      -2.42022883
Si      -1.02041789       3.13902852       1.70927084
Si      -0.34757009       0.00548293       4.87600416
Si       3.21809505       0.26922463       5.84790612
Si      -0.27886608      -0.11868185      -0.29548874
Si      -0.02415720       2.27103273      -0.35003114
Si       1.59977838      -2.37117570       7.07864574
Si       0.91574331      -0.85086054      10.76148219
Si      -1.90904400       1.55961123      11.18026537
Si       3.65256341       1.30143258       3.74218106
Si      -0.05404341       1.87374925       3.46638393
Si      -0.00504271      -2.69239794      14.06956417
Si      -0.87993301      -1.94615418      11.97949649
Si       2.04859294       2.89063565       3.08859290
Si       0.23352241      -0.11293744       1.99678030
Si       2.63644288       1.06114195       7.99300930
Si       0.93937642      -0.51410012       8.43096311
Si       1.60601394      -1.24146897       4.89512289
Si       2.15810155       2.46667548       0.72616043
Si       2.48222256      -0.56533999       2.71312134
22
Lattice="5.7846726858393644 -1.1688087271559588 -1.2215686467488245 -1.9859265360550191 6.5520377265875505 -2.3738173240722054 -3.0822157689077034 -3.791357551455393 15.042909174704754" Properties=species:S:1:pos:R:3 unique_starting_index=51 config_type=initial n_minim_iter=10 stress="-0.0001329563254210594 -1.5099059308682254e-05 7.498346830399209e-05 -1.5099059308682254e-05 0.00015948248434816172 -4.3424560616949e-05 7.498346830399209e-05 -4.3424560616949e-05 -0.00025271843520208653" pbc="T T T"
Si       2.02859904       4.42430946      -0.63062812
Si      -1.00639355      -0.28856046       7.11988982
Si       0.53476196       3.47568380      -2.42150789
Si      -1.01831900       3.14048995       1.70661316
Si      -0.34713851       0.00418713       4.87433856
Si       3.21849064       0.26784984       5.84681684
Si      -0.27819732      -0.11824466      -0.29513429
Si      -0.02283652       2.27280382      -0.35033128
Si       1.60225366      -2.37456875       7.07739172
Si       0.92002186      -0.85387426      10.75872572
Si      -1.90413305       1.55929653      11.17516046
Si       3.64961526       1.30012102       3.74129215
Si      -0.05413612       1.87318190       3.46387420
Si      -0.00030865      -2.69688555      14.06552318
Si      -0.87479124      -1.95025091      11.97563823
Si       2.04714316       2.89211412       3.08919773
Si       0.23384073      -0.11454874       1.99557349
Si       2.63890420       1.05988269       7.99028347
Si       0.94210802      -0.51648529       8.42852250
Si       1.60712636      -1.24455958       4.89464996
Si       2.15555786       2.46693167       0.72732171
Si       2.48151986      -0.56643860       2.71364909
22
Lattice="5.787806112239693 -1.1670604775334463 -1.2219132758881108 -1.9853164243625374 6.546277877538741 -2.3704011108991385 -3.084461820756339 -3.781895631684396 15.040834429525516" Properties=species:S:1:pos:R:3 unique_starting_index=51 config_type=initial n_minim_iter=11 stress="0.00011263539113565426 0.00022297009274094986 1.9734522563119913e-05 0.00022297009274094986 -6.930864677051165e-05 0.00012848936829153512 1.9734522563119913e-05 0.00012848936829153512 -0.00014635436559390851" pbc="T T T"
Si       2.03058225       4.42026313      -0.62255878
Si      -1.00810684      -0.28648084       7.12374562
Si       0.53910930       3.47439360      -2.42253933
Si      -1.01412805       3.13750425       1.70277734
Si      -0.35036778       0.00344206       4.87546977
Si       3.22070906       0.27440716       5.84548807
Si      -0.27589694      -0.11668640      -0.29596711
Si      -0.01487405       2.27250652      -0.35102058
Si       1.60338491      -2.36953346       7.07637928
Si       0.92360550      -0.84656528      10.75935584
Si      -1.90263635       1.56860930      11.17556807
Si       3.64905701       1.30317799       3.73832971
Si      -0.05868070       1.86936956       3.46223501
Si      -0.00320447      -2.68282858      14.06635813
Si      -0.87372604      -1.94167520      11.97268788
Si       2.04395194       2.89443264       3.09684768
Si       0.23388019      -0.11744084       1.99384343
Si       2.64507903       1.06298010       7.98806964
Si       0.94564197      -0.50949875       8.42664520
Si       1.60483661      -1.24153683       4.89594159
Si       2.15582585       2.46306602       0.73465665
Si       2.48069648      -0.56398742       2.71401439
22
Lattice="5.78854367082163 -1.170531737781046 -1.2228168685092238 -1.9892841038917013 6.547928567191694 -2.3726660712024037 -3.0844090892733584 -3.784408596097035 15.045693290539562" Properties=species:S:1:pos:R:3 unique_starting_index=51 config_type=initial n_minim_iter=12 stress="-5.6247934221679256e-05 -0.0001319957764783197 -2.2960429821163196e-05 -0.0001319957764783197 2.8190276365311606e-05 -6.87378910291563e-05 -2.2960429821163196e-05 -6.87378910291563e-05 0.00013350087200733116" pbc="T T T"
Si       2.02686246       4.41781037      -0.62296469
Si      -1.00897876      -0.28797947       7.12688025
Si       0.53776935       3.47510864      -2.42442867
Si      -1.01617767       3.13680122       1.70036661
Si      -0.35142267       0.00043963       4.87713983
Si       3.21895417       0.27053353       5.84558701
Si      -0.27490808      -0.11580572      -0.29618682
Si      -0.01428719       2.27280002      -0.35349795
Si       1.60399749      -2.37359525       7.07832185
Si       0.92256008      -0.85012441      10.76155299
Si      -1.90475983       1.56737974      11.17750055
Si       3.64716449       1.30015083       3.73702383
Si      -0.06226431       1.86632713       3.46135537
Si      -0.00416210      -2.68553272      14.07137748
Si      -0.87326213      -1.94437051      11.97506902
Si       2.03883431       2.89172795       3.09761463
Si       0.23393527      -0.11918712       1.99423609
Si       2.64296392       1.05817465       7.98851597
Si       0.94558429      -0.51162953       8.42775538
Si       1.60303189      -1.24361480       4.89755145
Si       2.15448211       2.46073825       0.73577438
Si       2.47896839      -0.56708937       2.71393648
22
Lattice="5.78939507497729 -1.17063218763108 -1.2212736791539243 -1.990454141349597 6.547184975909138 -2.372567841397883 -3.0814853298146474 -3.7837544140651493 15.041727240063711" Properties=species:S:1:pos:R:3 unique_starting_index=51 config_type=initial n_minim_iter=13 stress="-1.8935314789977078e-06 -2.4310087457506694e-05 -9.827618071278397e-06 -2.4310087457506694e-05 -1.348060830628237e-06 -1.1443673620532425e-05 -9.827618071278397e-06 -1.1443673620532425e-05 -3.5569640335675865e-06" pbc="T T T"
Si       2.02607309       4.41677265      -0.61931489
Si      -1.00878814      -0.28637490       7.12742989
Si       0.53807911       3.47471535      -2.42593312
Si      -1.01391100       3.13514792       1.69625907
Si      -0.35307652      -0.00211229       4.87754845
Si       3.22142148       0.26882614       5.84373912
Si      -0.27336265      -0.11425401      -0.29539648
Si      -0.00888788       2.27288566      -0.35688690
Si       1.60831008      -2.37469057       7.07685718
Si       0.92659009      -0.84755234      10.75800049
Si      -1.90076821       1.56980885      11.17352426
Si       3.64582965       1.30011965       3.73599365
Si      -0.06549935       1.86119226       3.45709013
Si      -0.00150541      -2.68262810      14.06944030
Si      -0.86821910      -1.94399116      11.97177203
Si       2.03460749       2.89084756       3.10151207
Si       0.23402948      -0.12135753       1.99382206
Si       2.64666835       1.06100572       7.98737200
Si       0.94889657      -0.50971749       8.42601657
Si       1.60285678      -1.24384101       4.89740255
Si       2.15554888       2.46025140       0.74134563
Si       2.47678898      -0.56815045       2.71357655
22
Lattice="5.789491475693244 -1.1706905706902593 -1.2199864338686106 -1.9912282277276063 6.54672447686238 -2.3728146940271717 -3.07842825359008 -3.7833815767728205 15.04002873143154" Properties=species:S:1:pos:R:3 unique_starting_index=51 config_type=initial n_minim_iter=14 stress="2.058010762994591e-05 5.3676448703714686e-05 1.8361890248121856e-05 5.3676448703714686e-05 -6.796491503782255e-06 2.5770710542623378e-05 1.8361890248121856e-05 2.5770710542623378e-05 -3.736596413541325e-05" pbc="T T T"
Si       2.02491825       4.41587281      -0.61697970
Si      -1.00790726      -0.28563082       7.12867200
Si       0.53824594       3.47442232      -2.42781419
Si      -1.01176326       3.13396819       1.69303329
Si      -0.35444561      -0.00440034       4.87874512
Si       3.22280695       0.26759007       5.84345949
Si      -0.27228959      -0.11281356      -0.29460707
Si      -0.00379966       2.27302924      -0.35996310
Si       1.61220731      -2.37577312       7.07653844
Si       0.93015477      -0.84510130      10.75596140
Si      -1.89667317       1.57149844      11.17141109
Si       3.64456159       1.30034856       3.73590000
Si      -0.06869336       1.85642855       3.45374971
Si       0.00121239      -2.68058426      14.06932192
Si      -0.86334686      -1.94292052      11.97076065
Si       2.03098811       2.89045978       3.10586278
Si       0.23340945      -0.12326387       1.99386994
Si       2.64958458       1.06359530       7.98722808
Si       0.95147016      -0.50836758       8.42503585
Si       1.60257205      -1.24435983       4.89779087
Si       2.15676561       2.46052263       0.74574715
Si       2.47481911      -0.56922262       2.71369033
22
Lattice="5.789364914196068 -1.1710753442698387 -1.2204357225804254 -1.9914765130387397 6.546711530121961 -2.372989355290657 -3.0789498870281125 -3.783287084660803 15.04148898814496" Properties=species:S:1:pos:R:3 unique_starting_index=51 config_type=initial n_minim_iter=15 stress="-6.970446521568693e-06 -6.4868195072474e-06 2.832475063062524e-06 -6.4868195072474e-06 9.492219104911699e-06 -1.8773347973560132e-06 2.832475063062524e-06 -1.8773347973560132e-06 1.1010262278889097e-05" pbc="T T T"
Si       2.02261870       4.41432905      -0.61879820
Si      -1.00743834      -0.28709590       7.13063449
Si       0.53882958       3.47483845      -2.43038544
Si      -1.01061894       3.13394550       1.69128150
Si      -0.35658731      -0.00636210       4.88117005
Si       3.22063123       0.26750739       5.84456759
Si      -0.27251595      -0.11147667      -0.29427197
Si       0.00104598       2.27345298      -0.36183016
Si       1.61353678      -2.37688590       7.07737687
Si       0.93063654      -0.84322177      10.75501866
Si      -1.89539002       1.57163823      11.17219082
Si       3.64376029       1.30114566       3.73621027
Si      -0.07322434       1.85243870       3.45230671
Si       0.00069839      -2.68047417      14.07085768
Si      -0.86164377      -1.93943546      11.97298772
Si       2.02783187       2.89097187       3.11068008
Si       0.23003275      -0.12506528       1.99454300
Si       2.64937010       1.06467352       7.98709702
Si       0.95085046      -0.50906439       8.42355047
Si       1.60116272      -1.24593532       4.89841464
Si       2.15852235       2.46209941       0.74670227
Si       2.47370995      -0.57045649       2.71425384
22
Lattice="5.78965622935931 -1.170915382436152 -1.2206559585050634 -1.9913348642146844 6.5462281176180195 -2.372672004346904 -3.0798203125247703 -3.7828276092324917 15.040883305370437" Properties=species:S:1:pos:R:3 unique_starting_index=51 config_type=initial n_minim_iter=16 stress="1.4256830421459211e-05 -1.5215917248576505e-05 -2.1278978628553894e-05 -1.5215917248576505e-05 -3.5866188403441514e-05 -1.3182232150554013e-05 -2.1278978628553894e-05 -1.3182232150554013e-05 -7.736357025479415e-06" pbc="T T T"
Si       2.01961896       4.41306197      -0.62119058
Si      -1.00900230      -0.28726368       7.13190079
Si       0.53919637       3.47549574      -2.43278207
Si      -1.00920609       3.13347641       1.68880239
Si      -0.35846315      -0.00842457       4.88232714
Si       3.21967802       0.26742659       5.84464202
Si      -0.27191444      -0.11010856      -0.29410472
Si       0.00609411       2.27385793      -0.36244196
Si       1.61516946      -2.37762388       7.07722675
Si       0.93129030      -0.84076630      10.75288681
Si      -1.89558795       1.57218044      11.17081778
Si       3.64349407       1.30144402       3.73681522
Si      -0.07707506       1.84923074       3.45080225
Si       0.00066501      -2.68001979      14.07095925
Si      -0.85957293      -1.93612768      11.97307439
Si       2.02445380       2.89079134       3.11459027
Si       0.22771423      -0.12708604       1.99457191
Si       2.64924172       1.06619930       7.98691209
Si       0.95204940      -0.50921764       8.42109525
Si       1.60022710      -1.24699381       4.89876948
Si       2.16131998       2.46399351       0.74842898
Si       2.47281533      -0.57038659       2.71512572
22
Lattice="5.789376851090306 -1.1707712983733884 -1.2203129577053842 -1.991138144865248 6.546225056417736 -2.372300035220569 -3.0789685908962054 -3.782191861270809 15.039819849488852" Properties=species:S:1:pos:R:3 unique_starting_index=51 config_type=initial n_minim_iter=17 stress="9.909525405426202e-06 -5.04836513851993e-06 -1.299237182558633e-05 -5.04836513851993e-06 -1.6873013734083402e-05 -6.962747256538134e-06 -1.299237182558633e-05 -6.962747256538134e-06 -5.657025524976987e-06" pbc="T T T"
Si       2.01753465       4.41292686      -0.62213034
Si      -1.01007403      -0.28675454       7.13257811
Si       0.53915295       3.47613504      -2.43384151
Si      -1.00799090       3.13332153       1.68721088
Si      -0.35907907      -0.00945810       4.88240144
Si       3.21985267       0.26785611       5.84462197
Si      -0.27128611      -0.10936850      -0.29432154
Si       0.00890454       2.27429487      -0.36206836
Si       1.61644012      -2.37785278       7.07697999
Si       0.93256409      -0.83907990      10.75179008
Si      -1.89520018       1.57340979      11.16944710
Si       3.64343611       1.30168455       3.73744480
Si      -0.07854610       1.84824118       3.45023509
Si       0.00168007      -2.67913312      14.07080364
Si      -0.85748600      -1.93452394      11.97232855
Si       2.02266246       2.89076522       3.11660434
Si       0.22729005      -0.12828868       1.99434707
Si       2.64984121       1.06753504       7.98702520
Si       0.95392870      -0.50884283       8.41977780
Si       1.60015858      -1.24728174       4.89921046
Si       2.16288020       2.46503981       0.75014419
Si       2.47244217      -0.56966953       2.71603056
22
Lattice="5.789082188531092 -1.1707393664290227 -1.2199245501702562 -1.991096006067811 6.546204814934746 -2.371977063055953 -3.0778571228470324 -3.781444378453783 15.038930390842342" Properties=species:S:1:pos:R:3 unique_starting_index=51 config_type=initial n_minim_iter=18 stress="1.170182048134524e-07 3.4377666343591265e-06 -6.074489427402396e-07 3.4377666343591265e-06 3.6338927890250743e-06 -1.629096854911015e-06 -6.074489427402396e-07 -1.629096854911015e-06 -9.699852984656981e-08" pbc="T T T"
Si       2.01605660       4.41305580      -0.62250510
Si      -1.01057569      -0.28634987       7.13303880
Si       0.53895442       3.47636615      -2.43424026
Si      -1.00714482       3.13327336       1.68634289
Si      -0.35932823      -0.01007618       4.88218128
Si       3.22014174       0.26840934       5.84473612
Si      -0.27095500      -0.10891765      -0.29466755
Si       0.01056733       2.27459604      -0.36161676
Si       1.61739693      -2.37796012       7.07675992
Si       0.93370851      -0.83791811      10.75118858
Si      -1.89458355       1.57458993      11.16842166
Si       3.64349396       1.30194865       3.73790197
Si      -0.07917087       1.84796585       3.45008183
Si       0.00265822      -2.67817076      14.07063262
Si      -0.85592312      -1.93374739      11.97162196
Si       2.02177366       2.89069622       3.11771202