14
Lattice="7.316079814039863 1.2480567196920906 -1.501092939147177 0.24834377834163057 5.561918688334342 0.68774081672375 -5.547399040894262 -2.4522124908289475 8.77105553704568" Properties=species:S:1:pos:R:3 unique_starting_index=128 config_type=initial n_minim_iter=1 energy=-2276.346170922919 free_energy=-2276.346170922919 pbc="T T T"
Si      -5.51708766      -2.39957609       8.14255188
Si       2.57134775       2.04525296       7.24369228
Si      -1.04986570       3.41478065       6.09347230
Si       3.06670950       1.70840947       2.11273538
Si       0.18737625       3.23932985       8.69540167
Si       0.24787953       2.11942550       2.06557828
Si       1.82509520       3.46326931       3.09712239
Si      -1.04708659      -0.42006797       7.02731181
Si       3.57762302       4.87537820       0.22493541
Si       0.11522156       0.83861958       4.17352738
Si       1.96370105       5.57515240       1.90718893
Si       0.29897961       1.51812600       6.56171816
Si       0.78442108      -1.37208775       4.46770573
Si       3.06332655       2.56668481      -0.04177215
14
Lattice="7.351223998689681 1.254894235631488 -1.5099870333306145 0.24716601321374354 5.608063167445081 0.6932924968666961 -5.583377891900681 -2.4621803589596505 8.780429934525005" Properties=species:S:1:pos:R:3 unique_starting_index=128 config_type=initial n_minim_iter=2 stress="0.00242206143513373 -0.00019553398756780272 0.0006590980286771206 -0.00019553398756780272 0.002766331798326974 -0.00033362837665001574 0.0006590980286771206 -0.00033362837665001574 0.003579501776725599" pbc="T T T"
Si      -5.55051326      -2.41097446       8.15322888
Si       2.57170136       2.06699779       7.24529775
Si      -1.06389753       3.45018575       6.09963524
Si       3.08008097       1.72232249       2.11278941
Si       0.17800809       3.27441175       8.70352796
Si       0.24468135       2.13768561       2.06812703
Si       1.82901617       3.49698911       3.10097353
Si      -1.06064378      -0.41579633       7.03183475
Si       3.59210514       4.91427493       0.22547085
Si       0.11033519       0.85064122       4.17663103
Si       1.96820682       5.62066276       1.91115913
Si       0.29125148       1.53632475       6.56572346
Si       0.78155845      -1.37923110       4.46696370
Si       3.07630880       2.58906988      -0.04285368
14
Lattice="7.3526612065462595 1.2583009932560891 -1.5249856178035246 0.2447077752826273 5.640136333780023 0.7019892095928381 -5.629115777085175 -2.4445430793548213 8.670690282544241" Properties=species:S:1:pos:R:3 unique_starting_index=128 config_type=initial n_minim_iter=3 stress="0.0006579272969805048 -0.00018184921986959615 5.254310372527636e-05 -0.00018184921986959615 0.0029150911655086557 0.001223542452900338 5.254310372527636e-05 0.001223542452900338 -0.004470942790326216" pbc="T T T"
Si      -5.58430541      -2.40389808       8.06154587
Si       2.51835964       2.09822064       7.12341135
Si      -1.09802214       3.49654556       6.01748758
Si       3.07595756       1.73357000       2.07482605
Si       0.13686945       3.32419381       8.58389752
Si       0.22853414       2.15154313       2.04164746
Si       1.81198258       3.54197183       3.06041392
Si      -1.09903338      -0.38992483       6.92935645
Si       3.58652150       4.93950222       0.22033103
Si       0.08779139       0.87480014       4.11721091
Si       1.95448154       5.64959552       1.89090506
Si       0.25122481       1.56518456       6.46657422
Si       0.74721223      -1.36918086       4.38632964
Si       3.07135384       2.61673899      -0.04854657
14
Lattice="7.351738464014697 1.2651486829780314 -1.604704513195956 0.2449830834017495 5.618891480341251 0.6969716629986782 -5.708050269312943 -2.4502420013604245 8.754821252491096" Properties=species:S:1:pos:R:3 unique_starting_index=128 config_type=initial n_minim_iter=4 stress="0.0017259621322963988 -0.00046004794576195995 -0.0033648168514938256 -0.00046004794576195995 -0.0019192441113892527 0.001220068011338265 -0.0033648168514938256 0.001220068011338265 -0.001023187206884378" pbc="T T T"
Si      -5.63829585      -2.43151423       8.16370674
Si       2.42056990       2.07270033       7.10482849
Si      -1.15504173       3.49110096       6.02325772
Si       3.07273750       1.71422849       2.06563360
Si       0.07044628       3.30621931       8.60824792
Si       0.19975794       2.13171172       2.04146122
Si       1.78692115       3.55837525       3.05491712
Si      -1.16600779      -0.38878342       6.95984749
Si       3.57907052       4.92017649       0.18237699
Si       0.04982423       0.87520950       4.12931492
Si       1.93483022       5.61258743       1.87114865
Si       0.17942231       1.54652528       6.47318180
Si       0.67935774      -1.36255434       4.38488181
Si       3.06182286       2.64417596      -0.08015513
14
Lattice="7.249532893412013 1.3082847883906998 -1.5421199956539529 0.26801698541857205 5.655352938242658 0.667955813139635 -5.561958305315458 -2.5374418973165582 8.721419980019373" Properties=species:S:1:pos:R:3 unique_starting_index=128 config_type=initial n_minim_iter=5 stress="-0.002353123852710125 0.00034069000487010204 0.0020670412680538985 0.00034069000487010204 0.0014701133565832622 -0.0014330331952934218 0.0020670412680538985 -0.0014330331952934218 -0.003040686280944255" pbc="T T T"
Si      -5.48421159      -2.53755764       8.14653070
Si       2.44818768       2.03894442       7.11262420
Si      -1.07392479       3.49039775       5.97860543
Si       3.08043765       1.71285131       2.10359046
Si       0.17702621       3.28013265       8.60198460
Si       0.21710369       2.12880960       2.03178576
Si       1.81290213       3.59078680       3.05964490
Si      -1.08725285      -0.42876036       6.95866768
Si       3.55235052       4.96597418       0.19154866
Si       0.09502524       0.86341376       4.12845652
Si       1.94948403       5.63686619       1.85925908
Si       0.23502426       1.51468730       6.46340559
Si       0.69097958      -1.39037824       4.39647882
Si       3.02849174       2.69814981      -0.06436406
14
Lattice="7.269596727468407 1.2958157763553646 -1.556293163438956 0.26561843584899886 5.63961463121272 0.6925552818318161 -5.589837948394949 -2.492755132062916 8.759286384380605" Properties=species:S:1:pos:R:3 unique_starting_index=128 config_type=initial n_minim_iter=6 stress="-0.00021961423676920665 -7.981091093895358e-05 0.0009149023773760848 -7.981091093895358e-05 -0.00014542364810284957 0.000761810123353718 0.0009149023773760848 0.000761810123353718 0.0005573501853740274" pbc="T T T"
Si      -5.51123796      -2.50069142       8.18064488
Si       2.43900046       2.05727943       7.14695032
Si      -1.08994844       3.50559367       6.01804213
Si       3.08578770       1.71591422       2.11421071
Si       0.16085968       3.30424643       8.65344484
Si       0.21532858       2.13186412       2.05017002
Si       1.81266473       3.58574807       3.08087204
Si      -1.10257851      -0.39990016       6.99006209
Si       3.56072168       4.95340387       0.20547481
Si       0.08886081       0.87704686       4.14849464
Si       1.95269223       5.62827580       1.88894802
Si       0.21846572       1.53644732       6.49446449
Si       0.68379604      -1.36512890       4.40993303
Si       3.03648536       2.68595444      -0.05539866
14
Lattice="7.298526085335983 1.304345462970328 -1.6165181769043913 0.2671220689286884 5.627019031824785 0.6806133348380891 -5.668951112689413 -2.512725878316436 8.829843898064452" Properties=species:S:1:pos:R:3 unique_starting_index=128 config_type=initial n_minim_iter=7 stress="0.0025996723589155075 -0.00019436995900908082 -0.0020978614511334833 -0.00019436995900908082 -0.001103799746708473 -0.0002554292868821343 -0.0020978614511334833 -0.0002554292868821343 0.0036911908090802763" pbc="T T T"
Si      -5.58386527      -2.54081668       8.24891418
Si       2.38353484       2.02755007       7.14087577
Si      -1.13971921       3.49512578       6.02553819
Si       3.08900604       1.71101930       2.09718912
Si       0.10260409       3.27967274       8.67438269
Si       0.20793760       2.12828274       2.05470762
Si       1.80356833       3.56046132       3.06225906
Si      -1.16077455      -0.41715050       7.02129293
Si       3.57682382       4.95855204       0.16935443
Si       0.06343764       0.86917246       4.15445978
Si       1.96048635       5.62262341       1.87586202
Si       0.15476677       1.52192115       6.49638317
Si       0.64489565      -1.36099305       4.41965402
Si       3.05051909       2.68169657      -0.07205236
14
Lattice="7.257087586634553 1.3202962037343526 -1.6576842085731336 0.27945888522351786 5.636220275340357 0.7150060333486685 -5.687463896381308 -2.480236280660939 8.880084708230878" Properties=species:S:1:pos:R:3 unique_starting_index=128 config_type=initial n_minim_iter=8 stress="0.0035203795050391586 -0.0010791971972851186 -0.0028405019007154476 -0.0010791971972851186 -0.0024891876692304596 0.0026047318885627575 -0.0028405019007154476 0.0026047318885627575 0.006912393521094278" pbc="T T T"
Si      -5.58554591      -2.59012083       8.30644918
Si       2.28698347       2.03029621       7.14724342
Si      -1.17885697       3.57187215       6.03266943
Si       3.10390004       1.72881306       2.11684997
Si       0.07348524       3.33824075       8.74158858
Si       0.20930789       2.15174644       2.08606581
Si       1.80415302       3.56635446       3.07124263
Si      -1.20857148      -0.37879279       7.06130053
Si       3.57513623       5.00843380       0.17910446
Si       0.05364108       0.90898424       4.16276138
Si       1.98579707       5.65744051       1.92855762
Si       0.05743102       1.56675508       6.48968384
Si       0.58066335      -1.30257897       4.41578555
Si       3.04567123       2.70374749      -0.04011105
14
Lattice="7.212996874191031 1.3988777271132147 -1.6685239950643074 0.32515801984023557 5.66646704781825 0.683981157697658 -5.686643148595559 -2.581731622551941 8.828468250278414" Properties=species:S:1:pos:R:3 unique_starting_index=128 config_type=initial n_minim_iter=9 stress="0.0023918957756411357 0.0005662079746297002 -0.0011673296769611425 0.0005662079746297002 -0.0007800432848903026 0.00013492337212807825 -0.0011673296769611425 0.00013492337212807825 0.0014411066290729486" pbc="T T T"
Si      -5.57415901      -2.76748271       8.26919478
Si       2.22637094       1.97498784       7.05397354
Si      -1.18143289       3.60151974       5.92966998
Si       3.13795429       1.74954535       2.10554780
Si       0.09513751       3.32366656       8.66815677
Si       0.22730350       2.16301298       2.06932360
Si       1.83307942       3.57353402       3.02085140
Si      -1.23801778      -0.42353320       7.01546258
Si       3.59398979       5.09471495       0.14614798
Si       0.06206175       0.91685288       4.10885316
Si       2.04651204       5.70774102       1.90636587
Si      -0.01192843       1.55600251       6.38627815
Si       0.53508586      -1.29846679       4.36667174
Si       3.05584066       2.75936126      -0.02971161
14
Lattice="7.059259125354305 1.409000059096751 -1.663444273258597 0.3171034247317887 5.710950523099198 0.6673109930308055 -5.570154822045289 -2.6192661147766056 8.783711305099628" Properties=species:S:1:pos:R:3 unique_starting_index=128 config_type=initial n_minim_iter=10 stress="-0.004243128635071662 -0.0018979176571081195 0.002066515537544961 -0.0018979176571081195 0.004219666559022748 -0.0017858427786028876 0.002066515537544961 -0.0017858427786028876 -0.004605887094003068" pbc="T T T"
Si      -5.45535819      -2.86654316       8.23320816
Si       2.14435938       1.91219526       6.99533484
Si      -1.19031396       3.66744042       5.85920690
Si       3.12271767       1.74711453       2.11338136
Si       0.10556415       3.33230892       8.62586250
Si       0.22356449       2.17672569       2.05929103
Si       1.80788786       3.59614479       3.00696717
Si      -1.23308488      -0.44318556       6.98389201
Si       3.50999978       5.14545731       0.12976462
Si       0.06675101       0.94062612       4.06484984
Si       2.02360502       5.74907082       1.90450696
Si      -0.07607073       1.56727388       6.31450156
Si       0.52415853      -1.31126673       4.32313558
Si       3.00235344       2.79815060      -0.01876812
14
Lattice="7.060038834817549 1.4621690629715842 -1.6556937410746848 0.36286403725004135 5.690026724912195 0.6722597452236535 -5.577259642801518 -2.64602458199542 8.771287814639381" Properties=species:S:1:pos:R:3 unique_starting_index=128 config_type=initial n_minim_iter=11 stress="-0.0020389068238686947 0.0011919891409587911 0.0038873242084628266 0.0011919891409587911 0.0023752711993099054 -0.0017821477352099185 0.0038873242084628266 -0.0017821477352099185 -0.006914263551364191" pbc="T T T"
Si      -5.46873998      -2.90595947       8.21599975
Si       2.15734656       1.90427417       6.99292019
Si      -1.17101445       3.66859251       5.85462311
Si       3.15764996       1.76843335       2.12464497
Si       0.14508671       3.32919750       8.62971615
Si       0.24300350       2.17072215       2.06060242
Si       1.84297448       3.60365192       3.02184843
Si      -1.23854686      -0.44553074       6.97980470
Si       3.53729442       5.15175116       0.13334764
Si       0.07874437       0.95242069       4.05298747
Si       2.07438548       5.74261373       1.91945039
Si      -0.08520430       1.57881270       6.30272113
Si       0.53212696      -1.29772070       4.30892994
Si       3.02899696       2.81550164      -0.01080839
14
Lattice="6.981694149292682 1.5023561911160177 -1.7393568421453114 0.3948951225723844 5.652440237051722 0.6995127637123912 -5.60595428725029 -2.6338634130237173 8.906520860173359" Properties=species:S:1:pos:R:3 unique_starting_index=128 config_type=initial n_minim_iter=12 stress="-0.0003657884161321288 0.0015395103347941646 0.0015824692353316305 0.0015395103347941646 -0.0007348257346204372 -0.00012160921538104421 0.0015824692353316305 -0.00012160921538104421 -0.0022136901342485107" pbc="T T T"
Si      -5.50305140      -2.92731049       8.32834592
Si       2.05069122       1.87096077       7.04601929
Si      -1.22429750       3.71173253       5.93112998
Si       3.15966629       1.78743377       2.14077878
Si       0.09097808       3.33936317       8.74817516
Si       0.24017381       2.16650585       2.08979125
Si       1.82795835       3.60597557       3.07250281
Si      -1.31670643      -0.42364477       7.06276000
Si       3.50083665       5.14025941       0.10967772
Si       0.04612789       0.98662839       4.07421559
Si       2.08236689       5.72336730       1.96678889
Si      -0.20293895       1.62037252       6.35300682
Si       0.50247724      -1.26563036       4.32247822
Si       3.02517208       2.82344514      -0.01830819
14
Lattice="6.806230640917332 1.5748915450364627 -1.9113415026503224 0.44220479856474504 5.602050211441772 0.7272606501742527 -5.65324457427181 -2.6423259692688434 9.143982337664445" Properties=species:S:1:pos:R:3 unique_starting_index=128 config_type=initial n_minim_iter=13 stress="0.005793531427679728 -0.0010831750702544167 -0.0019966713695014327 -0.0010831750702544167 -0.0023211936021964707 0.0013975594156379022 -0.0019966713695014327 0.0013975594156379022 0.004733118020814464" pbc="T T T"
Si      -5.55221561      -3.03158452       8.52166022
Si       1.79477586       1.74569226       7.09764547
Si      -1.35258191       3.83498724       6.01693189
Si       3.17505114       1.80803766       2.15831924
Si      -0.03158376       3.33302512       8.93687715
Si       0.23146332       2.16626590       2.12615770
Si       1.79426181       3.59967248       3.12864861
Si      -1.48017606      -0.40003766       7.18857716
Si       3.39982014       5.14426159       0.03710313
Si      -0.02422649       1.04791512       4.09394104
Si       2.08607286       5.70291619       2.03582529
Si      -0.47270553       1.67859714       6.39323238
Si       0.42582824      -1.21177453       4.33788186
Si       3.01034961       2.84554279      -0.03119989
14
Lattice="6.683528195358182 1.6446867381217176 -2.0041059116843996 0.48707819217772785 5.590296753685273 0.7403866981024564 -5.6628995737401056 -2.6764898552308414 9.271116227802494" Properties=species:S:1:pos:R:3 unique_starting_index=128 config_type=initial n_minim_iter=14 stress="0.004052807722222734 -0.0014230707846661645 -0.00469438654941928 -0.0014230707846661645 -0.0024310539257024126 0.002603193610898372 -0.00469438654941928 0.002603193610898372 0.0061845956284896225" pbc="T T T"
Si      -5.56169911      -3.12735842       8.62624599
Si       1.64496371       1.67958305       7.12124282
Si      -1.39944951       3.91349726       6.05352726
Si       3.17740157       1.83415423       2.16888319
Si      -0.08599914       3.33644607       9.03982512
Si       0.23353235       2.17302275       2.14426839
Si       1.78340871       3.61203804       3.15473368
Si      -1.56435577      -0.39294651       7.25583682
Si       3.34839933       5.17522428      -0.00229969
Si      -0.05864513       1.08467620       4.10541583
Si       2.10042773       5.71451316       2.07340184
Si      -0.61328240       1.70716183       6.40845417
Si       0.37032024      -1.17984009       4.34625225
Si       2.99707566       2.87943656      -0.03467211
14
Lattice="6.584251402703133 1.7090982482839823 -2.0575023499514513 0.5318782214846233 5.560839258106441 0.7364709289116365 -5.641030887133861 -2.7293105282707706 9.38412436156014" Properties=species:S:1:pos:R:3 unique_starting_index=128 config_type=initial n_minim_iter=15 stress="0.0034579485321035086 -0.0013658188394078147 -0.0066852193086335745 -0.0013658188394078147 -0.004409035314704249 0.0020769646920863506 -0.0066852193086335745 0.0020769646920863506 0.0065317153307226875" pbc="T T T"
Si      -5.53776450      -3.20574620       8.70922658
Si       1.55766784       1.59915160       7.17034419
Si      -1.40932890       3.96630331       6.07860782
Si       3.19978842       1.83845384       2.19042748
Si      -0.09163602       3.29083403       9.14739732
Si       0.24927481       2.16835812       2.14915290
Si       1.80141761       3.60132965       3.17585544
Si      -1.59875493      -0.39707817       7.31369732
Si       3.29963549       5.18038521      -0.03379798
Si      -0.08198489       1.09173623       4.14439265
Si       2.12211075       5.69690616       2.09625386
Si      -0.69724704       1.69774480       6.42980417
Si       0.34030631      -1.16371246       4.39451757
Si       2.99323909       2.89053263      -0.03308941
14
Lattice="6.544976231606613 1.7249428894132024 -1.9932112836984324 0.545738152449773 5.564472179740636 0.725376347234419 -5.533678096224084 -2.766682528593045 9.381351767212738" Properties=species:S:1:pos:R:3 unique_starting_index=128 config_type=initial n_minim_iter=16 stress="0.0018269966214212448 -0.0026604727489487542 -0.0053754274959955965 -0.0026604727489487542 -0.001714513778519806 -0.0001716509634519208 -0.0053754274959955965 -0.0001716509634519208 0.0032992445371102168" pbc="T T T"
Si      -5.42811248      -3.16549268       8.68039797
Si       1.64840839       1.61514169       7.24405380
Si      -1.32840833       3.96551449       6.09281421
Si       3.20495640       1.82417436       2.21443686
Si      -0.00676914       3.24405762       9.19447951
Si       0.27787793       2.16873769       2.13787136
Si       1.84375373       3.58890656       3.18454215
Si      -1.50307468      -0.39567134       7.30974749
Si       3.26629570       5.17297662      -0.00951880
Si      -0.07206586       1.05500150       4.21541295
Si       2.12639550       5.68929847       2.08984977
Si      -0.59971960       1.66700836       6.46526257
Si       0.37699691      -1.18749398       4.48670204
Si       2.98646536       2.86006151      -0.01912131
14
Lattice="6.4913312314078215 1.7923068677532294 -1.8892711162751454 0.6049784789331802 5.580253408986669 0.738878750579245 -5.391178601939452 -2.8129166752634434 9.341894131530346" Properties=species:S:1:pos:R:3 unique_starting_index=128 config_type=initial n_minim_iter=17 stress="0.0009386758313634949 -0.0010432300569411935 -0.00021675087963003083 -0.0010432300569411935 -0.00024600108612221155 0.000890323450565043 -0.00021675087963003083 0.000890323450565043 0.0019401457395181584" pbc="T T T"
Si      -5.28262656      -3.18381638       8.63665259
Si       1.75220070       1.65901395       7.31984690
Si      -1.19354450       3.99697210       6.08911460
Si       3.24608914       1.84313863       2.27230082
Si       0.15327564       3.24943074       9.26116020
Si       0.32817930       2.17755129       2.16003871
Si       1.92746251       3.61186935       3.22196790
Si      -1.38003968      -0.37767097       7.31272392
Si       3.27164247       5.21166146       0.05131717
Si      -0.02636439       1.05318072       4.27178736
Si       2.19140905       5.71742946       2.12846129
Si      -0.48213466       1.66936409       6.48802030
Si       0.41122100      -1.17920116       4.55085584
Si       2.99780465       2.87417786       0.03656657
14
Lattice="6.46615598844221 1.8631622203850802 -1.784035558469591 0.6602038489699881 5.606872311257862 0.7235837158162182 -5.271423301965825 -2.8992696213175275 9.26157551928255" Properties=species:S:1:pos:R:3 unique_starting_index=128 config_type=initial n_minim_iter=18 stress="-0.001612791609971512 0.00033483261614442733 0.0049740944059056295 0.00033483261614442733 0.004166915756884442 -0.001972927039180635 0.0049740944059056295 -0.001972927039180635 -0.00459704816658147" pbc="T T T"
Si      -5.15849984      -3.19022492       8.56138723
Si       1.88560231       1.74009078       7.35568581
Si      -1.05473260       3.97237094       6.06290235
Si       3.26030803       1.85004047       2.27244389
Si       0.29387733       3.22363086       9.24192004
Si       0.37470553       2.17489397       2.18263079
Si       1.99669099       3.62184729       3.22600677
Si      -1.25200071      -0.39636064       7.27115676
Si       3.28794438       5.24522566       0.08670392
Si       0.00145394       1.02314811       4.29468603
Si       2.24612830       5.74974371       2.11474911
Si      -0.32057865       1.66438462       6.49759024
Si       0.45603483      -1.21522748       4.58525364
Si       3.01609120       2.86816406       0.06204880
14
Lattice="6.380460804310823 1.9880584366656853 -1.7834783251606035 0.7573078683637933 5.591580389239611 0.7352895895483549 -5.2200326753406605 -2.9814061573682498 9.327837922362026" Properties=species:S:1:pos:R:3 unique_starting_index=128 config_type=initial n_minim_iter=19 stress="-0.005598605453861465 0.0036903562748977223 0.003507173162854707 0.0036903562748977223 0.0009094051355001484 -0.0008702776323907869 0.003507173162854707 -0.0008702776323907869 -0.0056571888135283355" pbc="T T T"
Si      -5.09488893      -3.22456318       8.61349356
Si       1.88208621       1.81059927       7.43570630
Si      -0.97205923       3.99470576       6.10380149
Si       3.27733906       1.86924052       2.25940926
Si       0.35643361       3.20232773       9.33978124
Si       0.41806811       2.16494584       2.25696285
Si       2.05242200       3.63129856       3.26965208
Si      -1.21531795      -0.38770943       7.30519787
Si       3.27975346       5.26375792       0.08409465
Si      -0.03082669       1.02394881       4.33686373
Si       2.31660305       5.76371727       2.14988032
Si      -0.27767234       1.70579161       6.55377974
Si       0.44570238      -1.21555273       4.62028453
Si       3.04407514       2.86719273       0.07992212
14
Lattice="6.42088067462967 1.9750500337619628 -1.7963902286498667 0.7545553172533549 5.557122927761952 0.7406529809712639 -5.262579567612006 -2.955323044401964 9.345727253767178" Properties=species:S:1:pos:R:3 unique_starting_index=128 config_type=initial n_minim_iter=20 stress="-0.0031978885144978092 0.0028679521165961095 0.0023230347122872998 0.0028679521165961095 -0.0018488319581142975 0.0007212221339233986 0.0023230347122872998 0.0007212221339233986 -0.003477701950417879" pbc="T T T"
Si      -5.12591688      -3.15294446       8.63935642
Si       1.88861621       1.88385563       7.46006301
Si      -0.99092338       3.96046597       6.13153070
Si       3.28090069       1.83097448       2.20966399
Si       0.32786847       3.18166565       9.33882970
Si       0.41380836       2.13935005       2.31486452
Si       2.04989229       3.60246863       3.27893374
Si      -1.21456979      -0.37133021       7.30512014
Si       3.28393105       5.21030082       0.07088740
Si      -0.08272556       1.01187433       4.33344804
Si       2.31182919       5.72339527       2.15515702
Si      -0.25476157       1.73785561       6.58784722
Si       0.45433290      -1.22895702       4.59849169
Si       3.07568189       2.81946343       0.06827095
14
Lattice="6.450145917182816 1.9437136575826341 -1.8400998498214238 0.7268974182228902 5.540576239196652 0.7233887756563875 -5.319091100682197 -2.950234071542965 9.386890914585193" Properties=species:S:1:pos:R:3 unique_starting_index=128 config_type=initial n_minim_iter=21 stress="4.8345962593191346e-05 0.0004619761535078473 -7.186225595812599e-05 0.0004619761535078473 -0.0017353892014574733 0.0001882881556392362 -7.186225595812599e-05 0.0001882881556392362 -0.0004879999658700047" pbc="T T T"
Si      -5.17422609      -3.14599700       8.68315944
Si       1.84327207       1.87302326       7.45915785
Si      -1.05179965       3.95168351       6.12364994
Si       3.28765251       1.78564611       2.17747693
Si       0.26244847       3.14004144       9.32833232
Si       0.39572489       2.12276647       2.33345051
Si       2.03100975       3.56884706       3.25694297
Si      -1.24638599      -0.37784976       7.31193060
Si       3.27239587       5.17796446       0.02962125
Si      -0.13519089       0.99594326       4.32815031
Si       2.28507070       5.68871491       2.14099788
Si      -0.30234112       1.73100180       6.58350839
Si       0.44349081      -1.24707936       4.58782304
Si       3.09002333       2.79250966       0.04389013
