20
Lattice="11.149325333630953 -2.2413220083212897 8.564685413997822 -4.681514151458456 7.601110238834237 -2.620208144426362 3.6095818097038865 -2.7871736661522433 8.129014459778865" Properties=species:S:1:pos:R:3 unique_starting_index=76 config_type=initial n_minim_iter=1 energy=-3259.0987428514295 free_energy=-3259.0987428514295 pbc="T T T"
Si      10.63836603      -1.40047691      12.15662558
Si       2.37578850      -0.85254775       7.73729661
Si       6.04751730      -0.65293482       4.81340858
Si       1.38415677       1.22650997       2.26015635
Si       8.00222051       2.31562286       6.30360771
Si       9.65046049       0.77277350      11.58844142
Si       0.19575155       3.71238637       4.50828968
Si       1.82525585      -0.29548425       5.48202431
Si       8.05229154      -1.75958193       8.32774964
Si       4.48141491      -1.77988454       8.10708500
Si       6.28305501      -0.62900564       7.15668308
Si       3.90740212       3.92440485       4.36581418
Si       4.02220296       2.14994200       5.90350974
Si       2.14611675       2.58378221       7.35286035
Si      -0.79143854       3.87703443       0.92664667
Si       2.01254949       3.42234812       3.00358625
Si       3.90267734       0.24394700       4.49464482
Si       5.93911324       1.70155541       7.25072309
Si       5.01729730       2.02699678       9.36971389
Si       2.34212236       4.91122050       7.71792210
20
Lattice="11.14634575912663 -2.243996841297142 8.561706145999748 -4.68108314963902 7.602394149131573 -2.6202670141820392 3.607884548063461 -2.7890645898637962 8.127516079786984" Properties=species:S:1:pos:R:3 unique_starting_index=76 config_type=initial n_minim_iter=2 stress="-7.76098799917252e-05 1.9712541551756947e-05 -2.4458163523748807e-05 1.9712541551756947e-05 -8.327270247636611e-05 -9.98562129269261e-07 -2.4458163523748807e-05 -9.98562129269261e-07 -9.24998114066946e-05" pbc="T T T"
Si      10.63471734      -1.40368450      12.15299021
Si       2.37414930      -0.85417814       7.73572780
Si       6.04580173      -0.65440216       4.81167695
Si       1.38341200       1.22609318       2.25931461
Si       7.99969094       2.31392100       6.30073897
Si       9.64690466       0.76987145      11.58473190
Si       0.19453244       3.71175858       4.50686979
Si       1.82406004      -0.29663842       5.48092060
Si       8.04977086      -1.76188348       8.32527820
Si       4.47949339      -1.78182680       8.10523999
Si       6.28090798      -0.63090601       7.15453701
Si       3.90563732       3.92347559       4.36371838
Si       4.02033291       2.14861337       5.90145149
Si       2.14426595       2.58245559       7.35084123
Si      -0.79178343       3.87707456       0.92592925
Si       2.01144674       3.42180612       3.00215714
Si       3.90130704       0.24288385       4.49314287
Si       5.93677060       1.69979904       7.24816917
Si       5.01468870       2.02499427       9.36689969
Si       2.33989498       4.90990545       7.71543027
20
Lattice="11.146878869155415 -2.2457254683388506 8.56215081017445 -4.68181402818646 7.6040607300627325 -2.620841023860143 3.608025353758904 -2.7903084652640295 8.128216532334873" Properties=species:S:1:pos:R:3 unique_starting_index=76 config_type=initial n_minim_iter=3 stress="5.177855650016308e-05 -2.415841849796591e-05 -4.92666217738026e-05 -2.415841849796591e-05 9.215874647935349e-05 -5.0832766014774375e-05 -4.92666217738026e-05 -5.0832766014774375e-05 5.955712346994051e-05" pbc="T T T"
Si      10.63498499      -1.40550983      12.15366333
Si       2.37408048      -0.85505045       7.73628029
Si       6.04602898      -0.65528481       4.81189517
Si       1.38330464       1.22608688       2.25934995
Si       7.99980094       2.31333141       6.30074923
Si       9.64703966       0.76848800      11.58527238
Si       0.19409000       3.71197667       4.50697065
Si       1.82401698      -0.29721873       5.48139250
Si       8.05008068      -1.76329691       8.32580178
Si       4.47961789      -1.78300575       8.10579254
Si       6.28108397      -0.63197204       7.15497253
Si       3.90542990       3.92349803       4.36364631
Si       4.02019208       2.14822562       5.90160974
Si       2.14398907       2.58221705       7.35119599
Si      -0.79204677       3.87756659       0.92571825
Si       2.01129344       3.42197942       3.00208787
Si       3.90141442       0.24243232       4.49330084
Si       5.93676536       1.69911078       7.24839051
Si       5.01452449       2.02429131       9.36727595
Si       2.33936548       4.90995082       7.71565269
20
Lattice="11.14773863817678 -2.2470858666482725 8.56346813629561 -4.682923648361748 7.604966774901662 -2.6212397509886385 3.609463239698378 -2.790678560757119 8.12830324593952" Properties=species:S:1:pos:R:3 unique_starting_index=76 config_type=initial n_minim_iter=4 stress="-4.196301120947251e-05 -0.00011964739637175095 7.271926552958535e-05 -0.00011964739637175095 7.643787549830654e-05 -3.152472007471419e-05 7.271926552958535e-05 -3.152472007471419e-05 -1.8860924375391632e-06" pbc="T T T"
Si      10.63599839      -1.40671585      12.15469015
Si       2.37523467      -0.85542327       7.73607664
Si       6.04633233      -0.65610495       4.81263023
Si       1.38323657       1.22642855       2.25946377
Si       7.99996331       2.31297583       6.30145970
Si       9.64811800       0.76748677      11.58639285
Si       0.19409631       3.71214066       4.50702544
Si       1.82489406      -0.29744594       5.48197899
Si       8.05095943      -1.76420244       8.32682856
Si       4.48085724      -1.78361859       8.10572295
Si       6.28184636      -0.63278882       7.15594621
Si       3.90526603       3.92331658       4.36418911
Si       4.02035759       2.14789679       5.90192219
Si       2.14487841       2.58248156       7.35152010
Si      -0.79179857       3.87731994       0.92539861
Si       2.01158259       3.42202373       3.00236272
Si       3.90210680       0.24270300       4.49345511
Si       5.93733135       1.69844772       7.24890531
Si       5.01540978       2.02395656       9.36746193
Si       2.33936227       4.91013749       7.71606119
20
Lattice="11.147933934999887 -2.2438553054945807 8.562422634336214 -4.68174538531936 7.603255192880542 -2.620141292087398 3.6086328716426674 -2.7889781892598453 8.127867856684574" Properties=species:S:1:pos:R:3 unique_starting_index=76 config_type=initial n_minim_iter=5 stress="0.00011648775968095689 1.9501919159176003e-05 -9.219488362774293e-05 1.9501919159176003e-05 -5.971352777358807e-05 5.476899543732714e-06 -9.219488362774293e-05 5.476899543732714e-06 2.3272668080769102e-05" pbc="T T T"
Si      10.63524825      -1.40340333      12.15375266
Si       2.37462686      -0.85463605       7.73562330
Si       6.04629383      -0.65461228       4.81215472
Si       1.38313833       1.22763611       2.25940164
Si       8.00103440       2.31587714       6.30041960
Si       9.64852126       0.77032770      11.58604040
Si       0.19406360       3.71214557       4.50771757
Si       1.82472348      -0.29675227       5.48300651
Si       8.05062972      -1.76164222       8.32646868
Si       4.48030626      -1.78217046       8.10469345
Si       6.28188743      -0.63104918       7.15607855
Si       3.90607773       3.92435289       4.36434063
Si       4.02041188       2.14903890       5.90168483
Si       2.14538580       2.58383709       7.35228558
Si      -0.79011087       3.87587832       0.92532839
Si       2.01306364       3.42265880       3.00251886
Si       3.90282370       0.24518598       4.49270783
Si       5.93788200       1.69990968       7.24837246
Si       5.01567401       2.02567610       9.36701068
Si       2.33910922       4.91112144       7.71700054
20
Lattice="11.146478399315244 -2.243343909004346 8.563641533313731 -4.680404295065115 7.60420263255759 -2.6207625888325636 3.608481864311235 -2.78927526171966 8.1283637320227" Properties=species:S:1:pos:R:3 unique_starting_index=76 config_type=initial n_minim_iter=6 stress="-5.668586340238074e-05 6.813733604795379e-05 -2.4309733902371e-05 6.813733604795379e-05 5.840284923577821e-05 -5.876028351577413e-07 -2.4309733902371e-05 -5.876028351577413e-07 3.9262591616102805e-05" pbc="T T T"
Si      10.63410524      -1.40287976      12.15490686
Si       2.37486561      -0.85488573       7.73592977
Si       6.04549529      -0.65432247       4.81284467
Si       1.38306615       1.22817100       2.25948312
Si       8.00045222       2.31711158       6.30111176
Si       9.64794401       0.77112744      11.58712280
Si       0.19474754       3.71270706       4.50771988
Si       1.82497831      -0.29672016       5.48348966
Si       8.04968329      -1.76137173       8.32751434
Si       4.48004857      -1.78232118       8.10513430
Si       6.28136942      -0.63074287       7.15689521
Si       3.90614678       3.92539984       4.36474092
Si       4.02036370       2.14970869       5.90208717
Si       2.14601627       2.58442400       7.35270962
Si      -0.78919989       3.87611808       0.92504894
Si       2.01347561       3.42348475       3.00265680
Si       3.90267856       0.24587154       4.49302477
Si       5.93768506       1.70056121       7.24886246
Si       5.01589631       2.02633035       9.36748080
Si       2.33962141       4.91212883       7.71735259
20
Lattice="11.14958740860015 -2.2452812722201996 8.564674164939074 -4.6824247481103045 7.604950342715805 -2.621671454039355 3.610822852145877 -2.790162768348989 8.1280048916858" Properties=species:S:1:pos:R:3 unique_starting_index=76 config_type=initial n_minim_iter=7 stress="1.4714001001430665e-05 -2.4359680382219428e-05 0.00011408031003349143 -2.4359680382219428e-05 -1.2202605103832647e-05 -5.513514384225645e-05 0.00011408031003349143 -5.513514384225645e-05 -9.170302629433749e-05" pbc="T T T"
Si      10.63727106      -1.40498321      12.15515772
Si       2.37675774      -0.85605058       7.73531462
Si       6.04699432      -0.65561464       4.81347346
Si       1.38301930       1.22842022       2.25917449
Si       8.00241491       2.31600333       6.30150836
Si       9.65118078       0.76913277      11.58724438
Si       0.19505452       3.71241239       4.50678684
Si       1.82656661      -0.29709201       5.48344069
Si       8.05216765      -1.76302616       8.32831600
Si       4.48225116      -1.78362886       8.10473254
Si       6.28354112      -0.63200630       7.15722612
Si       3.90686461       3.92481388       4.36485230
Si       4.02152548       2.14897034       5.90188048
Si       2.14739928       2.58382151       7.35235253
Si      -0.78897720       3.87531496       0.92425230
Si       2.01408612       3.42327232       3.00230841
Si       3.90409121       0.24590616       4.49293606
Si       5.93959580       1.69918032       7.24847436
Si       5.01816331       2.02516998       9.36684533
Si       2.34011681       4.91152043       7.71664417
20
Lattice="11.14813371245528 -2.2456868956130007 8.56459895490116 -4.6830638020779585 7.605352297818044 -2.620276737510423 3.6104547918890257 -2.789295645818353 8.128158901843301" Properties=species:S:1:pos:R:3 unique_starting_index=76 config_type=initial n_minim_iter=8 stress="-9.538566488206897e-05 -0.00012162962276099736 7.399133221521228e-05 -0.00012162962276099736 3.2241008108775917e-06 7.121176921162341e-05 7.399133221521228e-05 7.121176921162341e-05 -4.204770485217057e-05" pbc="T T T"
Si      10.63517775      -1.40464876      12.15555559
Si       2.37623631      -0.85543490       7.73594110
Si       6.04597280      -0.65597610       4.81365686
Si       1.38208683       1.22902634       2.25940710
Si       8.00089157       2.31590787       6.30222629
Si       9.64931844       0.76950961      11.58807476
Si       0.19412408       3.71324683       4.50777329
Si       1.82639550      -0.29616437       5.48404590
Si       8.05086193      -1.76305615       8.32877837
Si       4.48151188      -1.78315282       8.10497448
Si       6.28254538      -0.63180531       7.15756749
Si       3.90545291       3.92511360       4.36604223
Si       4.02030848       2.14954409       5.90275308
Si       2.14627535       2.58481233       7.35389158
Si      -0.78914902       3.87500138       0.92490191
Si       2.01320455       3.42370910       3.00303853
Si       3.90339571       0.24661210       4.49318619
Si       5.93826547       1.69934572       7.24889251
Si       5.01688308       2.02604609       9.36791418
Si       2.33806451       4.91268538       7.71839843
20
Lattice="11.14765530663423 -2.2453458566904922 8.565963085870987 -4.682450915554788 7.604519309907286 -2.6211457284922015 3.610128320347096 -2.7893493678493737 8.129551969914276" Properties=species:S:1:pos:R:3 unique_starting_index=76 config_type=initial n_minim_iter=9 stress="-9.253295631834721e-05 -6.677078015222541e-05 5.1957038228578436e-05 -6.677078015222541e-05 -8.883841812512433e-05 -1.69837419680341e-05 5.1957038228578436e-05 -1.69837419680341e-05 8.304857115584925e-05" pbc="T T T"
Si      10.63429738      -1.40467796      12.15727740
Si       2.37610998      -0.85630702       7.73739339
Si       6.04557022      -0.65609099       4.81453552
Si       1.38147949       1.22931432       2.25939234
Si       8.00120846       2.31572288       6.30320880
Si       9.64914532       0.76918239      11.58953961
Si       0.19447321       3.71266823       4.50778733
Si       1.82673989      -0.29586017       5.48482498
Si       8.05023874      -1.76321961       8.33051729
Si       4.48110330      -1.78359129       8.10638201
Si       6.28239937      -0.63177994       7.15846937
Si       3.90565093       3.92497823       4.36670595
Si       4.02037224       2.14954354       5.90365414
Si       2.14618562       2.58401438       7.35533918
Si      -0.78841488       3.87370130       0.92456811
Si       2.01335449       3.42362780       3.00305589
Si       3.90326363       0.24711035       4.49384128
Si       5.93829763       1.69893225       7.24932171
Si       5.01720941       2.02558981       9.36909347
Si       2.33762125       4.91198248       7.71930389
20
Lattice="11.14843185461511 -2.2440763720677377 8.563799036881708 -4.682202831744 7.605243863166822 -2.619914822681924 3.609984570552671 -2.7889021547017663 8.127716317638132" Properties=species:S:1:pos:R:3 unique_starting_index=76 config_type=initial n_minim_iter=10 stress="1.5936271803871095e-05 -4.133778430136944e-06 -6.136650195912967e-06 -4.133778430136944e-06 5.543795078545272e-05 3.902108784840183e-05 -6.136650195912967e-06 3.902108784840183e-05 -6.14981125653971e-05" pbc="T T T"
Si      10.63457785      -1.40305260      12.15441916
Si       2.37602936      -0.85617754       7.73600454
Si       6.04587055      -0.65547489       4.81350858
Si       1.38110150       1.23020603       2.25878442
Si       8.00250391       2.31727220       6.30215336
Si       9.64998025       0.77101188      11.58694625
Si       0.19483944       3.71371518       4.50684387
Si       1.82712360      -0.29483761       5.48365959
Si       8.05046642      -1.76241181       8.32891551
Si       4.48106793      -1.78318813       8.10469859
Si       6.28289125      -0.63075483       7.15668378
Si       3.90637915       3.92660692       4.36630002
Si       4.02088613       2.15107461       5.90277364
Si       2.14625650       2.58501371       7.35457380
Si      -0.78779574       3.87369132       0.92455153
Si       2.01378693       3.42493432       3.00252265
Si       3.90354938       0.24831827       4.49289798
Si       5.93897128       1.70023496       7.24747911
Si       5.01800574       2.02714721       9.36722934
Si       2.33749061       4.91376323       7.71825229
20
Lattice="11.148279800569602 -2.244029945199029 8.564551302622386 -4.682056248282192 7.604726305573253 -2.620346907885049 3.60987664385168 -2.7889042660154058 8.128491069455391" Properties=species:S:1:pos:R:3 unique_starting_index=76 config_type=initial n_minim_iter=11 stress="8.529928876633878e-06 1.4037684148333274e-05 -1.0464324784718839e-05 1.4037684148333274e-05 2.1669177855563477e-06 -5.91389706392497e-06 -1.0464324784718839e-05 -5.91389706392497e-06 7.320767042348951e-06" pbc="T T T"
Si      10.63414403      -1.40320150      12.15537988
Si       2.37587484      -0.85672434       7.73673877
Si       6.04562491      -0.65556773       4.81391607
Si       1.38071815       1.23030454       2.25884164
Si       8.00274481       2.31697129       6.30273214
Si       9.64984367       0.77070688      11.58780179
Si       0.19503608       3.71326821       4.50687439
Si       1.82736846      -0.29454718       5.48411758
Si       8.05015041      -1.76257468       8.32987783
Si       4.48099408      -1.78347627       8.10542707
Si       6.28281281      -0.63090618       7.15721455
Si       3.90643988       3.92642574       4.36663988
Si       4.02087149       2.15108000       5.90339369
Si       2.14614764       2.58449216       7.35551820
Si      -0.78743113       3.87292086       0.92442751
Si       2.01387521       3.42479915       3.00261384
Si       3.90354781       0.24854302       4.49325600
Si       5.93899198       1.69996204       7.24782339
Si       5.01823792       2.02683886       9.36771694
Si       2.33700803       4.91324454       7.71887881
