8
Lattice="5.32889020965476 0.9768634779661868 1.3983210666634824 -1.7480756208783683 5.127920118803455 -1.3983210666634887 -1.748076006885754 -3.077221587917511 4.33377116373468" Properties=species:S:1:pos:R:3 unique_starting_index=16 config_type=initial n_minim_iter=1 energy=-1302.4474040968878 free_energy=-1302.4474040968878 pbc="T T T"
Si       0.02032847      -0.01348797       2.16698953
Si       3.55881158       2.01355456       0.69926448
Si       1.81073567       0.98761840       3.60001259
Si      -1.72774725       3.06314672       2.20169152
Si       1.81073576       3.03890383       2.16698953
Si      -1.72774734       1.01186129       3.63471458
Si       3.55881148      -0.03773087       2.13228754
Si       0.02032857       2.03779745       0.73396647
