8
Lattice="7.366039339326939 -3.2333474291800785e-15 -2.1525732982014304e-47 -3.6830196696634676 6.379177193132676 2.378211887899574e-47 -1.7619245545676023e-47 -4.205684747317855e-47 7.132423565213652" Properties=species:S:1:pos:R:3 unique_starting_index=80 config_type=initial n_minim_iter=11 energy=-1300.210440172746 free_energy=-1300.210440172746 pbc="T T T"
Si       3.68310404       4.15308354       5.08705155
Si       1.92781111       1.11312053       5.08705155
Si       5.43814277       1.11297376       5.08705155
Si       1.75512310       5.26620385       5.08705155
Si       0.00008437       2.22609408       5.08705155
Si      -1.75520856       5.26605709       5.08705155
Si       3.68301931       2.12639261       4.11423659
Si      -0.00000036       4.25278501       4.11423659
