18
Lattice="6.280626233398683 0.9750922702911576 -0.12343868611712593 4.024608428200141 9.572223430026629 -2.080582080591827 2.337876513513607 -0.6275673274342319 7.692996756344843" Properties=species:S:1:pos:R:3 unique_starting_index=194 config_type=initial n_minim_iter=1 energy=-2924.6582356780928 free_energy=-2924.6582356780928 pbc="T T T"
Si       6.44290373       1.76437165       0.65591679
Si       7.36923847       5.17656741       6.21688263
Si       5.46716062       3.90840218       1.69481769
Si       3.81963003       0.82514044       6.30790226
Si       7.91780238       8.65854364       2.67278822
Si       7.79334813       9.66316222       0.56767568
Si       4.42270177       2.38563582      -0.41865466
Si       2.26482509       1.90961454       3.41537864
Si       5.33331676       6.89040373       0.85403588
Si       5.45916250       9.13003378       0.12315874
Si       2.61900668       1.45923247       0.91468102
Si       6.60835023       4.30864901       3.61916334
Si       8.13961299       4.61513909       1.63315736
Si       3.85112923       4.86808341       0.38855385
Si       6.81263665       6.56807386       2.55412259
Si       9.97833167       9.24447076       1.62560467
Si       6.79155199       1.70908268       4.58281466
Si       4.70197075       2.23043305       3.27274178
18
Lattice="6.333894500912769 0.9921116751662319 -0.09627302221707093 4.059606005187976 9.674034056381359 -2.0943185850169317 2.3932901038512004 -0.6441580929865298 7.766031789563268" Properties=species:S:1:pos:R:3 unique_starting_index=194 config_type=initial n_minim_iter=2 stress="0.005300268235277268 -0.00049824385133295 -0.0014569487141014546 -0.00049824385133295 0.004127622389008719 0.00020163075400210558 -0.0014569487141014546 0.00020163075400210558 0.0057565573677014845" pbc="T T T"
Si       6.50217404       1.78865715       0.68545428
Si       7.46686161       5.22520905       6.29289741
Si       5.52653402       3.94629694       1.72517524
Si       3.88156990       0.82807155       6.37784095
Si       8.00694867       8.74765904       2.71846524
Si       7.87309876       9.76514381       0.58940399
Si       4.45994347       2.41624656      -0.40703771
Si       2.30274135       1.92587817       3.45217528
Si       5.38917497       6.96132998       0.87097041
Si       5.51677718       9.22518527       0.13459608
Si       2.64713686       1.47579334       0.92911083
Si       6.68691658       4.35561979       3.67674788
Si       8.21978636       4.66840538       1.67531202
Si       3.88991154       4.91783826       0.40086807
Si       6.89123457       6.63486910       2.59602825
Si      10.08101684       9.34272687       1.67217447
Si       6.87227093       1.72601730       4.65052866
Si       4.75859860       2.25116111       3.31804805
18
Lattice="6.285625982225393 1.0302339440857835 0.026374730452232157 4.039332209612626 9.724785653355063 -2.040193856537505 2.5254883046677103 -0.6735427343781114 7.7245222300716865" Properties=species:S:1:pos:R:3 unique_starting_index=194 config_type=initial n_minim_iter=3 stress="-0.001332875834686078 -0.0002771929608743765 0.00723763897590029 -0.0002771929608743765 -0.0007154190573348643 -0.0013460820861371803 0.00723763897590029 -0.0013460820861371803 0.0023863453321027166" pbc="T T T"
Si       6.47296988       1.83053200       0.77712597
Si       7.56257076       5.24316980       6.34503664
Si       5.54530778       3.94847905       1.77985778
Si       3.97553023       0.82376109       6.39788973
Si       8.04488043       8.79298942       2.80939184
Si       7.87859743       9.82146214       0.66762649
Si       4.42399778       2.45842405      -0.33821821
Si       2.36676293       1.92988362       3.46135187
Si       5.39575259       6.99150223       0.90907645
Si       5.53073372       9.27028762       0.19470511
Si       2.65252033       1.49554646       0.94431186
Si       6.73728013       4.40445996       3.77501457
Si       8.20354921       4.72238831       1.78464181
Si       3.88892374       4.93284244       0.44332924
Si       6.93458992       6.66501637       2.66845341
Si      10.08840983       9.40146393       1.81793360
Si       6.91727385       1.74368534       4.73660916
Si       4.79317589       2.25639033       3.36670515
18
Lattice="6.288475660711776 1.1442684072795282 -0.0094702581485796 4.191733128224144 9.953842001868889 -2.0165899039626343 2.4650917311448475 -0.6714154449396332 7.42804700173554" Properties=species:S:1:pos:R:3 unique_starting_index=194 config_type=initial n_minim_iter=4 stress="-0.004689278714154049 0.0021038578847083034 0.00495331710932664 0.0021038578847083034 8.008192952590012e-06 -0.0024516421417889616 0.00495331710932664 -0.0024516421417889616 -0.006438713522171057" pbc="T T T"
Si       6.48709824       1.97191718       0.65218349
Si       7.59541233       5.42738523       6.06946902
Si       5.60669258       4.01668201       1.63783788
Si       3.92286998       0.89836372       6.20535191
Si       8.14005737       9.04948490       2.66597489
Si       8.02007336      10.09734447       0.51356140
Si       4.44224434       2.60137364      -0.39410549
Si       2.38030029       2.00934073       3.35721116
Si       5.47725327       7.16082578       0.76633026
Si       5.67340274       9.50709621       0.13003372
Si       2.66490800       1.57821261       0.83812531
Si       6.78434004       4.64162795       3.67799790
Si       8.22327357       4.94481146       1.63187636
Si       3.93884721       5.02703778       0.38269365
Si       7.03131646       6.85642437       2.51147868
Si      10.21077585       9.69336913       1.71409609
Si       6.89333855       1.86387062       4.55791892
Si       4.78139903       2.33055760       3.22659676
18
Lattice="6.302076414371751 1.1004241605522864 -0.06374047703988972 4.180601165084601 9.775338382488203 -1.9512750978628375 2.3941093952037997 -0.58358461277715 7.411991767032386" Properties=species:S:1:pos:R:3 unique_starting_index=194 config_type=initial n_minim_iter=5 stress="-0.003303016277586054 -0.0004403615077083711 0.002950845147293529 -0.0004403615077083711 -0.0036098601270464466 0.00018612240729842913 0.002950845147293529 0.00018612240729842913 -0.009261814123086742" pbc="T T T"
Si       6.49725450       1.93089057       0.55150033
Si       7.53163164       5.38720921       6.07526619
Si       5.61661067       3.88574366       1.60349612
Si       3.83754599       0.96601147       6.24262144
Si       8.08571547       8.91592059       2.72190515
Si       8.00568687       9.93077855       0.48636244
Si       4.43108782       2.57225210      -0.45040305
Si       2.35034958       2.03635372       3.40823190
Si       5.44510885       7.03118268       0.73573772
Si       5.65900658       9.34954153       0.18402900
Si       2.66364581       1.57761391       0.78137949
Si       6.75390282       4.67301286       3.75444787
Si       8.18309792       4.88013615       1.57363885
Si       3.90682661       4.89600918       0.39025288
Si       7.01831524       6.74981828       2.51887527
Si      10.18751375       9.52541769       1.76866689
Si       6.84250629       1.85900233       4.54576149
Si       4.72862915       2.28932556       3.22719542
18
Lattice="6.252634746362665 1.110161068905754 -0.12903441907144764 4.1913119814482025 9.72772753641822 -2.0260024649971218 2.294952916758906 -0.5690162193437701 7.537122006334953" Properties=species:S:1:pos:R:3 unique_starting_index=194 config_type=initial n_minim_iter=6 stress="-0.0011916542520943095 0.0015657966737025921 -0.00028162572922036343 0.0015657966737025921 -0.00203509993042453 -0.001020124208831418 -0.00028162572922036343 -0.001020124208831418 -0.002090789584900084" pbc="T T T"
Si       6.44299518       1.93163440       0.48130792
Si       7.42114449       5.37170210       6.12620486
Si       5.57662733       3.85668593       1.57955822
Si       3.73164280       0.98356609       6.33274183
Si       8.01056085       8.88772864       2.71369022
Si       7.96417236       9.89496425       0.40305505
Si       4.39788668       2.57835046      -0.51735388
Si       2.30165397       2.04145128       3.47108668
Si       5.40852928       7.00457268       0.68670474
Si       5.63785311       9.30882373       0.13953749
Si       2.64584405       1.58717288       0.76150600
Si       6.67283856       4.69432067       3.79242061
Si       8.10278568       4.87752958       1.51320779
Si       3.87638309       4.85843690       0.35821573
Si       6.95681269       6.72886961       2.49738443
Si      10.11172415       9.49125506       1.72508733
Si       6.73676608       1.86594556       4.57560543
Si       4.65325216       2.28115678       3.25413482
18
Lattice="6.167504221376181 1.0303529836132737 -0.17891497089774902 4.042973800999743 9.660583284644611 -1.9802407857410764 2.2014889060096756 -0.4972704822402037 7.663636861084496" Properties=species:S:1:pos:R:3 unique_starting_index=194 config_type=initial n_minim_iter=7 stress="0.0028095926458167764 -0.0016232348932859162 -0.0007066765601437834 -0.0016232348932859162 0.004467837978868584 0.002720929263987542 -0.0007066765601437834 0.002720929263987542 0.006250340797849893" pbc="T T T"
Si       6.34785243       1.83745458       0.42026482
Si       7.21298413       5.34521054       6.25621787
Si       5.48109757       3.76903345       1.61610378
Si       3.58704998       1.04162047       6.43066891
Si       7.77990671       8.84321827       2.83495749
Si       7.75554391       9.81206820       0.42911557
Si       4.30099662       2.53780602      -0.57233016
Si       2.21326308       2.07820190       3.58309983
Si       5.25080106       6.95845528       0.71815841
Si       5.46249830       9.25299193       0.21742498
Si       2.61247974       1.59325444       0.76017413
Si       6.50327129       4.72842367       3.92152953
Si       7.91901935       4.80403257       1.50349571
Si       3.75423755       4.78405372       0.38104611
Si       6.77948855       6.68336309       2.55230436
Si       9.86693302       9.38381009       1.82411201
Si       6.58111038       1.83795638       4.64178085
Si       4.52649657       2.25703174       3.32346025
18
Lattice="6.165554298798384 1.029094226775163 -0.2369983472250317 4.06448202623146 9.611413111380159 -2.0921245728807474 2.138171665164735 -0.5508066027583791 7.669545608686611" Properties=species:S:1:pos:R:3 unique_starting_index=194 config_type=initial n_minim_iter=8 stress="0.006506917699340276 -0.0012197997486775647 -0.0021839089615801658 -0.0012197997486775647 0.0010063694276500783 -0.002446675044260165 -0.0021839089615801658 -0.002446675044260165 0.0068020881218881285" pbc="T T T"
Si       6.35072199       1.79880390       0.32751147
Si       7.16718302       5.23944023       6.18012207
Si       5.50143184       3.69080283       1.55842585
Si       3.50634127       1.00598680       6.38627661
Si       7.75738623       8.77846510       2.73963341
Si       7.76554867       9.74733480       0.26240286
Si       4.28518358       2.54800658      -0.66738840
Si       2.17501919       2.05404543       3.59387514
Si       5.24272229       6.91480577       0.60638934
Si       5.46675994       9.19303554       0.11063319
Si       2.63155743       1.61015060       0.72294060
Si       6.47452554       4.73206643       3.89489663
Si       7.89037901       4.76286004       1.38142919
Si       3.73963756       4.71319647       0.30361735
Si       6.77166619       6.62257746       2.43060043
Si       9.86311678       9.29269810       1.71193521
Si       6.53218390       1.78629080       4.59874397
Si       4.49119880       2.21176706       3.29535587
18
Lattice="6.070931767018547 1.1167321992435937 -0.24687600094378317 4.119274869085189 9.75988732102955 -2.0087914066688732 2.0672756575842564 -0.462312476478451 7.614634900505" Properties=species:S:1:pos:R:3 unique_starting_index=194 config_type=initial n_minim_iter=9 stress="0.0006316875281897901 0.0031650980817285184 -0.0031186212169095535 0.0031650980817285184 0.003481608193181681 0.0012113887572536696 -0.0031186212169095535 0.0012113887572536696 0.0024053838911204054" pbc="T T T"
Si       6.27035708       1.85775168       0.29530263
Si       7.09057722       5.40814133       6.18002558
Si       5.47952518       3.77806851       1.58717374
Si       3.40321976       1.14035744       6.29694287
Si       7.72166949       9.02537529       2.80477672
Si       7.75972296       9.96594238       0.29864995
Si       4.22322888       2.64315973      -0.69929425
Si       2.12734665       2.15576330       3.62376245
Si       5.22594009       7.08443327       0.64173058
Si       5.48146877       9.38168846       0.18438478
Si       2.63484839       1.70951107       0.72831974
Si       6.40936889       4.97431074       3.93747886
Si       7.79147552       4.91971503       1.36401523
Si       3.72019313       4.78068468       0.31959162
Si       6.73741085       6.81264147       2.42320523
Si       9.80931539       9.51511695       1.78420931
Si       6.41679145       1.92084816       4.57202364
Si       4.42781171       2.32723897       3.29943328
18
Lattice="6.0622286037362265 1.064830291091282 -0.22036000044564957 4.032401100860005 9.716601438301797 -2.0154116675734883 2.1083423947507716 -0.5076162502160233 7.5946811933154255" Properties=species:S:1:pos:R:3 unique_starting_index=194 config_type=initial n_minim_iter=10 stress="5.7719784858756085e-05 0.0005921104681883062 0.00047054660026420164 0.0005921104681883062 -0.00111543013818865 0.00026882431592122177 0.00047054660026420164 0.00026882431592122177 0.0006951128996375271" pbc="T T T"
Si       6.26047033       1.77921059       0.32077058
Si       7.08202067       5.29821217       6.18168957
Si       5.46264711       3.72349697       1.60982692
Si       3.41773902       1.09140258       6.24508361
Si       7.66647186       8.93949037       2.79909391
Si       7.68588078       9.88675289       0.31278988
Si       4.19711125       2.60227648      -0.69185073
Si       2.10964057       2.12256597       3.61787940
Si       5.16789159       7.04043903       0.65226063
Si       5.40330505       9.32222497       0.18471543
Si       2.63236030       1.69315585       0.74426970
Si       6.38865415       4.90709402       3.92088427
Si       7.75952195       4.82705293       1.37781931
Si       3.68725497       4.73880689       0.31751694
Si       6.69918839       6.74269186       2.41194210
Si       9.74891012       9.39992376       1.78830988
Si       6.42793249       1.83886838       4.56491194
Si       4.43393314       2.28596954       3.29765567
18
Lattice="6.039031218582661 1.0380307704961964 -0.2253763222353669 3.9667775089126405 9.78692657300664 -2.048863387270593 2.104201755557903 -0.5665553122504746 7.534147777782204" Properties=species:S:1:pos:R:3 unique_starting_index=194 config_type=initial n_minim_iter=11 stress="-0.001635802529245371 -0.0010895200814286055 0.0012338490752911739 -0.0010895200814286055 -0.0004994194048550677 -0.0006575040306284174 0.0012338490752911739 -0.0006575040306284174 -0.0011926611961223636" pbc="T T T"
Si       6.23450572       1.73921367       0.30582752
Si       7.03704134       5.24931355       6.12078664
Si       5.42523996       3.71774734       1.58334619
Si       3.39250501       1.05426072       6.16098776
Si       7.59557699       8.95293861       2.72533012
Si       7.61241805       9.92936108       0.27583927
Si       4.17328461       2.59631299      -0.70413089
Si       2.07267359       2.11181249       3.58434377
Si       5.10382862       7.07784936       0.61870031
Si       5.33108322       9.37167554       0.14556540
Si       2.61393558       1.69366109       0.73573012
Si       6.34160871       4.89864363       3.84435998
Si       7.70733793       4.80112377       1.34323364
Si       3.65730957       4.75461772       0.29112261
Si       6.65044206       6.75461498       2.35033240
Si       9.67538458       9.40050797       1.71946265
Si       6.40298971       1.77947777       4.50169430
Si       4.41350273       2.27484720       3.25585990
18
Lattice="6.073186989663416 1.036306726864722 -0.2450402394756623 3.984671598141997 9.838410444252641 -2.0430747322576885 2.0930536051842097 -0.581762712632058 7.416636310116479" Properties=species:S:1:pos:R:3 unique_starting_index=194 config_type=initial n_minim_iter=12 stress="-0.0009963912646284924 -0.0014769889508535689 0.0027911214071501085 -0.0014769889508535689 -0.004056289176252414 0.0002604032552821139 0.0027911214071501085 0.0002604032552821139 -0.0046285674594773426" pbc="T T T"
Si       6.27437706       1.70988139       0.25494425
Si       7.07306450       5.21218318       6.05453046
Si       5.44687586       3.72551081       1.53977328
Si       3.35822662       1.07934869       6.01023950
Si       7.62266484       8.98062027       2.64248896
Si       7.65851323       9.99464588       0.26979411
Si       4.20469794       2.59259267      -0.72550936
Si       2.02423249       2.13690108       3.55451734
Si       5.09248512       7.13637959       0.58862123
Si       5.34090819       9.42245580       0.14697278
Si       2.61475725       1.71374135       0.71883888
Si       6.36118630       4.95946904       3.72476027
Si       7.72640759       4.78919811       1.29543850
Si       3.69070799       4.75779016       0.27279508
Si       6.70778781       6.79747199       2.27123480
Si       9.73781141       9.40383793       1.64929059
Si       6.43357559       1.73978997       4.37430940
Si       4.42890598       2.31436654       3.18878918
18
Lattice="5.980836700803854 1.039185204398285 -0.3352869328344151 3.936570392014308 9.974160193337763 -2.1514888663625533 1.955354916123744 -0.6279689670366461 7.433552957664037" Properties=species:S:1:pos:R:3 unique_starting_index=194 config_type=initial n_minim_iter=13 stress="-0.0018712190762529646 -0.0018879989644506997 -0.0008097798893078093 -0.0018879989644506997 0.003355665522532593 -0.001504618636386582 -0.0008097798893078093 -0.001504618636386582 0.0010177889017057016" pbc="T T T"
Si       6.17972400       1.71327332       0.11113238
Si       6.89261602       5.20013848       6.00830622
Si       5.34997384       3.71786750       1.43741917
Si       3.17657346       1.09544883       5.99633668
Si       7.45650516       9.07021403       2.52396564
Si       7.53555451      10.13484579       0.12188536
Si       4.14680963       2.62112600      -0.82260386
Si       1.91591092       2.18041489       3.58938113
Si       4.97448118       7.22529176       0.45994626
Si       5.24596912       9.54520649       0.06410807
Si       2.55244300       1.74397089       0.65127403
Si       6.20779630       5.07193548       3.65911053
Si       7.55363069       4.82943953       1.16729824
Si       3.62583562       4.76695900       0.20628403
Si       6.60205137       6.87394844       2.14439358
Si       9.56270326       9.47223347       1.51575343
Si       6.26819106       1.69509437       4.28720652
Si       4.29009143       2.33713388       3.14853465
18
Lattice="6.029201995148203 1.077589075664946 -0.335208330307378 4.033195614301616 9.93399936922572 -2.106056365920386 1.960327729895517 -0.5692802850296623 7.424508021460134" Properties=species:S:1:pos:R:3 unique_starting_index=194 config_type=initial n_minim_iter=14 stress="0.0005107157544368624 1.4281561643454544e-05 -0.001142982057325479 1.4281561643454544e-05 0.001130857809411324 -0.0004225669182809036 -0.001142982057325479 -0.0004225669182809036 0.0013493932987128348" pbc="T T T"
Si       6.23641931       1.75666061       0.10259138
Si       6.98210262       5.24559646       6.02695804
Si       5.41351361       3.73292587       1.43956724
Si       3.19051247       1.15140015       6.00085585
Si       7.57248788       9.09024567       2.56178880
Si       7.65960443      10.14351107       0.16432413
Si       4.19504691       2.62746491      -0.81495872
Si       1.94043690       2.21614193       3.61116647
Si       5.05696006       7.22156631       0.47883154
Si       5.34980696       9.53265846       0.11308791
Si       2.57438350       1.75548131       0.64567360
Si       6.28750173       5.12457633       3.68382340
Si       7.63057433       4.86797300       1.18350319
Si       3.68175203       4.75329568       0.22831654
Si       6.70547024       6.89609892       2.16470342
Si       9.69326995       9.48918392       1.56261804
Si       6.32136140       1.74528456       4.28053052
Si       4.32106806       2.38070348       3.15575369
18
Lattice="6.084031370382266 1.1415963955873443 -0.3269298904810705 4.16555726659024 9.930150529290161 -2.0134927428612155 1.9693393057207789 -0.47962802217518974 7.362259719671369" Properties=species:S:1:pos:R:3 unique_starting_index=194 config_type=initial n_minim_iter=15 stress="0.0016194861439604656 0.0024702781738449946 6.925108081958719e-05 0.0024702781738449946 -0.0021061486598583485 0.0012458475698777249 6.925108081958719e-05 0.0012458475698777249 -4.0724290979989695e-05" pbc="T T T"
Si       6.31023492       1.82273148       0.08605134
Si       7.12408263       5.31436984       6.03034897
Si       5.50613903       3.75880150       1.43470624
Si       3.18034111       1.25831021       5.94468918
Si       7.74092961       9.18833836       2.62011751
Si       7.82843460      10.23967541       0.25321953
Si       4.25288447       2.63249256      -0.80092354
Si       1.96258424       2.31700082       3.65876321
Si       5.16688722       7.26832240       0.50781072
Si       5.49397485       9.58202991       0.21712986
Si       2.59245983       1.78852126       0.62426106
Si       6.40160840       5.26805879       3.71705669
Si       7.71021518       4.94648453       1.21058183
Si       3.75042273       4.73366747       0.26582734
Si       6.86698401       6.97951140       2.16740207
Si       9.86658499       9.54176094       1.65669527
Si       6.38844723       1.80711799       4.22185833
Si       4.33631052       2.48723712       3.15405249
18
Lattice="6.09188775776431 1.1342523999109786 -0.34141905838803227 4.160533549834725 9.956869427163893 -1.9889065686289424 1.952379014292741 -0.46869283635175857 7.30255858463333" Properties=species:S:1:pos:R:3 unique_starting_index=194 config_type=initial n_minim_iter=16 stress="0.0015659002717883868 0.0017747814432708302 0.0003192664121114637 0.0017747814432708302 -0.0011083893331161328 0.001023678978994077 0.0003192664121114637 0.001023678978994077 0.00016850400162803558" pbc="T T T"
Si       6.32407537       1.80908622       0.06581265
Si       7.14573346       5.28431715       5.98071633
Si       5.51831036       3.74056305       1.40236869
Si       3.12432264       1.28549577       5.85388041
Si       7.75172202       9.23759901       2.60625804
Si       7.82364022      10.31096294       0.27723066
Si       4.25640876       2.59089200      -0.80952271
Si       1.93549466       2.38538341       3.69001588
Si       5.16877648       7.30374076       0.49589151
Si       5.49011672       9.63070487       0.25263717
Si       2.56959822       1.79316513       0.59476675
Si       6.40601680       5.32367628       3.70110371
Si       7.68759046       4.94135504       1.19490093
Si       3.73788967       4.70555453       0.26143797
Si       6.89462595       7.01444451       2.10938392
Si       9.86281594       9.51579492       1.66555857
Si       6.38445298       1.76958756       4.12540292
Si       4.29034120       2.54305227       3.12730817
18
Lattice="6.078477631471675 1.0971668753956858 -0.34719705041786375 4.096860809637989 9.959458225790291 -1.9924752845182436 1.9469159967070582 -0.49070762365413945 7.276229798617313" Properties=species:S:1:pos:R:3 unique_starting_index=194 config_type=initial n_minim_iter=17 stress="-6.094400325194413e-05 0.00014935204260168032 0.0001418567266975317 0.00014935204260168032 -0.00012003503220196017 0.0002730343781538225 0.0001418567266975317 0.0002730343781538225 -0.00016863897392317825" pbc="T T T"
Si       6.30602684       1.76971176       0.07787340
Si       7.11791323       5.22698688       5.93979254
Si       5.49361150       3.70901269       1.38338281
Si       3.09300284       1.25891817       5.80235073
Si       7.69641257       9.22209332       2.58849194
Si       7.74594406      10.31485315       0.28071596
Si       4.23645568       2.53680109      -0.81154043
Si       1.91559153       2.40313259       3.70185121
Si       5.13645581       7.29734938       0.48473610
Si       5.42918548       9.63222995       0.25184357
Si       2.53766976       1.77594335       0.58133242
Si       6.37075134       5.29169727       3.69024335
Si       7.64276189       4.89479876       1.18658090
Si       3.69765389       4.68147553       0.24514059
Si       6.85236467       6.99559055       2.07278152
Si       9.79120643       9.44844410       1.65364565
Si       6.35942797       1.71565206       4.07104569
Si       4.24869660       2.54795493       3.11160974
18
Lattice="6.067680202850575 1.037167421711034 -0.34201523074126366 3.9971386635000106 9.954722412754377 -2.0116798151244364 1.9626769303696878 -0.541127417902689 7.256383652526876" Properties=species:S:1:pos:R:3 unique_starting_index=194 config_type=initial n_minim_iter=18 stress="-0.0013366222459179054 -0.0020039871694717084 -0.0006864560052104816 -0.0020039871694717084 0.0008933778759898547 -0.001206658215325161 -0.0006864560052104816 -0.001206658215325161 -0.000314453652625286" pbc="T T T"
Si       6.27908999       1.71325910       0.13189199
Si       7.08504138       5.15046782       5.89679188
Si       5.45419449       3.67459555       1.36323433
Si       3.08685248       1.18556003       5.75934796
Si       7.61264493       9.15904248       2.56823956
Si       7.63307349      10.29192369       0.28167320
Si       4.21506854       2.45309922      -0.80719020
Si       1.91051337       2.39551326       3.70862201
Si       5.10402556       7.26663779       0.46757664
Si       5.34339296       9.60639445       0.22889357
Si       2.48826938       1.74188208       0.57552057
Si       6.32969104       5.19400630       3.67821688
Si       7.60691979       4.81614992       1.18835791
Si       3.65115753       4.66035090       0.20475392
Si       6.78427023       6.94513809       2.04925395
Si       9.70599029       9.34243012       1.62146089
Si       6.33135157       1.65326366       4.02115031
Si       4.22673346       2.53339330       3.10014111
18
Lattice="6.06628104517919 1.0777856822101826 -0.315056850882814 4.039858386136449 10.024063854336 -1.940113650384516 1.9832621904401917 -0.49631144442896996 7.210685304629036" Properties=species:S:1:pos:R:3 unique_starting_index=194 config_type=initial n_minim_iter=19 stress="0.0006209976445954571 -0.00021164762166496753 -0.0010114922594136324 -0.00021164762166496753 0.0012720249573834794 -0.001150407114183592 -0.0010114922594136324 -0.001150407114183592 -0.0002926914690815459" pbc="T T T"
Si       6.26796544       1.75546867       0.17887380
Si       7.14916490       5.24347870       5.93829001
Si       5.47309837       3.72553924       1.35059145
Si       3.06398052       1.24047711       5.72472250
Si       7.65026941       9.23850983       2.64877187
Si       7.69162469      10.44231854       0.36567464
Si       4.22579840       2.43189294      -0.81699844
Si       1.93165658       2.48618511       3.79066620
Si       5.16965131       7.34318731       0.46722957
Si       5.40580227       9.67929971       0.30762326
Si       2.44622715       1.78932589       0.56496624
Si       6.36681694       5.32593441       3.73294487
Si       7.62898830       4.88553539       1.22430971
Si       3.68997748       4.66077908       0.16808096
Si       6.85247183       7.03655538       2.09252545
Si       9.78640831       9.40670248       1.68789967
Si       6.30210767       1.73553678       3.97085128
Si       4.25921220       2.64095697       3.12826162
18
Lattice="6.0529946396801355 1.089210026193499 -0.27636667419849215 4.0420393790574325 9.993686519559397 -1.8697014319662004 2.017131051315603 -0.44422082710889743 7.243891515692494" Properties=species:S:1:pos:R:3 unique_starting_index=194 config_type=initial n_minim_iter=20 stress="-0.0002617342862271844 0.000562380306343462 -0.0004841768015586867 0.000562380306343462 -0.0009528976948184967 -0.00019015802750242179 -0.0004841768015586867 -0.00019015802750242179 -0.00011225872591462139" pbc="T T T"
Si       6.24858575       1.77296227       0.23961643
Si       7.18054696       5.30201946       6.02376960
Si       5.47431033       3.73934064       1.39100914
Si       3.08223979       1.26810345       5.77938489
Si       7.66234642       9.23952976       2.76507084
Si       7.70085005      10.44705288       0.46293319
Si       4.21574164       2.41366875      -0.79855390
Si       1.96722263       2.51736466       3.85545514
Si       5.20000802       7.33442517       0.52032229
Si       5.42582957       9.65686416       0.38734526
Si       2.43125406       1.79911678       0.58180747
Si       6.38204683       5.35826669       3.83468817
Si       7.63463626       4.90681881       1.29656406
Si       3.69310944       4.63805465       0.18046608
Si       6.86190185       7.03827186       2.18433107
Si       9.79884128       9.41206780       1.80107312
Si       6.29155581       1.78880180       4.02078722
Si       4.27825402       2.67501618       3.18676195
18
Lattice="6.045473610930484 1.0973845713009815 -0.21999701881229594 4.030575030244465 10.010947950823805 -1.7552274602037148 2.0725711296829834 -0.380459394119189 7.239301616562255" Properties=species:S:1:pos:R:3 unique_starting_index=194 config_type=initial n_minim_iter=21 stress="0.0005350945043610185 0.00028359078454233617 0.0006592217696510023 0.00028359078454233617 -0.00038405065471351315 0.00185046917725209 0.0006592217696510023 0.00185046917725209 -0.0006264084195707676" pbc="T T T"
Si       6.23191074       1.78491129       0.31985961
Si       7.25236932       5.38707728       6.10688254
Si       5.47982219       3.76950729       1.43284454
Si       3.09384935       1.30972121       5.80192539
Si       7.68659511       9.29044404       2.90905350