20
Lattice="5.745912793318955 -0.32799761843680053 0.33525403062842685 -3.5928937728276473 6.347656423927411 2.9761834603999695 1.8581535118394237 9.479709606144159 16.745218688163966" Properties=species:S:1:pos:R:3 unique_starting_index=204 config_type=initial n_minim_iter=1 energy=-3257.3830279729314 free_energy=-3257.3830279729314 pbc="T T T"
Si       1.85107766       2.04111393       4.60682815
Si       4.07080490       5.72230345       7.42446837
Si      -0.07666744       2.59526675       5.94106866
Si       3.41391069       5.44341739       5.14794324
Si       3.86201358       3.11906787       5.04865711
Si      -0.94730238      11.58815263      14.58218464
Si       4.22455202       9.37612385      13.54695296
Si       0.12809796       4.48195544       7.33410076
Si       1.94062500       9.43996931      12.95768675
Si       2.28283402      14.13306152      16.81785832
Si       2.03723211      11.84482702      16.37015252
Si       1.47836248      11.45980096      14.13128839
Si       1.32539074       6.57370682      10.09093606
Si       6.19302828      10.87885026      18.24039170
Si       0.45692997      13.10569009      19.22665959
Si       4.27844432      10.99425374      11.78845423
Si       1.05819645       5.49423807       4.92008665
Si       2.08442885       1.42615033       0.65504891
Si       1.96205113       3.08897075       2.44527911
Si       0.55758794       4.96401376       2.46726960
20
Lattice="5.751944608006621 -0.3261597637732441 0.33468512060120914 -3.594472657127916 6.348008632692791 2.968693244872278 1.861858383137879 9.469739155337221 16.728949508143195" Properties=species:S:1:pos:R:3 unique_starting_index=204 config_type=initial n_minim_iter=2 stress="0.001289183307097642 0.00024654637174859284 -8.970623031793768e-05 0.00024654637174859284 0.0006319443910152602 -0.00044668948165788475 -8.970623031793768e-05 -0.00044668948165788475 0.00020000008288996508" pbc="T T T"
Si       1.85315492       2.03796170       4.60181751
Si       4.07594877       5.72063101       7.41506625
Si      -0.07678328       2.59116139       5.93609654
Si       3.41957560       5.44406425       5.13935475
Si       3.86740733       3.11811510       5.04363554
Si      -0.94570453      11.58134208      14.56404000
Si       4.22996404       9.37060962      13.53082005
Si       0.12879396       4.47840542       7.32692563
Si       1.94493279       9.43443445      12.94247789
Si       2.28888502      14.12686531      16.79624491
Si       2.04154681      11.83719733      16.35158794
Si       1.48321598      11.45429624      14.11451855
Si       1.32833035       6.56845759      10.08026040
Si       6.20239509      10.86994000      18.22133754
Si       0.46159608      13.09573931      19.20566574
Si       4.28628151      10.99151582      11.77281527
Si       1.06053785       5.49327366       4.91302437
Si       2.08786581       1.42677964       0.65221486
Si       1.96526808       3.08936366       2.44089382
Si       0.56006673       4.96550841       2.46117815
20
Lattice="5.743788558529372 -0.3254670231030853 0.33439970381813605 -3.588447646720674 6.343793558485369 2.9592971691833685 1.8602675111195897 9.453075420329464 16.70003939619175" Properties=species:S:1:pos:R:3 unique_starting_index=204 config_type=initial n_minim_iter=3 stress="-0.00037632519172376783 0.0003489383659567221 -0.00013743089381222792 0.0003489383659567221 -0.000310638012831602 -0.0007907734962247915 -0.00013743089381222792 -0.0007907734962247915 -0.001294797756124589" pbc="T T T"
Si       1.85048992       2.03256842       4.59205630
Si       4.06924778       5.71379373       7.40070941
Si      -0.07717403       2.58596615       5.92620711
Si       3.41628084       5.44010728       5.12698461
Si       3.86359623       3.11455890       5.03602993
Si      -0.94359478      11.56661416      14.53425467
Si       4.22214468       9.35728295      13.50401390
Si       0.12835846       4.47302162       7.31452747
Si       1.94325442       9.42184519      12.91756498
Si       2.28725764      14.10945104      16.76253119
Si       2.03859513      11.82037615      16.32155645
Si       1.48336664      11.44012357      14.08866132
Si       1.32748580       6.55841143      10.06233956
Si       6.19630297      10.85156910      18.18881913
Si       0.46547020      13.07707501      19.17028103
Si       4.28212340      10.97836173      11.75064527
Si       1.05876880       5.48710800       4.90385223
Si       2.08668540       1.42460694       0.64821815
Si       1.96330317       3.08633825       2.43535681
Si       0.56019999       4.96231492       2.45429843
20
Lattice="5.739785670051791 -0.32862550366078774 0.33620626606829684 -3.588444965032369 6.351488535482216 2.9659136138811486 1.8580755042228037 9.466827622708902 16.729800679801844" Properties=species:S:1:pos:R:3 unique_starting_index=204 config_type=initial n_minim_iter=4 stress="-0.0006214821234188912 -0.00012029564581645519 1.0536343949402687e-05 -0.00012029564581645519 0.000790659985071553 6.038930375509837e-05 1.0536343949402687e-05 6.038930375509837e-05 -2.1643925179136558e-05" pbc="T T T"
Si       1.84895573       2.03382102       4.59703143
Si       4.06260589       5.71942119       7.41562021
Si      -0.07798678       2.59157772       5.93574248
Si       3.41318228       5.44591900       5.13653044
Si       3.86193550       3.11844347       5.04801671
Si      -0.94633682      11.58319835      14.55901227
Si       4.21330881       9.36775823      13.52715215
Si       0.12663945       4.48268319       7.32832909
Si       1.93968006       9.43417567      12.94089240
Si       2.28190298      14.12604182      16.79429056
Si       2.03286587      11.83508771      16.35308610
Si       1.48081194      11.45469470      14.11798608
Si       1.32582781       6.56760901      10.08130331
Si       6.19257699      10.86321455      18.22215634
Si       0.46717141      13.09677222      19.20499690
Si       4.27672274      10.98725842      11.77776088
Si       1.05482285       5.49135167       4.91681734
Si       2.08668480       1.42222997       0.64772847
Si       1.96141581       3.08760527       2.44149366
Si       0.55806371       4.96613097       2.46172093
20
Lattice="5.743424701718822 -0.32799309832143314 0.33664832999995353 -3.5903460571231283 6.343273724660206 2.967358404687246 1.8605609923435578 9.455977692693777 16.736718438409472" Properties=species:S:1:pos:R:3 unique_starting_index=204 config_type=initial n_minim_iter=5 stress="-9.486143011214318e-05 -4.954855189227343e-05 7.291866593137578e-05 -4.954855189227343e-05 -0.0003426495031741192 7.79032284373197e-05 7.291866593137578e-05 7.79032284373197e-05 8.16697584960488e-05" pbc="T T T"
Si       1.85048059       2.03136986       4.59802023
Si       4.06504236       5.71276451       7.41904435
Si      -0.07777727       2.58889911       5.93806748
Si       3.41610646       5.43965871       5.13857659
Si       3.86502557       3.11538828       5.05067300
Si      -0.94598134      11.56951148      14.56452469
Si       4.21611711       9.35651964      13.53243554
Si       0.12699945       4.47838122       7.33153384
Si       1.94156224       9.42320646      12.94615500
Si       2.28453218      14.10911063      16.80157457
Si       2.03514142      11.82102083      16.36048901
Si       1.48328114      11.44109118      14.12485905
Si       1.32754519       6.56027170      10.08574673
Si       6.19848435      10.85024194      18.23011754
Si       0.47011644      13.08155741      19.21313987
Si       4.28063171      10.97335315      11.78416005
Si       1.05554467       5.48428899       4.91999445
Si       2.08869273       1.41978036       0.64732715
Si       1.96318382       3.08348118       2.44283812
Si       0.55903199       4.95972524       2.46346269
20
Lattice="5.746914313121136 -0.32538674201972867 0.33035745335683375 -3.5927595397628345 6.345115873259021 2.9666291945343413 1.8491823819817554 9.46005344360628 16.71454709829986" Properties=species:S:1:pos:R:3 unique_starting_index=204 config_type=initial n_minim_iter=6 stress="0.0006933172711545061 0.0004295927254547529 -0.0004565371496789843 0.0004295927254547529 0.0003207638924176294 0.0004426441408680039 -0.0004565371496789843 0.0004426441408680039 -0.00048188745681778023" pbc="T T T"
Si       1.84904671       2.03397117       4.58679595
Si       4.05843908       5.71675233       7.40494313
Si      -0.08221797       2.59002336       5.93162451
Si       3.41644234       5.44563316       5.12587937
Si       3.86300592       3.12047902       5.03908141
Si      -0.95723875      11.57499771      14.54364156
Si       4.20681163       9.35829844      13.50907547
Si       0.12077248       4.48518246       7.32335078
Si       1.92916633       9.42891105      12.92567830
Si       2.27282656      14.11833907      16.77775351
Si       2.02604107      11.82586951      16.34036156
Si       1.47681306      11.44760407      14.10928368
Si       1.32100508       6.56700921      10.07335149
Si       6.19101296      10.85396184      18.20394958
Si       0.46051551      13.08613812      19.19128265
Si       4.27697965      10.97717954      11.76816474
Si       1.05282053       5.48595606       4.91749775
Si       2.09335921       1.41895018       0.63833423
Si       1.96681780       3.08372225       2.43676971
Si       0.56323510       4.96341967       2.46072646
20
Lattice="5.7445612204759255 -0.3303281613677749 0.3342551114317258 -3.594217374903121 6.342738514724126 2.955547898339883 1.8499386389922046 9.42827475998929 16.712407794077993" Properties=species:S:1:pos:R:3 unique_starting_index=204 config_type=initial n_minim_iter=7 stress="0.0007150068892799791 -6.63880152143847e-05 -8.631231153211876e-05 -6.63880152143847e-05 0.0003447383753937146 -0.0003455890891773362 -8.631231153211876e-05 -0.0003455890891773362 0.00010240375166694763" pbc="T T T"
Si       1.84980313       2.02538379       4.58534123
Si       4.05236870       5.70002504       7.40241924
Si      -0.08024769       2.57974694       5.93238397
Si       3.41357763       5.43510190       5.11996426
Si       3.86024842       3.10996748       5.03832014
Si      -0.95863790      11.55004077      14.53138332
Si       4.20270319       9.32730979      13.50403948
Si       0.12050445       4.47573566       7.32191067
Si       1.92356840       9.40489699      12.91846785
Si       2.26750810      14.08787269      16.76712339
Si       2.02552539      11.79416531      16.33571550
Si       1.47596478      11.42168343      14.10367504
Si       1.32030364       6.55084262      10.07157721
Si       6.19069424      10.81384535      18.20506520
Si       0.46310493      13.05010917      19.18559516
Si       4.27284590      10.95041558      11.76276226
Si       1.05021858       5.47519811       4.91617981
Si       2.09422286       1.41432090       0.63266228
Si       1.96771971       3.07610936       2.43316412
Si       0.56395036       4.95924480       2.45514915
20
Lattice="5.739679195648994 -0.3261330738480536 0.3371420801818858 -3.5853188449624107 6.339495164834777 2.957241334864203 1.8631903011235664 9.432167286702164 16.724856346777035" Properties=species:S:1:pos:R:3 unique_starting_index=204 config_type=initial n_minim_iter=8 stress="-0.00010046813006143006 0.00041191820218785744 8.769810433376212e-05 0.00041191820218785744 4.550144610430642e-05 -9.560269147934637e-05 8.769810433376212e-05 -9.560269147934637e-05 0.0003090320164830708" pbc="T T T"
Si       1.85167379       2.02840013       4.58916744
Si       4.05561646       5.70363654       7.40965458
Si      -0.07490723       2.58136118       5.93619094
Si       3.41656553       5.43776220       5.12529018
Si       3.86121420       3.11354756       5.04318041
Si      -0.94253073      11.55064754      14.54100084
Si       4.21165390       9.33062535      13.51569464
Si       0.12699852       4.47780942       7.32690429
Si       1.93303509       9.40818902      12.92821890
Si       2.28247006      14.09094763      16.78170789
Si       2.04111386      11.79725525      16.35007971
Si       1.48968567      11.42419103      14.11563324
Si       1.32833326       6.55428342      10.07994924
Si       6.20217093      10.82003269      18.22214101
Si       0.48163257      13.05191639      19.20038970
Si       4.28222501      10.95366428      11.77470314
Si       1.05595205       5.47589551       4.92209824
Si       2.09468319       1.41533831       0.63290751
Si       1.97079839       3.07706908       2.43515246
Si       0.57012919       4.95913537       2.45842611
20
Lattice="5.739742362115951 -0.33302272251606424 0.33744671469477855 -3.5926601176890482 6.344186900169089 2.9592331559942275 1.853618918877139 9.440272292056312 16.71758253720478" Properties=species:S:1:pos:R:3 unique_starting_index=204 config_type=initial n_minim_iter=9 stress="-0.0006077485731954158 -0.0003553401992249445 0.000319154660347524 -0.0003553401992249445 -0.00036263818532029354 0.0003987088103361694 0.000319154660347524 0.0003987088103361694 -0.0005265188050906173" pbc="T T T"
Si       1.84895005       2.03046163       4.58718121
Si       4.04793683       5.70291362       7.40746169
Si      -0.07658796       2.58674371       5.93271513
Si       3.40938638       5.43582936       5.12480971
Si       3.85736980       3.11155850       5.04117124
Si      -0.95459278      11.55919437      14.53556110
Si       4.20006408       9.33175965      13.51140608
Si       0.12238583       4.48298775       7.32328050
Si       1.92031697       9.41389502      12.92329446
Si       2.26522585      14.09621032      16.77957615
Si       2.03009873      11.80372760      16.34732117
Si       1.47712041      11.43013084      14.11290283
Si       1.32065667       6.56024361      10.07714640
Si       6.19093547      10.82232108      18.21738880
Si       0.46857651      13.06098864      19.19441069
Si       4.26867232      10.95364561      11.77402610
Si       1.05045044       5.47657466       4.92382641
Si       2.09435581       1.41239998       0.63181567
Si       1.96939039       3.07503083       2.43350932
Si       0.56727141       4.95851662       2.46050925
20
Lattice="5.737501602572627 -0.3340908222276355 0.3305161673733176 -3.596399084469019 6.342664389137817 2.9640912564737056 1.8300822281828988 9.432920794654825 16.724997862505738" Properties=species:S:1:pos:R:3 unique_starting_index=204 config_type=initial n_minim_iter=10 stress="-0.0008256388710960334 -0.00022948911901215862 -0.0004620089908932661 -0.00022948911901215862 -0.00047460111368817466 0.00014988744637275362 -0.0004620089908932661 0.00014988744637275362 0.00013512500728658983" pbc="T T T"
Si       1.84131142       2.02874734       4.58770219
Si       4.03539952       5.69934106       7.40563292
Si      -0.08452168       2.58583614       5.93616477
Si       3.40030149       5.43264267       5.12204557
Si       3.84944675       3.10855619       5.03979552
Si      -0.97455805      11.55214625      14.54293327
Si       4.17777319       9.32443455      13.51311884
Si       0.11199881       4.48054475       7.32668182
Si       1.90021155       9.40848307      12.92710067
Si       2.23938015      14.08691508      16.78611922
Si       2.00728873      11.79580924      16.35512232
Si       1.45652665      11.42342652      14.11881014
Si       1.30576425       6.55631205      10.08169938
Si       6.16408145      10.81274337      18.22137476
Si       0.44292661      13.05165960      19.20435367
Si       4.24934168      10.94703845      11.77468081
Si       1.04336710       5.47361504       4.92562740
Si       2.09412679       1.41114786       0.62780326
Si       1.96671054       3.07322918       2.43006388
Si       0.56521253       4.95623509       2.46033972
20
Lattice="5.740843097753273 -0.33159369597846766 0.33520177856592703 -3.592895534691859 6.343723681961211 2.9581460776018678 1.849350642530942 9.433707579248162 16.71869238057639" Properties=species:S:1:pos:R:3 unique_starting_index=204 config_type=initial n_minim_iter=11 stress="1.9161978169368463e-05 0.00015781443224008117 -0.00011956626755686711 0.00015781443224008117 4.3516895215608926e-05 -0.00010803228728113523 -0.00011956626755686711 -0.00010803228728113523 0.00023235196207596514" pbc="T T T"
Si       1.84553436       2.02942319       4.58688488
Si       4.04540794       5.70312407       7.40427336
Si      -0.07862106       2.58727597       5.93295877
Si       3.40872647       5.43596932       5.12055846
Si       3.85812354       3.11065049       5.04179678
Si      -0.95722022      11.55302525      14.53232875
Si       4.19222586       9.32689270      13.50895114
Si       0.11950781       4.48198580       7.32234264
Si       1.91473306       9.41172843      12.92107739
Si       2.25961996      14.08943562      16.77995314
Si       2.02778509      11.79775115      16.35038365
Si       1.47433744      11.42639456      14.11329542
Si       1.31745449       6.55798896      10.07843761
Si       6.18852826      10.81507908      18.21912579
Si       0.46765264      13.05249308      19.19493327
Si       4.26549279      10.95185386      11.77222357
Si       1.05108392       5.47528511       4.92464749
Si       2.09886801       1.41191404       0.62700462
Si       1.97338140       3.07520152       2.42756829
Si       0.57269406       4.95784016       2.45882045
20
Lattice="5.742866909757951 -0.3347647351647791 0.3380583015350185 -3.595817081979515 6.348001025737575 2.9560325820953395 1.8539560885508437 9.440191264534693 16.710332351873493" Properties=species:S:1:pos:R:3 unique_starting_index=204 config_type=initial n_minim_iter=12 stress="0.0002337500731130732 8.580239721134417e-06 0.00015263745919143475 8.580239721134417e-06 0.00011580466549539447 -2.0604360899158402e-05 0.00015263745919143475 -2.0604360899158402e-05 -9.615241228364379e-05" pbc="T T T"
Si       1.84526103       2.03187133       4.58478145
Si       4.04535678       5.70627642       7.40142588
Si      -0.07678061       2.59320420       5.92869793
Si       3.40876593       5.43661282       5.11861954
Si       3.86036870       3.11082136       5.04242882
Si      -0.95489037      11.55915144      14.52112039
Si       4.19004068       9.32879103      13.50393392
Si       0.11983436       4.48785577       7.31619043
Si       1.91222572       9.41886844      12.91397736
Si       2.25767373      14.09508331      16.77646696
Si       2.03259640      11.80307242      16.34734610
Si       1.47578378      11.43301931      14.10951650
Si       1.31871296       6.56404918      10.07523382
Si       6.19559090      10.81777361      18.21646247
Si       0.47536596      13.05929655      19.18590083
Si       4.26420898      10.95666132      11.77048776
Si       1.05247464       5.47682107       4.92586774
Si       2.10383505       1.40986641       0.62429750
Si       1.97892484       3.07539078       2.42259332
Si       0.57786196       4.95783167       2.45990550
20
Lattice="5.741384102861088 -0.33771215206257965 0.3354158121762063 -3.599593197650609 6.350675917382608 2.959995052485282 1.8412116081688945 9.446038281139073 16.71093332623024" Properties=species:S:1:pos:R:3 unique_starting_index=204 config_type=initial n_minim_iter=13 stress="-0.00020425796643127843 -0.00011450837101140643 -0.00016901007022150988 -0.00011450837101140643 -0.00013446801470443643 4.928564080981136e-05 -0.00016901007022150988 4.928564080981136e-05 -6.968228511672869e-06" pbc="T T T"
Si       1.84151687       2.03394009       4.58268269
Si       4.03790280       5.70930994       7.40033577
Si      -0.08261991       2.59639617       5.92952775
Si       3.40420298       5.43459089       5.11810429
Si       3.85312912       3.11110809       5.04248608
Si      -0.96624077      11.56289946      14.52249093
Si       4.17393215       9.33020155      13.50616975
Si       0.11185302       4.49356005       7.31365084
Si       1.89636797       9.42355723      12.91599367
Si       2.23778201      14.10121403      16.78125884
Si       2.01877674      11.80559511      16.34958116
Si       1.46210771      11.43722441      14.11414252
Si       1.31078174       6.56772075      10.07615141
Si       6.18127121      10.82034667      18.21875450
Si       0.46491013      13.06616899      19.18933285
Si       4.24874367      10.96360726      11.77005967
Si       1.04833661       5.47725610       4.92587761
Si       2.10685344       1.40781571       0.62239151
Si       1.98166150       3.07604330       2.41891651
Si       0.57819028       4.95594639       2.46353219
20
Lattice="5.742390259905364 -0.3367716819531334 0.33846968704478425 -3.5973620953080285 6.352549308569412 2.9577233601285746 1.852468481277258 9.451308114779387 16.70786181050836" Properties=species:S:1:pos:R:3 unique_starting_index=204 config_type=initial n_minim_iter=14 stress="2.718976843504124e-05 2.994781680447906e-05 4.310494956869602e-05 2.994781680447906e-05 1.4235690573182693e-05 -7.87751665923553e-06 4.310494956869602e-05 -7.87751665923553e-06 1.4500324656588287e-05" pbc="T T T"
Si       1.84466030       2.03581942       4.58083508
Si       4.04365041       5.71437558       7.40073028
Si      -0.08049897       2.59741248       5.92837599
Si       3.41015902       5.43660039       5.11869499
Si       3.85545134       3.11368752       5.04430416
Si      -0.95616992      11.56686020      14.51828269
Si       4.18089320       9.33545466      13.50644384
Si       0.11505452       4.49793151       7.30995239
Si       1.90318515       9.42886049      12.91512535
Si       2.24703472      14.10844650      16.77939042
Si       2.02997334      11.81038668      16.34686282
Si       1.47175388      11.44222032      14.11308606
Si       1.31817416       6.57064706      10.07462124
Si       6.19541517      10.82636454      18.21957728
Si       0.48147474      13.07258152      19.18591434
Si       4.25581471      10.97264363      11.76884628
Si       1.05295662       5.47899262       4.92403461
Si       2.11018395       1.40800276       0.62268960
Si       1.98789361       3.07843245       2.41795844
Si       0.58258774       4.95679644       2.46531649
20
Lattice="5.742342084318798 -0.3364071601818959 0.3392889102339114 -3.5963429431866496 6.35445776247275 2.956813949306218 1.8558207979949206 9.455210797254203 16.70518343972503" Properties=species:S:1:pos:R:3 unique_starting_index=204 config_type=initial n_minim_iter=15 stress="0.0001397984374326527 6.658037254011124e-05 7.144767249120696e-05 6.658037254011124e-05 9.253290025380208e-05 -3.561519661348994e-05 7.144767249120696e-05 -3.561519661348994e-05 4.319809588330545e-06" pbc="T T T"
Si       1.84478991       2.03738611       4.57841215
Si       4.04436954       5.71785817       7.40013548
Si      -0.08013747       2.59700415       5.92715447
Si       3.41256697       5.43974619       5.11825581
Si       3.85535858       3.11476977       5.04434812
Si      -0.95416474      11.57087697      14.51713746
Si       4.18181649       9.34167208      13.50413825
Si       0.11624569       4.50094532       7.30765269
Si       1.90532121       9.43319545      12.91408476
Si       2.24810411      14.11191891      16.77548399
Si       2.03448069      11.81673840      16.34526663
Si       1.47504138      11.44545852      14.11004390
Si       1.31992956       6.57208988      10.07420757
Si       6.20071368      10.83091826      18.21948781
Si       0.48715785      13.07615298      19.18402415
Si       4.25680129      10.97748454      11.76691932
Si       1.05554394       5.47986683       4.92211629
Si       2.11007682       1.40866634       0.62172776
Si       1.99232534       3.08011781       2.41763361
Si       0.58486874       4.95894104       2.46653020
20
Lattice="5.740998403929791 -0.3387239609996316 0.3375795589010912 -3.5989705004312365 6.356024118803681 2.958739587830913 1.8467598432798398 9.45723098161002 16.704119309313814" Properties=species:S:1:pos:R:3 unique_starting_index=204 config_type=initial n_minim_iter=16 stress="-0.0001834526039202603 -9.545630297395345e-05 -9.669410077410304e-05 -9.545630297395345e-05 -0.00012084777270283778 5.8048907489410695e-05 -9.669410077410304e-05 5.8048907489410695e-05 -5.6501893077708694e-06" pbc="T T T"
Si       1.84125196       2.03821903       4.57619586
Si       4.03783008       5.71850771       7.39879946
Si      -0.08373650       2.59791195       5.92702774
Si       3.40897008       5.43888193       5.11701049
Si       3.85043944       3.11386312       5.04415899
Si      -0.96309473      11.57257982      14.51802369
Si       4.17113979       9.34219706      13.50303818
Si       0.11135159       4.50345689       7.30531945
Si       1.89447872       9.43428547      12.91370028
Si       2.23373017      14.11389537      16.77547492
Si       2.02487384      11.81808347      16.34565183
Si       1.46539614      11.44651689      14.11083262
Si       1.31360277       6.57309035      10.07481099
Si       6.19098555      10.83002299      18.21975055
Si       0.47945719      13.07767812      19.18510174
Si       4.24584855      10.97838817      11.76561339
Si       1.05295236       5.47921344       4.92181449
Si       2.11082679       1.40755415       0.61986406
Si       1.99416467       3.08029905       2.41521441
Si       0.58484424       4.95816698       2.46778855
20
Lattice="5.741569380513969 -0.33788223787355537 0.33864833170133674 -3.5976458271704472 6.356334958422724 2.955646030823641 1.8517863968429025 9.456035733511818 16.69714820822796" Properties=species:S:1:pos:R:3 unique_starting_index=204 config_type=initial n_minim_iter=17 stress="3.6963084437586606e-06 1.939447497360432e-05 -1.622717895883968e-06 1.939447497360432e-05 1.5028495003026354e-05 -2.1145648585571218e-06 -1.622717895883968e-06 -2.1145648585571218e-06 5.199551347620465e-06" pbc="T T T"
Si       1.84026943       2.03805388       4.57311815
Si       4.03929299       5.71949572       7.39623239
Si      -0.08305045       2.59553780       5.92470944
Si       3.41246483       5.44066994       5.11420922
Si       3.85164447       3.11347344       5.04514139
Si      -0.95942933      11.57237848      14.51503024
Si       4.17636504       9.34486126      13.49649267
Si       0.11331758       4.50200534       7.29921492
Si       1.89781706       9.43189589      12.90773200
Si       2.23705790      14.11627683      16.76574461
Si       2.02926264      11.81905518      16.33837188
Si       1.46888180      11.44602696      14.10406459
Si       1.31578354       6.57109138      10.07246398
Si       6.19909375      10.82812089      18.21424443
Si       0.48906728      13.07483288      19.17833535
Si       4.24917184      10.97792589      11.75927721
Si       1.05685376       5.47887081       4.91811249
Si       2.11202699       1.40947582       0.61981312
Si       1.99864476       3.08323804       2.41277024
Si       0.58763991       4.95920865       2.46433147
20
Lattice="5.741960187968213 -0.3385257503309429 0.33920734202671504 -3.598206998599734 6.356353111450535 2.953871817632644 1.8525708850942775 9.453537013958295 16.69314958076022" Properties=species:S:1:pos:R:3 unique_starting_index=204 config_type=initial n_minim_iter=18 stress="6.599980581804107e-05 -2.4534118038932933e-05 4.330084067152666e-05 -2.4534118038932933e-05 1.9746826706937157e-06 -1.652292804516477e-05 4.330084067152666e-05 -1.652292804516477e-05 -1.9818256084432088e-05" pbc="T T T"
Si       1.83977384       2.03800616       4.57096182
Si       4.03888902       5.71757841       7.39441465
Si      -0.08350108       2.59301541       5.92358072
Si       3.41334755       5.43950023       5.11187427
Si       3.85053370       3.11222566       5.04567867
Si      -0.95971281      11.57118566      14.51329757
Si       4.17580480       9.34385840      13.49272142
Si       0.11302816       4.50136529       7.29558812
Si       1.89847833       9.42971283      12.90327232
Si       2.23562410      14.11463183      16.76044553
Si       2.02868400      11.81759073      16.33470836
Si       1.46756253      11.44335676      14.10062414
Si       1.31578616       6.56915563      10.07121606
Si       6.20108491      10.82357643      18.21115544
Si       0.49263981      13.07070111      19.17558219
Si       4.24861763      10.97491293      11.75590385
Si       1.05762404       5.47724024       4.91684359
Si       2.11383571       1.41044905       0.61964535
Si       2.00144220       3.08456512       2.41079551
Si       0.58895962       4.95931147       2.46135760
20
Lattice="5.741574752838146 -0.3384799656414689 0.33897663164569364 -3.598082059464475 6.356512010543211 2.9548354024236962 1.8518444017401192 9.455157816104586 16.694821332112305" Properties=species:S:1:pos:R:3 unique_starting_index=204 config_type=initial n_minim_iter=19 stress="-3.1341165195420376e-05 8.682040454345283e-06 -2.411790270779867e-05 8.682040454345283e-06 2.149096167485348e-06 4.445110580549181e-06 -2.411790270779867e-05 4.445110580549181e-06 5.136169236970844e-06" pbc="T T T"
Si       1.83977363       2.03884427       4.57123298
Si       4.03881258       5.71793781       7.39489957
Si      -0.08409110       2.59312442       5.92416106
Si       3.41292568       5.43923180       5.11229791
Si       3.84936833       3.11254908       5.04625517
Si      -0.96004803      11.57262270      14.51534381
Si       4.17428981       9.34503640      13.49488663
Si       0.11261387       4.50234300       7.29611065
Si       1.89836166       9.43160632      12.90424710
Si       2.23483771      14.11575163      16.76276143
Si       2.02785991      11.81903029      16.33678960
Si       1.46627486      11.44416670      14.10246591
Si       1.31546707       6.56994110      10.07232226
Si       6.19957825      10.82524771      18.21312737
Si       0.49224743      13.07201022      19.17850902
Si       4.24764041      10.97643201      11.75720349
Si       1.05727742       5.47739379       4.91766308
Si       2.11429174       1.41117495       0.62004875
Si       2.00203617       3.08538619       2.41082777
Si       0.58922795       4.95979647       2.46139843
20