10
Lattice="5.93153657198219 0.057152177558296546 0.060182281456642714 -0.23404405978458556 5.927192915220603 0.06018228145693643 -0.23404405978424736 -0.24582751406291523 5.922398719655118" Properties=species:S:1:pos:R:3 unique_starting_index=202 config_type=initial n_minim_iter=7 energy=-1627.385104877986 free_energy=-1627.385104877986 pbc="T T T"
Si       3.98161269       0.30385297       5.34908376
Si       5.12442872       4.23823414       0.57953866
Si       0.10806414       5.13592252       4.26249755
Si       2.75900160       4.65060600       0.35515786
Si      -0.02090808       2.76130337       4.66273843
Si       4.50958572       0.20066997       2.99828805
Si       3.43777929       2.68902667       4.89024110
Si       4.57048059       3.66652323       2.93785015
Si       2.51705524       4.69968498       3.81327194
Si       5.86421023       6.15945658       6.48601969
