18
Lattice="3.569350342831072 -3.259804243264383e-16 -1.0055389113060205e-14 1.2230403755361024e-15 13.39178446907119 -2.1340938264830655e-16 3.7661058840736385e-14 2.1303839460636065e-16 13.368504368465283" Properties=species:S:1:pos:R:3 unique_starting_index=62 config_type=initial n_minim_iter=1 energy=-2918.6252751359298 free_energy=-2918.6252751359298 pbc="T T T"
Si       1.75090836       4.11782745       9.97342705
Si       3.53558354       2.57806479       3.39507732
Si       0.03376681       2.57806479       9.97342705
Si       1.81844198       4.11782745       3.39507732
Si       1.81844198       9.27395702       3.39507732
Si       0.03376681      10.81371968       9.97342705
Si       3.53558354      10.81371968       3.39507732
Si       1.75090836       9.27395702       9.97342705
Si       1.61512661       2.26642512      11.63342578
Si       3.39980178       4.42946712       1.73507859
Si       0.16954856       4.42946712      11.63342578
Si       1.95422373       2.26642512       1.73507859
Si       1.95422373      11.12535935       1.73507859
Si       0.16954856       8.96231735      11.63342578
Si       3.39980178       8.96231735       1.73507859
Si       1.61512661      11.12535935      11.63342578
Si       1.78467517       0.00000000      -0.00000000
Si       0.00000000       6.69589223       0.00000000
18
Lattice="3.5228419057195395 -3.317267773992072e-16 -1.2953034158952838e-14 1.1827600618723473e-15 13.361276192771085 -2.146896618107441e-16 2.5748168793666077e-14 2.0811190520853562e-16 13.16693609583029" Properties=species:S:1:pos:R:3 unique_starting_index=62 config_type=initial n_minim_iter=2 stress="-0.00031168176785181567 1.36903664280106e-17 -1.8321199126728898e-16 1.36903664280106e-17 0.006049236276872265 -3.567338103002929e-18 -1.8321199126728898e-16 -3.567338103002929e-18 0.009524507517034668" pbc="T T T"
Si       1.83069187       4.18628854       9.82974808
Si       3.59211282       2.49434956       3.33718801
Si      -0.06927091       2.49434956       9.82974808
Si       1.69215004       4.18628854       3.33718801
Si       1.69215004       9.17498766       3.33718801
Si      -0.06927091      10.86692663       9.82974808
Si       3.59211282      10.86692663       3.33718801
Si       1.83069187       9.17498766       9.82974808
Si       1.67583259       2.18349933      11.44598896
Si       3.43725354       4.49713876       1.72094714
Si       0.08558836       4.49713876      11.44598896
Si       1.84700932       2.18349933       1.72094714
Si       1.84700932      11.17777686       1.72094714
Si       0.08558836       8.86413743      11.44598896
Si       3.43725354       8.86413743       1.72094714
Si       1.67583259      11.17777686      11.44598896
Si       1.76142095       0.00000000      -0.00000000
Si       0.00000000       6.68063810      -0.00000000
18
Lattice="3.5116847496325927 -4.286398430227716e-16 -1.8165443383457896e-14 7.957430139684655e-16 13.146999877798251 -2.950611871368868e-17 4.888593013504505e-15 3.8498386100517514e-16 12.791008203706767" Properties=species:S:1:pos:R:3 unique_starting_index=62 config_type=initial n_minim_iter=3 stress="-0.010104147932908642 2.2276223755010022e-17 -7.665325708613665e-16 2.2276223755010022e-17 -0.0031700470205989527 2.8969986716823523e-17 -7.665325708613665e-16 2.8969986716823523e-17 -0.0007728581156747209" pbc="T T T"
Si       1.85551747       4.14352186       9.55280083
Si       3.61135984       2.42997808       3.23820737
Si      -0.09967509       2.42997808       9.55280083
Si       1.65616728       4.14352186       3.23820737
Si       1.65616728       9.00347802       3.23820737
Si      -0.09967509      10.71702180       9.55280083
Si       3.61135984      10.71702180       3.23820737
Si       1.85551747       9.00347802       9.55280083
Si       1.69536852       2.12491959      11.11396652
Si       3.45121090       4.44858035       1.67704169
Si       0.06047385       4.44858035      11.11396652
Si       1.81631623       2.12491959       1.67704169
Si       1.81631623      11.02208029       1.67704169
Si       0.06047385       8.69841952      11.11396652
Si       3.45121090       8.69841952       1.67704169
Si       1.69536852      11.02208029      11.11396652
Si       1.75584237       0.00000000      -0.00000000
Si       0.00000000       6.57349994       0.00000000
18
Lattice="3.6025807823908074 -5.074551411295764e-16 -1.9106381889574854e-14 5.178081291514394e-16 13.074790531727405 -6.266344736957029e-16 1.1099229280290633e-17 -2.1419498791935806e-16 12.486616063437522" Properties=species:S:1:pos:R:3 unique_starting_index=62 config_type=initial n_minim_iter=4 stress="-0.0032804325242864886 -5.966221667264568e-18 -8.901947823418504e-16 -5.966221667264568e-18 -0.0007941821043583124 -1.1284491542110924e-17 -8.901947823418504e-16 -1.1284491542110924e-17 0.0036877662708694387" pbc="T T T"
Si       1.93280405       4.14735659       9.32940668
Si       3.73409445       2.39003868       3.15720938
Si      -0.13151366       2.39003868       9.32940668
Si       1.66977673       4.14735659       3.15720938
Si       1.66977673       8.92743394       3.15720938
Si      -0.13151366      10.68475185       9.32940668
Si       3.73409445      10.68475185       3.15720938
Si       1.93280405       8.92743394       9.32940668
Si       1.76335093       2.08873733      10.84346724
Si       3.56464132       4.44865793       1.64314882
Si       0.03793946       4.44865793      10.84346724
Si       1.83922985       2.08873733       1.64314882
Si       1.83922985      10.98605320       1.64314882
Si       0.03793946       8.62613260      10.84346724
Si       3.56464132       8.62613260       1.64314882
Si       1.76335093      10.98605320      10.84346724
Si       1.80129039       0.00000000      -0.00000000
Si       0.00000000       6.53739527      -0.00000000
18
Lattice="3.991298567384437 -5.729001063073986e-16 -3.6335828867281145e-14 3.6119163586586025e-16 13.285993745175206 2.503540707360261e-16 -7.498898280691495e-14 6.396716144515431e-16 10.64039232366401" Properties=species:S:1:pos:R:3 unique_starting_index=62 config_type=initial n_minim_iter=5 stress="0.005282917151615175 -1.7394978665981634e-17 -3.62231589861721e-15 -1.7394978665981634e-17 0.006111301565716951 2.2068245607120596e-17 -3.62231589861721e-15 2.2068245607120596e-17 0.01380685878473424" pbc="T T T"
Si       2.20087588       4.30445709       7.96028121
Si       4.19652516       2.33853978       2.68011111
Si      -0.20522660       2.33853978       7.96028121
Si       1.79042269       4.30445709       2.68011111
Si       1.79042269       8.98153665       2.68011111
Si      -0.20522660      10.94745397       7.96028121
Si       4.19652516      10.94745397       2.68011111
Si       2.20087588       8.98153665       7.96028121
Si       1.99448939       2.03750401       9.22987851
Si       3.99013868       4.60549286       1.41051381
Si       0.00115989       4.60549286       9.22987851
Si       1.99680918       2.03750401       1.41051381
Si       1.99680918      11.24848974       1.41051381
Si       0.00115989       8.68050088       9.22987851
Si       3.99013868       8.68050088       1.41051381
Si       1.99448939      11.24848974       9.22987851
Si       1.99564928       0.00000000      -0.00000000
Si       0.00000000       6.64299687       0.00000000
18
Lattice="4.113931181103098 -5.771470261223492e-16 -4.1886888694186746e-14 3.677424579751539e-16 13.34673155914675 4.2728529286034064e-15 -1.020976439301293e-13 4.70499829628626e-15 10.223176573013827" Properties=species:S:1:pos:R:3 unique_starting_index=62 config_type=initial n_minim_iter=6 stress="0.011844114186229823 -1.503783570571258e-17 -4.152289380619157e-15 -1.503783570571258e-17 0.006460471799200817 1.7862728524308128e-16 -4.152289380619157e-15 1.7862728524308128e-16 0.010895611050226515" pbc="T T T"
Si       2.26653843       4.33598367       7.64935904
Si       4.32350403       2.33738211       2.57381753
Si      -0.20957284       2.33738211       7.64935904
Si       1.84739275       4.33598367       2.57381753
Si       1.84739275       9.01074789       2.57381753
Si      -0.20957284      11.00934945       7.64935904
Si       4.32350403      11.00934945       2.57381753
Si       2.26653843       9.01074789       7.64935904
Si       2.05175957       2.03502985       8.86806380
Si       4.10872516       4.63833593       1.35511278
Si       0.00520602       4.63833593       8.86806380
Si       2.06217161       2.03502985       1.35511278
Si       2.06217161      11.31170171       1.35511278
Si       0.00520602       8.70839563       8.86806380
Si       4.10872516       8.70839563       1.35511278
Si       2.05175957      11.31170171       8.86806380
Si       2.05696559       0.00000000      -0.00000000
Si       0.00000000       6.67336578       0.00000000
18
Lattice="4.126468180536467 -5.773581485676458e-16 -5.034336884676533e-14 3.8121827095374006e-16 13.428984016598806 6.671910750911752e-15 -1.3413670220186355e-13 7.132821401519506e-15 10.214098409922357" Properties=species:S:1:pos:R:3 unique_starting_index=62 config_type=initial n_minim_iter=7 stress="0.021960412631552923 -1.4279982273512122e-17 -4.631741355047952e-15 -1.4279982273512122e-17 0.008076029379295378 2.5814119406010553e-16 -4.631741355047952e-15 2.5814119406010553e-16 0.01676852647640861" pbc="T T T"
Si       2.23274371       4.34381547       7.64075182
Si       4.29597780       2.37067654       2.57334659
Si      -0.16950962       2.37067654       7.64075182
Si       1.89372447       4.34381547       2.57334659
Si       1.89372447       9.08516855       2.57334659
Si      -0.16950962      11.05830748       7.64075182
Si       4.29597780      11.05830748       2.57334659
Si       2.23274371       9.08516855       7.64075182
Si       2.02385510       2.06568323       8.86425875
Si       4.08708919       4.64880878       1.34983966
Si       0.03937900       4.64880878       8.86425875
Si       2.10261309       2.06568323       1.34983966
Si       2.10261309      11.36330079       1.34983966
Si       0.03937900       8.78017524       8.86425875
Si       4.08708919       8.78017524       1.34983966
Si       2.02385510      11.36330079       8.86425875
Si       2.06323409       0.00000000      -0.00000000
Si       0.00000000       6.71449201       0.00000000
18
Lattice="4.034532754947546 -5.712864641438133e-16 -6.179764972874371e-14 4.568572072774558e-16 13.826531835663264 4.091587417587348e-15 -1.8101992934603945e-13 4.8922573887852836e-15 9.815034372871448" Properties=species:S:1:pos:R:3 unique_starting_index=62 config_type=initial n_minim_iter=8 stress="0.010385230971587694 3.1974384074004706e-18 -7.633357412302498e-15 3.1974384074004706e-18 0.008718194876698731 1.6927416639454957e-16 -7.633357412302498e-15 1.6927416639454957e-16 0.008396691052329704" pbc="T T T"
Si       2.13861119       4.46536464       7.33976006
Si       4.15587757       2.44790128       2.47527432
Si      -0.12134481       2.44790128       7.33976006
Si       1.89592156       4.46536464       2.47527432
Si       1.89592156       9.36116720       2.47527432
Si      -0.12134481      11.37863055       7.33976006
Si       4.15587757      11.37863055       2.47527432
Si       2.13861119       9.36116720       7.33976006
Si       1.93983842       2.13069540       8.52639645
Si       3.95710480       4.78257052       1.28863792
Si       0.07742796       4.78257052       8.52639645
Si       2.09469434       2.13069540       1.28863792
Si       2.09469434      11.69583644       1.28863792
Si       0.07742796       9.04396132       8.52639645
Si       3.95710480       9.04396132       1.28863792
Si       1.93983842      11.69583644       8.52639645
Si       2.01726638       0.00000000      -0.00000000
Si       0.00000000       6.91326592       0.00000000
18
Lattice="3.9774675647709463 -5.666865650641085e-16 -7.581280255095108e-14 4.2936602462168375e-16 13.579788025456821 4.675756400106294e-15 -2.3750018483967447e-13 5.505903777075994e-15 9.510103855625601" Properties=species:S:1:pos:R:3 unique_starting_index=62 config_type=initial n_minim_iter=9 stress="-0.007090141772419412 5.725833586617224e-19 -1.2561776289642327e-14 5.725833586617224e-19 -0.011923313481311744 3.1729479232364285e-16 -1.2561776289642327e-14 3.1729479232364285e-16 -0.010194583099612766" pbc="T T T"
Si       2.07762006       4.38543899       7.10560042
Si       4.06635384       2.40445502       2.40450343
Si      -0.08888628       2.40445502       7.10560042
Si       1.89984751       4.38543899       2.40450343
Si       1.89984751       9.19434903       2.40450343
Si      -0.08888628      11.17533300       7.10560042
Si       4.06635384      11.17533300       2.40450343
Si       2.07762006       9.19434903       7.10560042
Si       1.88434412       2.07413132       8.27756987
Si       3.87307790       4.71576269       1.23253399
Si       0.10438967       4.71576269       8.27756987
Si       2.09312345       2.07413132       1.23253399
Si       2.09312345      11.50565670       1.23253399
Si       0.10438967       8.86402534       8.27756987
Si       3.87307790       8.86402534       1.23253399
Si       1.88434412      11.50565670       8.27756987
Si       1.98873378       0.00000000      -0.00000000
Si       0.00000000       6.78989401       0.00000000
18
Lattice="3.882320061549526 -5.564321657982324e-16 -1.0236014116926913e-13 5.604141870394279e-16 14.24899636979272 2.364639598179695e-15 -3.274833926106993e-13 3.301462140215253e-15 9.68509385327068" Properties=species:S:1:pos:R:3 unique_starting_index=62 config_type=initial n_minim_iter=10 stress="-0.0016616367361009616 2.769396172476874e-17 -1.6569031358496816e-14 2.769396172476874e-17 0.012714979107723106 2.1015950544407462e-16 -1.6569031358496816e-14 2.1015950544407462e-16 0.0012802302970623123" pbc="T T T"
Si       2.05108785       4.58769436       7.22609736
Si       3.99224788       2.53680383       2.45899649
Si      -0.10992782       2.53680383       7.22609736
Si       1.83123221       4.58769436       2.45899649
Si       1.83123221       9.66130201       2.45899649
Si      -0.10992782      11.71219254       7.22609736
Si       3.99224788      11.71219254       2.45899649
Si       2.05108785       9.66130201       7.22609736
Si       1.85884513       2.14894901       8.45129680
Si       3.80000516       4.97554917       1.23379705
Si       0.08231490       4.97554917       8.45129680
Si       2.02347493       2.14894901       1.23379705
Si       2.02347493      12.10004736       1.23379705
Si       0.08231490       9.27344720       8.45129680
Si       3.80000516       9.27344720       1.23379705
Si       1.85884513      12.10004736       8.45129680
Si       1.94116003       0.00000000      -0.00000000
Si       0.00000000       7.12449818       0.00000000
18
Lattice="3.79121182485243 -5.457572189716522e-16 -1.2596319070853802e-13 5.6230861612087285e-16 14.072462681150459 4.8008507220128076e-15 -3.987397732892075e-13 5.6263648056683365e-15 10.017155899499526" Properties=species:S:1:pos:R:3 unique_starting_index=62 config_type=initial n_minim_iter=11 stress="0.004737952932339521 -1.1259884094779803e-17 -1.7964668087749573e-14 -1.1259884094779803e-17 0.004367610091636891 2.52960953108027e-16 -1.7964668087749573e-14 2.52960953108027e-16 0.0053844226025116255" pbc="T T T"
Si       2.02160443       4.50778711       7.45257850
Si       3.91721034       2.52844423       2.56457739
Si      -0.12599851       2.52844423       7.45257850
Si       1.76960740       4.50778711       2.56457739
Si       1.76960740       9.56467557       2.56457739
Si      -0.12599851      11.54401845       7.45257850
Si       3.91721034      11.54401845       2.56457739
Si       2.02160443       9.56467557       7.45257850
Si       1.82917428       2.06801758       8.78574356
Si       3.72478020       4.96821376       1.23141234
Si       0.06643163       4.96821376       8.78574356
Si       1.96203754       2.06801758       1.23141234
Si       1.96203754      12.00444510       1.23141234
Si       0.06643163       9.10424893       8.78574356
Si       3.72478020       9.10424893       1.23141234
Si       1.82917428      12.00444510       8.78574356
Si       1.89560591       0.00000000      -0.00000000
Si       0.00000000       7.03623134       0.00000000
18
Lattice="3.7236489802623054 -5.403275286610272e-16 -1.374713460672274e-13 5.914434834849226e-16 14.189153314502102 5.385372442077865e-15 -4.3627309539388236e-13 6.240809188103794e-15 10.0205706618871" Properties=species:S:1:pos:R:3 unique_starting_index=62 config_type=initial n_minim_iter=12 stress="0.0018774905442207218 2.71423804848408e-17 -1.961559706802534e-14 2.71423804848408e-17 0.0026991489919537524 2.9842036333086327e-16 -1.961559706802534e-14 2.9842036333086327e-16 0.002464456860119728" pbc="T T T"
Si       1.97812065       4.52935221       7.44441615
Si       3.83994514       2.56522445       2.57615451
Si      -0.11629616       2.56522445       7.44441615
Si       1.74552833       4.52935221       2.57615451
Si       1.74552833       9.65980110       2.57615451
Si      -0.11629616      11.62392887       7.44441615
Si       3.83994514      11.62392887       2.57615451
Si       1.97812065       9.65980110       7.44441615
Si       1.78971966       2.06196073       8.81333913
Si       3.65154415       5.03261592       1.20723153
Si       0.07210483       5.03261592       8.81333913
Si       1.93392932       2.06196073       1.20723153
Si       1.93392932      12.12719258       1.20723153
Si       0.07210483       9.15653739       8.81333913
Si       3.65154415       9.15653739       1.20723153
Si       1.78971966      12.12719258       8.81333913
Si       1.86182449       0.00000000      -0.00000000
Si       0.00000000       7.09457666       0.00000000
18
Lattice="3.682875019166959 -5.364926440769475e-16 -1.4625205127459677e-13 6.032064457299586e-16 14.20793595782327 1.025292260404761e-14 -4.644927198570019e-13 1.1093659420809687e-14 10.047689692456519" Properties=species:S:1:pos:R:3 unique_starting_index=62 config_type=initial n_minim_iter=13 stress="-0.0010694599741225316 2.331537028962831e-19 -2.064306532191626e-14 2.331537028962831e-19 0.0007415401014538827 4.2203291601928007e-16 -2.064306532191626e-14 4.2203291601928007e-16 0.001224122976931129" pbc="T T T"
Si       1.94211172       4.51886866       7.45947792
Si       3.78354923       2.58509932       2.58821177
Si      -0.10067421       2.58509932       7.45947792
Si       1.74076330       4.51886866       2.58821177
Si       1.74076330       9.68906730       2.58821177
Si      -0.10067421      11.62283664       7.45947792
Si       3.78354923      11.62283664       2.58821177
Si       1.94211172       9.68906730       7.45947792
Si       1.75921486       2.06174264       8.85007879
Si       3.60065237       5.04222534       1.19761090
Si       0.08222265       5.04222534       8.85007879
Si       1.92366016       2.06174264       1.19761090
Si       1.92366016      12.14619332       1.19761090
Si       0.08222265       9.16571062       8.85007879
Si       3.60065237       9.16571062       1.19761090
Si       1.75921486      12.14619332       8.85007879
Si       1.84143751       0.00000000      -0.00000000
Si       0.00000000       7.10396798       0.00000000
18
Lattice="3.6991902213131613 -5.347556283113802e-16 -1.5409770672889977e-13 6.116599805158708e-16 14.206074241344936 1.217709406347479e-14 -4.980207306975982e-13 1.3059988835971528e-14 9.985895710067638" Properties=species:S:1:pos:R:3 unique_starting_index=62 config_type=initial n_minim_iter=14 stress="-0.0003463245449589642 -9.70862464873129e-18 -2.1788693622990486e-14 -9.70862464873129e-18 -0.00012588424693507706 4.970390034616145e-16 -2.1788693622990486e-14 4.970390034616145e-16 -0.001273978746020379" pbc="T T T"
Si       1.94436166       4.51380435       7.41438469
Si       3.79395677       2.58923277       2.57151102
Si      -0.09476655       2.58923277       7.41438469
Si       1.75482856       4.51380435       2.57151102
Si       1.75482856       9.69226989       2.57151102
Si      -0.09476655      11.61684147       7.41438469
Si       3.79395677      11.61684147       2.57151102
Si       1.94436166       9.69226989       7.41438469
Si       1.76337593       2.06580021       8.79620896
Si       3.61297105       5.03723691       1.18968675
Si       0.08621918       5.03723691       8.79620896
Si       1.93581429       2.06580021       1.18968675
Si       1.93581429      12.14027403       1.18968675
Si       0.08621918       9.16883733       8.79620896
Si       3.61297105       9.16883733       1.18968675
Si       1.76337593      12.14027403       8.79620896
Si       1.84959511       0.00000000      -0.00000000
Si       0.00000000       7.10303712       0.00000000
18
Lattice="3.700791191375956 -5.32455455788109e-16 -1.632300915689591e-13 6.162414013547471e-16 14.177271305740966 1.1895420057057143e-14 -5.303475824653893e-13 1.2704830569592689e-14 10.03118467489494" Properties=species:S:1:pos:R:3 unique_starting_index=62 config_type=initial n_minim_iter=15 stress="9.041128609037904e-06 1.9542315865155e-17 -2.2465840613016936e-14 1.9542315865155e-17 -0.00025993350596638983 4.1743196721918075e-16 -2.2465840613016936e-14 4.1743196721918075e-16 0.0009054256475055108" pbc="T T T"
Si       1.93974312       4.49477402       7.44879706
Si       3.79013872       2.59386164       2.58238762
Si      -0.08934752       2.59386164       7.44879706
Si       1.76104807       4.49477402       2.58238762
Si       1.76104807       9.68249729       2.58238762
Si      -0.08934752      11.58340967       7.44879706
Si       3.79013872      11.58340967       2.58238762
Si       1.93974312       9.68249729       7.44879706
Si       1.76279740       2.06976254       8.83692787
Si       3.61319299       5.01887311       1.19425681
Si       0.08759820       5.01887311       8.83692787
Si       1.93799379       2.06976254       1.19425681
Si       1.93799379      12.10750876       1.19425681
Si       0.08759820       9.15839820       8.83692787
Si       3.61319299       9.15839820       1.19425681
Si       1.76279740      12.10750876       8.83692787
Si       1.85039560       0.00000000      -0.00000000
Si       0.00000000       7.08863565       0.00000000
18
Lattice="3.7159349274644318 -5.288421298489096e-16 -1.804378083775767e-13 6.39135604313077e-16 14.226056337495296 1.8489233127817953e-14 -5.969548048946311e-13 1.934253154919108e-14 10.021444779929928" Properties=species:S:1:pos:R:3 unique_starting_index=62 config_type=initial n_minim_iter=16 stress="0.0021148400928068323 3.9494006217585478e-19 -2.3655846708774027e-14 3.9494006217585478e-19 0.0006701460680084717 5.886599810355143e-16 -2.3655846708774027e-14 5.886599810355143e-16 0.001112378598329006" pbc="T T T"
Si       1.94841588       4.49537817       7.44364632
Si       3.80638334       2.61765000       2.57779846
Si      -0.09044841       2.61765000       7.44364632
Si       1.76751905       4.49537817       2.57779846
Si       1.76751905       9.73067816       2.57779846
Si      -0.09044841      11.60840634       7.44364632
Si       3.80638334      11.60840634       2.57779846
Si       1.94841588       9.73067816       7.44364632
Si       1.77980128       2.08273844       8.83240653
Si       3.63776874       5.03028973       1.18903825
Si       0.07816619       5.03028973       8.83240653
Si       1.93613365       2.08273844       1.18903825
Si       1.93613365      12.14331790       1.18903825
Si       0.07816619       9.19576661       8.83240653
Si       3.63776874       9.19576661       1.18903825
Si       1.77980128      12.14331790       8.83240653
Si       1.85796746       0.00000000      -0.00000000
Si       0.00000000       7.11302817       0.00000000
18
Lattice="3.70449542010189 -5.24149023295854e-16 -2.007234000544966e-13 6.567242984301479e-16 14.23742913993864 2.0479392922364728e-14 -6.721398146913852e-13 2.1359807840633717e-14 10.009653513314563" Properties=species:S:1:pos:R:3 unique_starting_index=62 config_type=initial n_minim_iter=17 stress="-0.0007381853598930282 -1.8840566776140486e-17 -2.744144310685493e-14 -1.8840566776140486e-17 7.395541624337861e-06 7.115620417115674e-16 -2.744144310685493e-14 7.115620417115674e-16 -0.0006476299372767277" pbc="T T T"
Si       1.94091027       4.49530794       7.43811724
Si       3.79315798       2.62340663       2.57153627
Si      -0.08866256       2.62340663       7.43811724
Si       1.76358515       4.49530794       2.57153627
Si       1.76358515       9.74212120       2.57153627
Si      -0.08866256      11.61402251       7.43811724
Si       3.79315798      11.61402251       2.57153627
Si       1.94091027       9.74212120       7.43811724
Si       1.77962519       2.08742384       8.82135905
Si       3.63187290       5.03129073       1.18829447
Si       0.07262252       5.03129073       8.82135905
Si       1.92487023       2.08742384       1.18829447
Si       1.92487023      12.15000530       1.18829447
Si       0.07262252       9.20613841       8.82135905
Si       3.63187290       9.20613841       1.18829447
Si       1.77962519      12.15000530       8.82135905
Si       1.85224771       0.00000000      -0.00000000
Si       0.00000000       7.11871457       0.00000000
18
Lattice="3.6990816539498024 -5.186048192098426e-16 -2.30856711230193e-13 6.648443619881918e-16 14.155352313106311 2.7807865066471445e-14 -7.801257953058659e-13 2.84278413013523e-14 10.074812304114571" Properties=species:S:1:pos:R:3 unique_starting_index=62 config_type=initial n_minim_iter=18 stress="-0.0009935962200140122 3.4311798050923095e-17 -3.042578046950916e-14 3.4311798050923095e-17 -0.004718881110997517 9.661959629637326e-16 -3.042578046950916e-14 9.661959629637326e-16 -0.002268343041411818" pbc="T T T"
Si       1.92125316       4.46060153       7.50002619
Si       3.77079398       2.61707463       2.57478611
Si      -0.07171233       2.61707463       7.50002619
Si       1.77782850       4.46060153       2.57478611
Si       1.77782850       9.69475078       2.57478611
Si      -0.07171233      11.53827769       7.50002619
Si       3.77079398      11.53827769       2.57478611
Si       1.92125316       9.69475078       7.50002619
Si       1.79356213       2.06189182       8.88426369
Si       3.64310296       5.01578433       1.19054861
Si       0.05597870       5.01578433       8.88426369
Si       1.90551952       2.06189182       1.19054861
Si       1.90551952      12.09346049       1.19054861
Si       0.05597870       9.13956798       8.88426369
Si       3.64310296       9.13956798       1.19054861
Si       1.79356213      12.09346049       8.88426369
Si       1.84954083       0.00000000      -0.00000000
Si       0.00000000       7.07767616       0.00000000
18
Lattice="3.687670827340961 -5.1314569123830085e-16 -2.6167033880291107e-13 7.04372837565226e-16 14.301020569356561 4.091486742767526e-14 -8.801582046111002e-13 4.1284996944377126e-14 10.266176813487009" Properties=species:S:1:pos:R:3 unique_starting_index=62 config_type=initial n_minim_iter=19 stress="-0.0007142809160140456 -1.3161210257317217e-17 -3.165561930118708e-14 -1.3161210257317217e-17 -0.0032129571761451412 1.4876220338220361e-15 -3.165561930118708e-14 1.4876220338220361e-15 -0.00030374774303852127" pbc="T T T"
Si       1.84496235       4.46846975       7.70106798
Si       3.68879776       2.68204054       2.56510883
Si      -0.00112694       2.68204054       7.70106798
Si       1.84270848       4.46846975       2.56510883
Si       1.84270848       9.83255082       2.56510883
Si      -0.00112694      11.61898003       7.70106798
Si       3.68879776      11.61898003       2.56510883
Si       1.84496235       9.83255082       7.70106798
Si       1.84737159       2.05786226       9.06311870
Si       3.69120701       5.09264802       1.20305811
Si      -0.00353618       5.09264802       9.06311870
Si       1.84029924       2.05786226       1.20305811
Si       1.84029924      12.24315831       1.20305811
Si      -0.00353618       9.20837255       9.06311870
Si       3.69120701       9.20837255       1.20305811
Si       1.84737159      12.24315831       9.06311870
Si       1.84383541       0.00000000      -0.00000000
Si       0.00000000       7.15051028       0.00000000
18
Lattice="3.6950559556748552 -5.110430613864021e-16 -2.7492397523745297e-13 7.298162188522883e-16 14.416117746949695 4.399473963996453e-14 -9.30062746407492e-13 4.45919343338202e-14 10.280630999400248" Properties=species:S:1:pos:R:3 unique_starting_index=62 config_type=initial n_minim_iter=20 stress="5.996142838071066e-06 -4.781283646009165e-18 -3.3611169541020933e-14 -4.781283646009165e-18 0.0001839721815229491 1.5787711359804725e-15 -3.3611169541020933e-14 1.5787711359804725e-15 0.00015317184997060243" pbc="T T T"
Si       1.82633611       4.50043941       7.73227568
Si       3.67386409       2.70761946       2.54835532
Si       0.02119187       2.70761946       7.73227568
Si       1.86871985       4.50043941       2.54835532
Si       1.86871985       9.91567833       2.54835532
Si       0.02119187      11.70849829       7.73227568
Si       3.67386409      11.70849829       2.54835532
Si       1.82633611       9.91567833       7.73227568
Si       1.86636371       2.07028018       9.07527626
Si       3.71389169       5.13777870       1.20535474
Si      -0.01883573       5.13777870       9.07527626
Si       1.82869225       2.07028018       1.20535474
Si       1.82869225      12.34583757       1.20535474
Si      -0.01883573       9.27833905       9.07527626
Si       3.71389169       9.27833905       1.20535474
Si       1.86636371      12.34583757       9.07527626
Si       1.84752798       0.00000000      -0.00000000
Si       0.00000000       7.20805887       0.00000000
18