20
Lattice="5.750512032984423 3.0245629050367904e-15 6.453628809561658e-14 -2.875256016492214 4.9800895053326055 -4.42769181662302e-14 -2.4943253801098005e-13 5.359412283875864e-14 22.225709807245792" Properties=species:S:1:pos:R:3 unique_starting_index=168 config_type=initial n_minim_iter=1 energy=-3250.0408756632896 free_energy=-3250.0408756632896 pbc="T T T"
Si       1.14232599       0.78146144      20.83667864
Si       4.50258358       0.59855260      20.83667864
Si       2.98085849       3.60007546      20.83667864
Si       4.26483616       2.13260464      15.09701697
Si       1.77120416       2.62715413      15.09701697
Si       2.58972773       0.22033073      15.09701697
Si       2.93863194       3.07362157      10.27653254
Si       1.61936170       1.00811913      10.27653254
Si       4.06777441       0.89834881      10.27653254
Si       4.20317232       1.07874737      18.50575121
Si       2.71470325       3.10068031      18.50575121
Si       1.70789249       0.80066182      18.50575121
Si      -1.32348421       3.91809198      16.95178662
Si       0.14383094       1.87487257      16.95178662
Si       1.17965328       4.16721446      16.95178662
Si       3.25487576       3.07925311      12.71643413
Si       1.45636274       1.27917853      12.71643413
Si       3.91452956       0.62165785      12.71643413
Si       0.00000000      -0.00000000      14.57485273
Si       0.00000000       3.32005967      13.07005627
20
Lattice="5.531383506795581 1.5319532675539686e-14 6.207707374827254e-14 -2.7656917533977974 4.790318634959206 -4.25897056595355e-14 -2.5806748037963473e-13 5.544946282648309e-14 22.99512716080523" Properties=species:S:1:pos:R:3 unique_starting_index=168 config_type=initial n_minim_iter=2 stress="0.0007236500666453432 1.838818536224235e-16 -4.3235525210495964e-17 1.838818536224235e-16 0.0007236500666447368 3.742215801636596e-17 -4.3235525210495964e-17 3.742215801636596e-17 0.005533184296087357" pbc="T T T"
Si       1.20146224       0.82387012      21.55687908
Si       4.21715994       0.62856176      21.55687908
Si       2.87845309       3.33788675      21.55687908
Si       4.19444582       2.04552159      15.60177715
Si       1.66268694       2.60973583      15.60177715
Si       2.43994252       0.13506120      15.60177715
Si       2.80791598       3.06298401      10.63538671
Si       1.47480355       0.90023456      10.63538671
Si       4.01435573       0.82710006      10.63538671
Si       4.09082326       1.00340685      19.16035216
Si       2.61699605       3.04105344      19.16035216
Si       1.58925595       0.74585834      19.16035216
Si      -1.31390108       3.78172819      17.53437949
Si       0.14756961       1.76158282      17.53437949
Si       1.16633148       4.03732625      17.53437949
Si       3.21734304       3.03628149      13.12458048
Si       1.29321509       1.26816006      13.12458048
Si       3.78651714       0.48587708      13.12458048
Si       0.00000000      -0.00000000      15.06876821
Si       0.00000000       3.19354575      13.64797220
20
Lattice="5.4540560807196385 2.041399805532076e-14 6.120925101904361e-14 -2.727028040359823 4.723351119568162 -4.199431170213973e-14 -2.5450769815693373e-13 5.468459306552988e-14 22.677932430359743" Properties=species:S:1:pos:R:3 unique_starting_index=168 config_type=initial n_minim_iter=3 stress="-0.007245326465271831 3.4463446937472846e-16 1.1770090558638144e-16 3.4463446937472846e-16 -0.00724532646527295 -4.950197559059876e-17 1.1770090558638144e-16 -4.950197559059876e-17 -0.00898683575800834" pbc="T T T"
Si       1.21608986       0.83349485      21.25715807
Si       4.12418344       0.63641728      21.25715807
Si       2.84081083       3.25343898      21.25715807
Si       4.16143878       2.01436593      15.38134626
Si       1.62884463       2.59672873      15.38134626
Si       2.39080072       0.11225645      15.38134626
Si       2.76353455       3.05370225      10.49271974
Si       1.42770508       0.86643999      10.49271974
Si       3.98984450       0.80320887      10.49271974
Si       4.04633627       0.98015283      18.90329252
Si       2.58205070       3.01415359      18.90329252
Si       1.55269716       0.72904470      18.90329252
Si      -1.30886225       3.73246747      17.29113934
Si       0.14904752       1.72360942      17.29113934
Si       1.15981474       3.99062534      17.29113934
Si       3.19409161       3.01514967      12.93079977
Si       1.24581407       1.25858964      12.93079977
Si       3.74117845       0.44961181      12.93079977
Si       0.00000000      -0.00000000      14.85427463
Si       0.00000000       3.14890074      13.49761012
20
Lattice="5.476965800149774 1.624077905671045e-14 6.146635999383602e-14 -2.7384829000748883 4.7431915185882385 -4.217070847630562e-14 -2.5553375549525335e-13 5.490505605511269e-14 22.769359366191456" Properties=species:S:1:pos:R:3 unique_starting_index=168 config_type=initial n_minim_iter=4 stress="0.0005806223372858975 2.5380402479499227e-16 1.2622591941422944e-16 2.5380402479499227e-16 0.0005806223372847924 -9.599963536166594e-17 1.2622591941422944e-16 -9.599963536166594e-17 -0.005361272601404595" pbc="T T T"
Si       1.25304664       0.85777765      21.34040751
Si       4.10758524       0.65628139      21.34040751
Si       2.85481682       3.22913247      21.34040751
Si       4.20189975       2.01977949      15.43854871
Si       1.62683558       2.62906218      15.43854871
Si       2.38671338       0.09434984      15.43854871
Si       2.77030555       3.10235277      10.54071364
Si       1.40509672       0.84797859      10.54071364
Si       4.04004644       0.79286015      10.54071364
Si       4.07429436       0.97660858      18.98901294
Si       2.59405078       3.04013812      18.98901294
Si       1.54710357       0.72644481      18.98901294
Si      -1.32862041       3.75105469      17.35908248
Si       0.15428445       1.71704514      17.35908248
Si       1.17433596       4.01828320      17.35908248
Si       3.22488761       3.04829696      12.96755939
Si       1.22461939       1.26868610      12.96755939
Si       3.76594171       0.42620844      12.96755939
Si       0.00000000      -0.00000000      14.90460101
Si       0.00000000       3.16212768      13.58916302
20
Lattice="5.40765608525677 6.3933819602317044e-15 6.068851765518768e-14 -2.7038280426283783 4.683167544761846 -4.1637048072355743e-14 -2.621154086612497e-13 5.631921770007177e-14 23.355818191835542" Properties=species:S:1:pos:R:3 unique_starting_index=168 config_type=initial n_minim_iter=5 stress="-0.0006420658665142122 2.3550745557341493e-16 1.12924259698924e-16 2.3550745557341493e-16 -0.0006420658665152214 -2.123826052039876e-18 1.12924259698924e-16 -2.123826052039876e-18 0.0039473735079377376" pbc="T T T"
Si       1.25471870       0.85672468      21.88871053
Si       4.03835140       0.65825592      21.88871053
Si       2.81841404       3.16818694      21.88871053
Si       4.15358925       1.98943879      15.83512858
Si       1.60795693       2.60239440      15.83512858
Si       2.34993796       0.09133434      15.83512858
Si       2.73301451       3.08888571      10.82187123
Si       1.36609534       0.82241714      10.82187123
Si       4.01237428       0.77186469      10.82187123
Si       4.02322120       0.96446941      19.48864243
Si       2.56079048       3.00197706      19.48864243
Si       1.52747246       0.71672107      19.48864243
Si      -1.32122482       3.70323247      17.80421910
Si       0.15734706       1.68733704      17.80421910
Si       1.16387777       3.97576557      17.80421910
Si       3.18283278       3.01830843      13.28450317
Si       1.20230792       1.24725983      13.28450317
Si       3.72634343       0.41759928      13.28450317
Si       0.00000000      -0.00000000      15.27226421
Si       0.00000000       3.12211169      13.95910908
20
Lattice="5.408328281434637 -4.3133415078127237e-14 6.069606151318565e-14 -2.704164140717275 4.6837496837282435 -4.164222374627587e-14 -2.683389056213715e-13 5.765642439823287e-14 23.910363475000864" Properties=species:S:1:pos:R:3 unique_starting_index=168 config_type=initial n_minim_iter=6 stress="0.0061535629866911554 1.2405610878112756e-16 9.428255342843175e-17 1.2405610878112756e-16 0.00615356298669078 7.872974037979926e-17 9.428255342843175e-17 7.872974037979926e-17 0.011958111464114827" pbc="T T T"
Si       1.25400390       0.84722669      22.40037199
Si       4.04760650       0.66238589      22.40037199
Si       2.81088203       3.17413710      22.40037199
Si       4.11551664       1.97635461      16.22486178
Si       1.63899666       2.57596465      16.22486178
Si       2.35797913       0.13143042      16.22486178
Si       2.73699939       3.12013914      11.11657422
Si       1.33770883       0.81024143      11.11657422
Si       4.03778421       0.75336911      11.11657422
Si       4.00036333       0.98485381      19.98367284
Si       2.55523820       2.97198936      19.98367284
Si       1.55689090       0.72690651      19.98367284
Si      -1.33216816       3.69588087      18.22231422
Si       0.16952150       1.68211778      18.22231422
Si       1.16264667       3.98950071      18.22231422
Si       3.12254959       3.00416022      13.55182304
Si       1.24537442       1.20212715      13.55182304
Si       3.74456842       0.47746231      13.55182304
Si       0.00000000      -0.00000000      15.57283387
Si       0.00000000       3.12249979      14.28350143
20
Lattice="5.3603317668496375 -3.276331885283656e-14 6.015741088954099e-14 -2.6801658834247775 4.6421834828045085 -4.127266748131062e-14 -2.6974103305157863e-13 5.795769138741536e-14 24.035300171813013" Properties=species:S:1:pos:R:3 unique_starting_index=168 config_type=initial n_minim_iter=7 stress="0.0026430443677184037 2.5545937808127697e-16 6.935066443261878e-17 2.5545937808127697e-16 0.0026430443677175957 3.250377359230321e-17 6.935066443261878e-17 3.250377359230321e-17 0.008214788949503234" pbc="T T T"
Si       1.26164328       0.84868309      22.51271066
Si       3.99452901       0.66827359      22.51271066
Si       2.78432536       3.12522680      22.51271066
Si       4.08106479       1.95244163      16.31262136
Si       1.62893532       2.55808497      16.31262136
Si       2.33049754       0.13165688      16.31262136
Si       2.71075662       3.12665846      11.19171740
Si       1.29718780       0.78425486      11.19171740
Si       4.03255323       0.73127015      11.19171740
Si       3.96610785       0.97762730      20.10442671
Si       2.53062777       2.94593650      20.10442671
Si       1.54376204       0.71861968      20.10442671
Si      -1.33367633       3.66267407      18.31630923
Si       0.17503526       1.65584886      18.31630923
Si       1.15864108       3.96584403      18.31630923
Si       3.08477814       2.98531535      13.59550281
Si       1.23258377       1.17883855      13.59550281
Si       3.72313575       0.47802957      13.59550281
Si       0.00000000      -0.00000000      15.62159442
Si       0.00000000       3.09478899      14.38080707
20
Lattice="5.342570908483952 -1.8143720819906004e-14 5.99580860527712e-14 -2.6712854542419433 4.626802128266791 -4.113591512466809e-14 -2.6775239299339784e-13 5.753040383138108e-14 23.858102212009143" Properties=species:S:1:pos:R:3 unique_starting_index=168 config_type=initial n_minim_iter=8 stress="4.916309718923321e-06 3.657832142478898e-16 2.4670569802859997e-16 3.657832142478898e-16 4.916309717670305e-06 2.4479235578579677e-18 2.4670569802859997e-16 2.4479235578579677e-18 -0.0008059105543511577" pbc="T T T"
Si       1.26017994       0.84376888      22.34123756
Si       3.98175566       0.66946339      22.34123756
Si       2.77192078       3.11356985      22.34123756
Si       4.06303014       1.94112883      16.20195873
Si       1.62998896       2.54812289      16.20195873
Si       2.32083727       0.13755040      16.20195873
Si       2.70122690       3.13425576      11.12282214
Si       1.27761235       0.77220323      11.12282214
Si       4.03501712       0.72034313      11.12282214
Si       3.95675182       0.97706900      19.96653407
Si       2.51802842       2.93811308      19.96653407
Si       1.53907613       0.71162004      19.96653407
Si      -1.34007865       3.65018560      18.18472354
Si       0.18017133       1.64116717      18.18472354
Si       1.15990733       3.96225148      18.18472354
Si       3.05611901       2.97319755      13.47590319
Si       1.23964679       1.16007792      13.47590319
Si       3.71809057       0.49352665      13.47590319
Si       0.00000000      -0.00000000      15.46437645
Si       0.00000000       3.08453475      14.28047000
20
Lattice="5.323928279003441 7.643577916103018e-15 5.974886536074864e-14 -2.661964139501703 4.610657137543303 -4.0992373440873887e-14 -2.657824466798035e-13 5.710713289181833e-14 23.682569960078023" Properties=species:S:1:pos:R:3 unique_starting_index=168 config_type=initial n_minim_iter=9 stress="-0.0030995287655783943 5.559615459020353e-16 3.893380684809287e-16 5.559615459020353e-16 -0.0030995287655800076 -9.140059476510502e-17 3.893380684809287e-16 -9.140059476510502e-17 -0.00877271159858002" pbc="T T T"
Si       1.23607898       0.82280577      22.16933809
Si       3.99331809       0.65907291      22.16933809
Si       2.75649535       3.12877845      22.16933809
Si       4.04548273       1.93205065      16.10695615
Si       1.62798197       2.53746549      16.10695615
Si       2.31242772       0.14114100      16.10695615
Si       2.69112443       3.11562672      11.03985598
Si       1.28015418       0.77276875      11.03985598
Si       4.01461382       0.72226166      11.03985598
Si       3.95969653       0.97546071      19.81661461
Si       2.49930626       2.94146743      19.81661461
Si       1.52688963       0.69372900      19.81661461
Si      -1.34662774       3.63994244      18.06458202
Si       0.18299539       1.62447208      18.06458202
Si       1.16363236       3.95689975      18.06458202
Si       3.02140529       2.94632910      13.37766504
Si       1.26162979       1.14344918      13.37766504
Si       3.70285735       0.52087885      13.37766504
Si       0.00000000      -0.00000000      15.28113650
Si       0.00000000       3.07377142      14.16362275
20
Lattice="5.2869021907075 -1.810230821771934e-15 5.933333257208234e-14 -2.6434510953537362 4.5785916044762764 -4.0707285596158986e-14 -2.6969384578207876e-13 5.794755253245199e-14 24.031095545715935" Properties=species:S:1:pos:R:3 unique_starting_index=168 config_type=initial n_minim_iter=10 stress="-0.004015159181614089 2.714777768215545e-16 2.067165618591572e-16 2.714777768215545e-16 -0.004015159181614969 4.5325396685047636e-17 2.067165618591572e-16 4.5325396685047636e-17 -0.005344212366880151" pbc="T T T"
Si       1.22913165       0.81218065      22.48575359
Si       3.96896729       0.65836891      22.48575359
Si       2.73225435       3.10804204      22.48575359
Si       4.03015704       1.91303278      16.37008716
Si       1.61508869       2.53370198      16.37008716
Si       2.28510757       0.13185684      16.37008716
Si       2.66834696       3.10893736      11.20434661
Si       1.26030998       0.75638757      11.20434661
Si       4.00169635       0.71326667      11.20434661
Si       3.95363397       0.96901078      20.11398487
Si       2.47089725       2.93944206      20.11398487
Si       1.50582207       0.67013876      20.11398487
Si      -1.35818206       3.61898808      18.34072526
Si       0.18840651       1.59287739      18.34072526
Si       1.16977555       3.94531773      18.34072526
Si       2.98639117       2.92134127      13.56384397
Si       1.26375086       1.12561998      13.56384397
Si       3.68021127       0.53163035      13.56384397
Si       0.00000000      -0.00000000      15.41952365
Si       0.00000000       3.05239440      14.38772178
20
Lattice="5.284802202852103 -1.4072980337454082e-14 5.930976503227752e-14 -2.642401101426016 4.576772961645849 -4.0691116428979413e-14 -2.733890684536814e-13 5.874152359716658e-14 24.360358710125325" Properties=species:S:1:pos:R:3 unique_starting_index=168 config_type=initial n_minim_iter=11 stress="-0.00038003838113418874 5.171838401207558e-16 2.6847259188297694e-16 5.171838401207558e-16 -0.00038003838113578057 3.7828153249009633e-17 2.6847259188297694e-16 3.7828153249009633e-17 0.0005447276450957544" pbc="T T T"
Si       1.23013236       0.80707088      22.78346478
Si       3.97079213       0.66179043      22.78346478
Si       2.72627881       3.10791164      22.78346478
Si       4.04842687       1.90657014      16.62630148
Si       1.60945060       2.55275544      16.62630148
Si       2.26932585       0.11744738      16.62630148
Si       2.66262405       3.11182821      11.35497038
Si       1.25856790       0.74998596      11.35497038
Si       4.00601136       0.71495879      11.35497038
Si       3.97278295       0.97088065      20.39412303
Si       2.45760342       2.95509063      20.39412303
Si       1.49681694       0.65080168      20.39412303
Si      -1.37724486       3.62244163      18.59873648
Si       0.19389706       1.57282311      18.59873648
Si       1.18334781       3.95828118      18.59873648
Si       2.97915665       2.91514883      13.74350694
Si       1.27063093       1.12245092      13.74350694
Si       3.67741572       0.53917320      13.74350694
Si       0.00000000      -0.00000000      15.54311144
Si       0.00000000       3.05118197      14.60136426
20
Lattice="5.288608122146631 -3.327071489655425e-14 5.935247773379744e-14 -2.6443040610732735 4.580068984439697 -4.072042066766087e-14 -2.7602726987095047e-13 5.93083786352305e-14 24.59543589604793" Properties=species:S:1:pos:R:3 unique_starting_index=168 config_type=initial n_minim_iter=12 stress="0.0030971516305891107 2.259575434539192e-16 1.439253409064391e-16 2.259575434539192e-16 0.003097151630588586 1.0918310363662349e-17 1.439253409064391e-16 1.0918310363662349e-17 0.004050853793502289" pbc="T T T"
Si       1.24131752       0.80923409      22.99380335
Si       3.96713208       0.67039546      22.99380335
Si       2.72446258       3.10043943      22.99380335
Si       4.07834761       1.89847616      16.82352437
Si       1.60530574       2.58271455      16.82352437
Si       2.24925884       0.09887827      16.82352437
Si       2.65925367       3.10819722      11.46286378
Si       1.26720354       0.74888261      11.46286378
Si       4.00645499       0.72298914      11.46286378
Si       3.98274045       0.98131188      20.60014450
Si       2.44739688       2.95849847      20.60014450
Si       1.50277486       0.64025863      20.60014450
Si      -1.39324692       3.62749227      18.77065073
Si       0.19942707       1.55973561      18.77065073
Si       1.19381986       3.97291008      18.77065073
Si       2.99200553       2.91390010      13.86342545
Si       1.26909385       1.13420275      13.86342545
Si       3.67181281       0.53196614      13.86342545
Si       0.00000000      -0.00000000      15.62534899
Si       0.00000000       3.05337932      14.76644667
20
Lattice="5.26246269463692 1.6453120838496707e-14 5.905905536854e-14 -2.6312313473184417 4.557426380023426 -4.0519110080425893e-14 -2.7594574069774647e-13 5.929086093460974e-14 24.58817123138533" Properties=species:S:1:pos:R:3 unique_starting_index=168 config_type=initial n_minim_iter=13 stress="0.00046181274648212647 5.394922299072203e-16 1.6870379156462393e-16 5.394922299072203e-16 0.00046181274647995763 -2.1488902494186347e-16 1.6870379156462393e-16 -2.1488902494186347e-16 2.3005340537757187e-05" pbc="T T T"
Si       1.24391818       0.80631245      22.97941786
Si       3.94221654       0.67410851      22.97941786
Si       2.70755933       3.07700541      22.97941786
Si       4.07852705       1.87467724      16.85662711
Si       1.59968106       2.59476941      16.85662711
Si       2.21548594       0.08797972      16.85662711
Si       2.64216874       3.07449823      11.46228293
Si       1.27878475       0.75093613      11.46228293
Si       3.97274056       0.73199201      11.46228293
Si       3.95352435       0.99539204      20.60211366
Si       2.42366573       2.92615650      20.60211366
Si       1.51650397       0.63587784      20.60211366
Si      -1.39552422       3.60661765      18.75194281
Si       0.20557095       1.54555812      18.75194281
Si       1.18995327       3.96267698      18.75194281
Si       2.99778480       2.89057427      13.83790932
Si       1.26025955       1.15087065      13.83790932
Si       3.63564970       0.51598145      13.83790932
Si       0.00000000      -0.00000000      15.57944363
Si       0.00000000       3.03828425      14.78312066
20
Lattice="5.264611430947081 5.3068493977376726e-14 5.90831699977679e-14 -2.632305715473542 4.559287240254016 -4.0535654593546105e-14 -2.742501692863251e-13 5.892654333902458e-14 24.437087180970984" Properties=species:S:1:pos:R:3 unique_starting_index=168 config_type=initial n_minim_iter=14 stress="-0.0008468867404978089 9.02306435538565e-16 4.2231641709122296e-16 9.02306435538565e-16 -0.0008468867405008616 -2.5106645071014447e-16 4.2231641709122296e-16 -2.5106645071014447e-16 -0.0012132224691969514" pbc="T T T"
Si       1.24140798       0.80827737      22.84427836
Si       3.94391870       0.67095216      22.84427836
Si       2.71159047       3.08005770      22.84427836
Si       4.06595658       1.87456410      16.73144834
Si       1.60821301       2.58393963      16.73144834
Si       2.22274757       0.10078350      16.73144834
Si       2.64566174       3.07456398      11.39283822
Si       1.27913005       0.75392828      11.39283822
Si       3.97212537       0.73079497      11.39283822
Si       3.94668581       0.99545372      20.46535503
Si       2.42918032       2.92020330      20.46535503
Si       1.52105103       0.64363021      20.46535503
Si      -1.38889354       3.60187687      18.64440707
Si       0.20743561       1.55553171      18.64440707
Si       1.18145793       3.96116589      18.64440707
Si       3.01143706       2.89429843      13.75407984
Si       1.25235694       1.16083177      13.75407984
Si       3.63312316       0.50415703      13.75407984
Si       0.00000000      -0.00000000      15.53585363
Si       0.00000000       3.03952482      14.68765814
20
Lattice="5.242793664294293 7.755793168557022e-14 5.883831568458091e-14 -2.6213968321471826 4.540392500078868 -4.0367665471341084e-14 -2.7577040811706173e-13 5.925318823983732e-14 24.572548205258627" Properties=species:S:1:pos:R:3 unique_starting_index=168 config_type=initial n_minim_iter=15 stress="-0.0025611882298735384 6.608107385504021e-16 2.6568595162238877e-16 6.608107385504021e-16 -0.0025611882298760165 -6.477837766224724e-17 2.6568595162238877e-16 -6.477837766224724e-17 -0.0015045806591647253" pbc="T T T"
Si       1.23775989       0.80055031      22.95962244
Si       3.93061681       0.67165635      22.95962244
Si       2.69581380       3.06818584      22.95962244
Si       4.05720116       1.84212776      16.85438076
Si       1.61886365       2.59257539      16.85438076
Si       2.18812569       0.10568935      16.85438076
Si       2.62981362       3.06531099      11.45966756
Si       1.27324967       0.74482991      11.45966756
Si       3.96112721       0.73025160      11.45966756
Si       3.94207331       1.00739986      20.57416548
Si       2.39932314       2.91023569      20.57416548
Si       1.52279405       0.62275694      20.57416548
Si      -1.40798898       3.57717810      18.76869673
Si       0.22746422       1.53244922      18.76869673
Si       1.18052477       3.97115767      18.76869673
Si       3.02481813       2.87441193      13.80324471
Si       1.24107085       1.18236338      13.80324471
Si       3.59830152       0.48361719      13.80324471
Si       0.00000000      -0.00000000      15.55281456
Si       0.00000000       3.02692833      14.80283016
20
Lattice="5.249742873739088 1.225941190672619e-13 5.891630459760115e-14 -2.624871436869624 4.546410691994264 -4.042117193757433e-14 -2.767827688693924e-13 5.947070832341785e-14 24.662754705504845" Properties=species:S:1:pos:R:3 unique_starting_index=168 config_type=initial n_minim_iter=16 stress="-0.0006620533924534535 5.830487374526574e-16 3.077565956028531e-16 5.830487374526574e-16 -0.0006620533924553366 -1.3499956447780788e-16 3.077565956028531e-16 -1.3499956447780788e-16 9.744749718524617e-05" pbc="T T T"
Si       1.24126059       0.79653234      23.02750654
Si       3.93929534       0.67669703      23.02750654
Si       2.69405839       3.07318132      23.02750654
Si       4.07618806       1.80041505      16.96149664
Si       1.65244368       2.62987488      16.96149664
Si       2.14598258       0.11612076      16.96149664
Si       2.62572682       3.05913938      11.49882877
Si       1.28758705       0.74437644      11.49882877
Si       3.96130045       0.74289487      11.49882877
Si       3.95642411       1.04165528      20.64046090
Si       2.36943089       2.90553614      20.64046090
Si       1.54875932       0.59921927      20.64046090
Si      -1.44013836       3.55958750      18.86093308
Si       0.26224741       1.51942053      18.86093308
Si       1.17789095       4.01381334      18.86093308
Si       3.09474563       2.86483322      13.81933560
Si       1.22135172       1.24771173      13.81933560
Si       3.55851697       0.43386574      13.81933560
Si       0.00000000      -0.00000000      15.53788251
Si       0.00000000       3.03094046      14.91283069
20
Lattice="5.270329109852579 1.5993046646106485e-13 5.914733780942561e-14 -2.6351645549264053 4.564238895436839 -4.0579678708195e-14 -2.7693877737357647e-13 5.950422896591268e-14 24.676655857972666" Properties=species:S:1:pos:R:3 unique_starting_index=168 config_type=initial n_minim_iter=17 stress="0.0024096234984304597 4.20820922440451e-16 1.7701541975348388e-16 4.20820922440451e-16 0.0024096234984285446 -2.068469998306406e-17 1.7701541975348388e-16 -2.068469998306406e-17 0.002568548729579129" pbc="T T T"
Si       1.24379780       0.79316403      23.02393676
Si       3.96153001       0.68057847      23.02393676
Si       2.70016586       3.09049639      23.02393676
Si       4.08324587       1.76071144      16.99469587
Si       1.70388534       2.65583893      16.99469587
Si       2.11836246       0.14768852      16.99469587
Si       2.63105306       3.07710923      11.50116516
Si       1.28994782       0.74000416      11.50116516
Si       3.98449280       0.74712549      11.50116516
Si       3.97689345       1.08258527      20.65630400
Si       2.34433605       2.90279812      20.65630400
Si       1.58426418       0.57885551      20.65630400
Si      -1.46463486       3.54048473      18.88520936
Si       0.30133227       1.52558553      18.88520936
Si       1.16330260       4.06240752      18.88520936
Si       3.16417716       2.86101536      13.80426716
Si       1.21052854       1.30975012      13.80426716
Si       3.53078797       0.39347341      13.80426716
Si       0.00000000      -0.00000000      15.50221303
Si       0.00000000       3.04282593      14.97183929
20
Lattice="5.286707505962504 2.261759068203243e-13 5.933114768301935e-14 -2.643353752981422 4.578423002541241 -4.0705786592172606e-14 -2.742976984002072e-13 5.89367556440347e-14 24.441322267141313" Properties=species:S:1:pos:R:3 unique_starting_index=168 config_type=initial n_minim_iter=18 stress="0.0026705930563907052 5.203640496815724e-16 4.245056811054874e-16 5.203640496815724e-16 0.0026705930563885433 -1.485862662218176e-16 4.245056811054874e-16 -1.485862662218176e-16 0.0004823326052838257" pbc="T T T"
Si       1.23687504       0.78262943      22.78277462
Si       3.99049302       0.67985049      22.78277462
Si       2.70269320       3.11594308      22.78277462
Si       4.06951294       1.69929501      16.85104128
Si       1.78031839       2.67465408      16.85104128
Si       2.08022994       0.20447391      16.85104128
Si       2.63396405       3.10312364      11.37340910
Si       1.28234158       0.72951796      11.37340910
Si       4.01375563       0.74578140      11.37340910
Si       4.00290735       1.14375714      20.47521950
Si       2.29473109       2.89474088      20.47521950
Si       1.63242282       0.53992498      20.47521950
Si      -1.48036733       3.49423037      18.70776175
Si       0.35744515       1.54927210      18.70776175
Si       1.12292218       4.11334353      18.70776175
Si       3.24156103       2.84111519      13.66980135
Si       1.20544907       1.38671660      13.66980135
Si       3.48305117       0.35059121      13.66980135
Si       0.00000000      -0.00000000      15.30285908
Si       0.00000000       3.05228200      14.89707264
20
Lattice="5.237886192147602 2.2272776287439298e-13 5.878324058265957e-14 -2.6189430960739633 4.536142504531399 -4.032987966351332e-14 -2.7399776697987364e-13 5.88723111192078e-14 24.414596849664782" Properties=species:S:1:pos:R:3 unique_starting_index=168 config_type=initial n_minim_iter=19 stress="-0.003482059323281736 8.209828572739352e-16 2.81465669570559e-16 8.209828572739352e-16 -0.003482059323284823 -3.7935964645210964e-16 2.81465669570559e-16 -3.7935964645210964e-16 -0.0002605581098632965" pbc="T T T"
Si       1.24149532       0.78728749      22.76701560
Si       3.93532757       0.68152273      22.76701560
Si       2.68000641       3.06733227      22.76701560
Si       4.04645965       1.66616340      16.82775153
Si       1.77171654       2.67125515      16.82775153
Si       2.03865310       0.19872395      16.82775153
Si       2.60764655       3.09082108      11.34973604
Si       1.25733334       0.71287761      11.34973604
Si       3.99184940       0.73244380      11.34973604
Si       3.98771917       1.15396831      20.45583136
Si       2.24466074       2.87648195      20.45583136
Si       1.62444938       0.50569224      20.45583136
Si      -1.45712174       3.44290845      18.66336142
Si       0.36585779       1.55278383      18.66336142
Si       1.09126396       4.07659273      18.66336142
Si       3.21885426       2.80824899      13.66972992