24
Lattice="7.390535536179584 0.5580137796874277 0.3501066315518736 -3.2335592222728984 7.420382181002837 0.7756595773199454 0.19622557980083913 1.1798922505936669 8.363972927769186" Properties=species:S:1:pos:R:3 unique_starting_index=90 config_type=initial n_minim_iter=1 energy=-3906.7720971878725 free_energy=-3906.7720971878725 pbc="T T T"
Si       4.78465945       1.36625721       6.28890984
Si       0.48425327       2.87748921       0.04276608
Si       4.87901994       5.95898009       2.51443080
Si       0.99229255       1.63362203       2.09733071
Si       4.95151990       4.08085323       9.58048187
Si      -1.14450413       6.50041867       6.98435312
Si       1.09794781       3.17117503       3.90181526
Si       2.49987837       4.98226136       7.26880213
Si      -1.00418695       9.06977683       6.06165398
Si       3.85276694       3.60034913       5.99321751
Si       1.70874343       5.04386469       2.40096809
Si       3.58067408       7.88082414       2.88055569
Si       3.05910564       7.55740082       0.50530340
Si       6.04733375       3.72605249       7.49452700
Si      -0.36470177       5.03949861       1.05407736
Si      -2.10473843       9.28133312       8.18924292
Si      -1.25937272       2.39280685       2.75496858
Si       3.72237934       6.15989660       9.10643519
Si       3.30502747       1.09606827       8.10688414
Si      -0.39728786       4.57164213       5.38035025
Si       1.24858618       6.53264214       6.04341282
Si       3.37089166       1.09001536       1.71077572
Si       5.09346894       4.65017125       4.38333171
Si       1.51806710       6.95219764       3.68797644
24
Lattice="7.3477570715798635 0.5822255427751769 0.38879816205913226 -3.186661096241428 7.450964840357834 0.7309042923980077 0.24753228613169373 1.1661922872126664 8.284707614816867" Properties=species:S:1:pos:R:3 unique_starting_index=90 config_type=initial n_minim_iter=2 stress="-0.0059861691802735005 0.00025816042253720413 0.0027957936355301055 0.00025816042253720413 -0.001650923727787614 -0.0008577331672476771 0.0027957936355301055 -0.0008577331672476771 -0.007331059386879838" pbc="T T T"
Si       4.79729886       1.37016337       6.25681856
Si       0.49137541       2.89196746       0.04210839
Si       4.88331485       5.99838722       2.50447727
Si       1.00726214       1.64169052       2.07541743
Si       4.98550747       4.09708062       9.50857119
Si      -1.07278957       6.51823689       6.89552680
Si       1.12110297       3.18874793       3.86288907
Si       2.54182565       5.00638339       7.20829510
Si      -0.93632796       9.10284004       5.97980587
Si       3.87373578       3.61165310       5.95066768
Si       1.72422957       5.06492534       2.37410464
Si       3.59490320       7.92630868       2.85238036
Si       3.06777621       7.60532770       0.50089091
Si       6.06465899       3.74850752       7.45000605
Si      -0.34315900       5.06526003       1.02972601
Si      -2.01091779       9.30455449       8.07287197
Si      -1.22844457       2.39950149       2.71773803
Si       3.76554660       6.18165832       9.03163157
Si       3.33203279       1.09025904       8.04774335
Si      -0.35213176       4.58018928       5.31600992
Si       1.29392261       6.56248072       5.97540147
Si       3.36110120       1.10157361       1.71527956
Si       5.10513346       4.68025617       4.35841058
Si       1.55358217       6.99268764       3.64978628
24
Lattice="7.385046776077286 0.6157154657110671 0.4042644655509438 -3.172690008076963 7.526852932829766 0.714697004650774 0.26999472813279796 1.1672917976933521 8.312037632099731" Properties=species:S:1:pos:R:3 unique_starting_index=90 config_type=initial n_minim_iter=3 stress="0.003128753956084576 0.001461702185595235 0.0038104023127056748 0.001461702185595235 0.012096316786813908 -0.0008191096534277785 0.0038104023127056748 -0.0008191096534277785 0.0011863197579669933" pbc="T T T"
Si       4.84194542       1.38954681       6.28828376
Si       0.50682677       2.92182747       0.04667738
Si       4.93793274       6.07881679       2.51294201
Si       1.02963767       1.66331164       2.07382135
Si       5.03645770       4.15323985       9.54187006
Si      -1.03141785       6.58428791       6.90436105
Si       1.14225793       3.23662658       3.87123553
Si       2.58751274       5.07739301       7.23912799
Si      -0.89647196       9.19784595       5.98816775
Si       3.91617029       3.64752952       5.97206205
Si       1.74953738       5.11504016       2.37432745
Si       3.64039820       8.02453735       2.85170222
Si       3.11607622       7.70116325       0.49846921
Si       6.12324637       3.80707347       7.47905147
Si      -0.32731625       5.12492278       1.02436544
Si      -1.96039297       9.38951246       8.07256012
Si      -1.22020838       2.42611071       2.72365830
Si       3.81499721       6.25130930       9.06639110
Si       3.36193817       1.09852683       8.08001811
Si      -0.33102058       4.61946924       5.32488173
Si       1.33349878       6.64419685       5.98280856
Si       3.38129543       1.12394844       1.73318782
Si       5.16312932       4.74758967       4.37153522
Si       1.59919698       7.08691285       3.66250948
24
Lattice="7.38311340255815 0.6302125895632354 0.3460696535351048 -3.1558455700644843 7.412840740433955 0.7370258324348539 0.20682369557064875 1.1443692397285685 8.339585521402025" Properties=species:S:1:pos:R:3 unique_starting_index=90 config_type=initial n_minim_iter=4 stress="-0.001649909956924093 0.004669099300620255 -0.001927876659193733 0.004669099300620255 0.0020370576305536727 0.0006699793892111851 -0.001927876659193733 0.0006699793892111851 -0.0016378260225883888" pbc="T T T"
Si       4.80644097       1.36932421       6.27666331
Si       0.52111567       2.86748068       0.06010891
Si       4.94571911       5.99620235       2.47715940
Si       1.03426701       1.64577694       2.05209572
Si       4.95394489       4.11351016       9.52703437
Si      -1.04569145       6.49319009       6.92698463
Si       1.11257587       3.22083988       3.86885839
Si       2.54525336       5.04300236       7.26223111
Si      -0.92040513       9.06391839       6.01926928
Si       3.87653573       3.57575639       5.95631366
Si       1.72872928       5.01886799       2.35899640
Si       3.62713677       7.91188238       2.81475074
Si       3.14780409       7.59267322       0.47347285
Si       6.07808389       3.77530181       7.44637607
Si      -0.32770193       5.05902613       1.02633995
Si      -1.97630560       9.23428412       8.08988002
Si      -1.23562757       2.40295281       2.74745339
Si       3.73777221       6.16105142       9.07954935
Si       3.28473108       1.07649565       8.08151425
Si      -0.37309379       4.53724393       5.34092402
Si       1.29846587       6.57267920       5.97801801
Si       3.36428746       1.11723027       1.72813815
Si       5.16094040       4.69446823       4.33180076
Si       1.60319730       7.01664771       3.67626220
24
Lattice="7.403651902942213 0.5494923449411713 0.3763566453819226 -3.239796619358736 7.39286557509517 0.7075905252283109 0.22977043486462273 1.11276140499277 8.368598062561066" Properties=species:S:1:pos:R:3 unique_starting_index=90 config_type=initial n_minim_iter=5 stress="-0.000534547278777512 -0.0010540384259158896 0.0019105889010703158 -0.0010540384259158896 -0.00021444538782005844 -0.00041180872810526027 0.0019105889010703158 -0.00041180872810526027 5.342235284768058e-05" pbc="T T T"
Si       4.83960124       1.28959351       6.32048530
Si       0.49751681       2.83661681       0.06175814
Si       4.91583890       5.89321811       2.49064310
Si       1.03466340       1.61970828       2.05270756
Si       4.96026160       4.01321989       9.57026318
Si      -1.07788015       6.44568604       6.92873262
Si       1.09600297       3.18814909       3.87740572
Si       2.53172425       4.97628427       7.29489704
Si      -0.99375715       8.99738283       6.01597610
Si       3.87672927       3.48659811       5.98297160
Si       1.68528336       4.95136337       2.36101152
Si       3.56505196       7.81019629       2.81498351
Si       3.08972751       7.50275594       0.46970997
Si       6.09241205       3.67130741       7.48699152
Si      -0.38006532       5.02767117       1.01526847
Si      -2.03861046       9.16500391       8.07956511
Si      -1.25282121       2.39774493       2.74673186
Si       3.71395537       6.05457770       9.12064404
Si       3.31358675       1.01084077       8.12283532
Si      -0.40450893       4.49132682       5.34708223
Si       1.25692834       6.50837527       5.98519349
Si       3.37004928       1.07119042       1.75156775
Si       5.15337961       4.59766052       4.35545014
Si       1.55737178       6.95138523       3.68460218
24
Lattice="7.45499081375115 0.5245640649087501 0.29446906652364646 -3.2970825176827403 7.39823600462509 0.724371228040772 0.13800215638655625 1.096004645406966 8.3209641643674" Properties=species:S:1:pos:R:3 unique_starting_index=90 config_type=initial n_minim_iter=6 stress="0.0021002035936290445 -0.0022956676466650235 -0.0051829195911062284 -0.0022956676466650235 0.0009189249821147711 0.0005404961164095903 -0.0051829195911062284 0.0005404961164095903 -0.0044493749043656135" pbc="T T T"
Si       4.82314303       1.25021592       6.25866435
Si       0.50663175       2.81864869       0.06208229
Si       4.91634232       5.85728548       2.41163197
Si       1.02330082       1.61373601       2.01539896
Si       4.86658322       3.98603662       9.45732524
Si      -1.14943656       6.44541077       6.88178289
Si       1.04447970       3.19200805       3.83785630
Si       2.45430420       4.98155642       7.23148451
Si      -1.10340001       8.99717455       5.96441435
Si       3.82525193       3.44549214       5.89608282
Si       1.62913365       4.92874524       2.32679837
Si       3.53095661       7.78408746       2.73218245
Si       3.10740806       7.47337304       0.41845727
Si       6.05086077       3.64190422       7.37635897
Si      -0.42055838       5.02348167       1.00207857
Si      -2.16056567       9.13349398       8.02212531
Si      -1.29416008       2.40417135       2.72666938
Si       3.59031179       6.01755303       9.05153780
Si       3.24271677       0.98147509       8.04536741
Si      -0.49346443       4.46801672       5.31492238
Si       1.17584721       6.51082889       5.92701166
Si       3.37434160       1.05378421       1.71850369
Si       5.13010851       4.56776187       4.27642525
Si       1.51868022       6.94968747       3.64144811
24
Lattice="7.4722092764044765 0.5953162292621367 0.30958134142892263 -3.2212057705674826 7.26534164347494 0.7084910676417006 0.16307831476529086 1.0546843320351975 8.466600811816903" Properties=species:S:1:pos:R:3 unique_starting_index=90 config_type=initial n_minim_iter=7 stress="0.0007325075308610591 0.002513625799500375 -0.005217362467730643 0.002513625799500375 -0.004013206735561762 0.0013013866666985563 -0.005217362467730643 0.0013013866666985563 0.0046043205249824155" pbc="T T T"
Si       4.88527864       1.24723280       6.42347825
Si       0.56642383       2.76477722       0.06753334
Si       5.00386343       5.80722061       2.43958523
Si       1.05682195       1.59765313       2.03139750
Si       4.90542042       3.96611954       9.61589946
Si      -1.01285806       6.34804491       6.96299072
Si       1.07278831       3.16975573       3.89699888
Si       2.51843940       4.96193763       7.35939246
Si      -1.01171721       8.87286599       6.00823867
Si       3.86556906       3.40009818       5.98260963
Si       1.64042256       4.86503074       2.36780913
Si       3.61993054       7.70393163       2.73707358
Si       3.23552722       7.38443191       0.39962032
Si       6.11687370       3.64118346       7.50965227
Si      -0.38349353       4.94559357       0.99827979
Si      -2.03831736       8.93392372       8.10072853
Si      -1.25350508       2.36353502       2.73592310
Si       3.61462894       5.93784953       9.25435869
Si       3.26417066       0.97229959       8.19330327
Si      -0.45772050       4.36706355       5.39615012
Si       1.25089486       6.45086267       6.01598036
Si       3.39701505       1.06546094       1.77429966
Si       5.18324850       4.54028703       4.36182068
Si       1.62152802       6.88201100       3.69053488
24
Lattice="7.532444481493132 0.6157444514676211 0.3510138165483317 -3.220202300019344 7.251915493334409 0.6771417651488942 0.2165590380043375 1.0423003699087139 8.449811998896823" Properties=species:S:1:pos:R:3 unique_starting_index=90 config_type=initial n_minim_iter=8 stress="0.0028208718435641664 0.001893988111639139 -0.001509517991431419 0.001893988111639139 -0.001567172369647868 0.0022120629740929503 -0.001509517991431419 0.0022120629740929503 0.0037056997373824405" pbc="T T T"
Si       4.99517783       1.24622883       6.50034286
Si       0.60993794       2.75201566       0.05840846
Si       5.07928667       5.79944266       2.45617289
Si       1.08093933       1.59249678       2.03185733
Si       4.99327831       3.96948639       9.61963342
Si      -0.90518622       6.35300712       6.91332877
Si       1.10101421       3.16587227       3.89319523
Si       2.58801089       4.97846298       7.34494715
Si      -0.97124984       8.88922017       5.92752379
Si       3.92405590       3.39431910       5.97629499
Si       1.63271461       4.87860548       2.38611073
Si       3.69389895       7.70928881       2.72032685
Si       3.32675059       7.36970103       0.39232318
Si       6.22296598       3.64782412       7.53893150
Si      -0.38042793       4.92709416       0.97997289
Si      -1.97811928       8.88413251       8.03472853
Si      -1.22566935       2.36053716       2.67442752
Si       3.65485092       5.92682580       9.30460698
Si       3.34638133       0.97554346       8.19989247
Si      -0.43358511       4.34192810       5.38213641
Si       1.31562097       6.46681975       6.01172035
Si       3.44737657       1.06896139       1.80040067
Si       5.23116360       4.53648142       4.39945797
Si       1.68939818       6.88067347       3.67399051
24
Lattice="7.502970514944499 0.60760167813086 0.3442277846916477 -3.2149311712885225 7.276169378437038 0.6118165508816568 0.21225909833968049 0.9709577062409691 8.448211681399467" Properties=species:S:1:pos:R:3 unique_starting_index=90 config_type=initial n_minim_iter=9 stress="-0.0005585898312352004 0.0005245249293085587 -0.0012664300329391226 0.0005245249293085587 0.0006980359034594264 -0.0031922924180804464 -0.0012664300329391226 -0.0031922924180804464 0.004029080594393603" pbc="T T T"
Si       4.98925120       1.19160953       6.53012348
Si       0.62083148       2.75729308       0.02113156
Si       5.05345991       5.78602585       2.40811771
Si       1.07279082       1.57437301       2.02469676
Si       4.96105116       3.89495485       9.59232430
Si      -0.88177334       6.32682979       6.84937423
Si       1.08490709       3.13736673       3.86847622
Si       2.56818515       4.93265654       7.29751744
Si      -0.98198622       8.88910429       5.82401357
Si       3.89274448       3.34756061       5.94655631
Si       1.59485626       4.88754594       2.35653861
Si       3.67914143       7.71465234       2.64342910
Si       3.32803118       7.38021428       0.31503095
Si       6.19664140       3.58695058       7.52292840
Si      -0.38922591       4.92797590       0.93195911
Si      -1.97882453       8.83468593       7.94918770
Si      -1.21794342       2.35043360       2.62878900
Si       3.60357545       5.85997042       9.28664698
Si       3.33602315       0.90878289       8.20227409
Si      -0.44839563       4.30509087       5.35123239
Si       1.30801057       6.44921182       5.96385016
Si       3.43919547       1.05360528       1.79394969
Si       5.18884131       4.50226184       4.37234001
Si       1.68093964       6.87041009       3.60890437
24
Lattice="7.521437720448947 0.6061626437515938 0.37532297997659614 -3.223495719880472 7.291410973514747 0.6361459356228937 0.24581804655699904 1.0190359240498208 8.4115322754764" Properties=species:S:1:pos:R:3 unique_starting_index=90 config_type=initial n_minim_iter=10 stress="-0.0020485368866434276 -0.0007004590007575504 0.0015202127093141297 -0.0007004590007575504 0.001211511252592758 0.001038522866483639 0.0015202127093141297 0.001038522866483639 0.00016256244908518258" pbc="T T T"
Si       5.04126223       1.23554607       6.55936086
Si       0.63603819       2.75807636       0.02340484
Si       5.06956465       5.79509214       2.45510114
Si       1.08082054       1.58147284       2.03342080
Si       5.00249918       3.95040105       9.58521244
Si      -0.83451955       6.38398413       6.83341506
Si       1.09241774       3.15790427       3.86949554
Si       2.59791624       4.97630976       7.28788158
Si      -0.96800941       8.95128896       5.81472643
Si       3.91078650       3.37909064       5.94893646
Si       1.57861333       4.92003302       2.39195401
Si       3.70258471       7.74335697       2.68130957
Si       3.35239060       7.37909165       0.35792139
Si       6.24290555       3.62735771       7.54166540
Si      -0.39230987       4.93147495       0.94812863
Si      -1.94991608       8.88037267       7.93643436
Si      -1.20746594       2.37424587       2.59765501
Si       3.61929838       5.91411789       9.31150711
Si       3.38186763       0.95875784       8.18383773
Si      -0.44318661       4.33587464       5.35159478
Si       1.34147542       6.50432860       5.97871055
Si       3.46040792       1.06496251       1.80509290
Si       5.20001053       4.52176027       4.40245155
Si       1.70027963       6.89815401       3.63254625
24
Lattice="7.631628646935318 0.6235160049049867 0.3943865733861547 -3.2462952700235874 7.243863509976131 0.5855315545198916 0.2797782249357838 0.9762540523535104 8.3385080167988" Properties=species:S:1:pos:R:3 unique_starting_index=90 config_type=initial n_minim_iter=11 stress="0.004782235690591997 0.0003982304465898838 0.0026906238840623546 0.0003982304465898838 -0.001724016232420228 -0.0026282121328486236 0.0026906238840623546 -0.0026282121328486236 -0.005454648820396117" pbc="T T T"
Si       5.15233400       1.22984752       6.55010810
Si       0.66606078       2.74304877      -0.00639470
Si       5.16074455       5.76002734       2.43532453
Si       1.10772454       1.56115606       2.01848022
Si       5.10946438       3.90152139       9.50367985
Si      -0.78354614       6.32879516       6.73012787
Si       1.11563260       3.12576133       3.82206712
Si       2.67274835       4.91854142       7.20291975
Si      -0.93511049       8.89293035       5.70294368
Si       3.97863672       3.33806351       5.89994424
Si       1.59399340       4.90139502       2.36858334
Si       3.79520360       7.70979078       2.63107575
Si       3.43946864       7.33809496       0.32336131
Si       6.37262358       3.58879886       7.49857905
Si      -0.38243646       4.89422916       0.91007103
Si      -1.91122401       8.78641711       7.80649895
Si      -1.20910712       2.35802188       2.53776580
Si       3.69449464       5.84783442       9.24031207
Si       3.46358922       0.93049199       8.13117428
Si      -0.43730268       4.28449271       5.29234647
Si       1.41680036       6.46846864       5.90476567
Si       3.52357475       1.06546923       1.79626765
Si       5.29093475       4.48436937       4.36213588
Si       1.76031407       6.85571202       3.57846455
24
Lattice="7.576214414858126 0.5951687411243052 0.3891176215353448 -3.2568649101432774 7.299709915565446 0.6189584969545485 0.2637350776523066 1.0125836069895089 8.366800199249985" Properties=species:S:1:pos:R:3 unique_starting_index=90 config_type=initial n_minim_iter=12 stress="-0.0012088428211182538 -0.0024374378022992923 0.0014971381165378038 -0.0024374378022992923 0.0023325081258478765 0.0010053846839241814 0.0014971381165378038 0.0010053846839241814 -0.004255809831836548" pbc="T T T"
Si       5.12979891       1.28021438       6.63125982
Si       0.67137173       2.74528167      -0.03538379
Si       5.08307328       5.75461292       2.48320664
Si       1.09613174       1.55899074       2.03589992
Si       5.02950626       3.93745966       9.53815876
Si      -0.77207360       6.41112016       6.74370728
Si       1.05398222       3.15459137       3.83220680
Si       2.62578919       4.94096850       7.22316423
Si      -0.96323859       8.99194205       5.72855989
Si       3.89249151       3.33419026       5.93385185
Si       1.49826786       4.94537063       2.41839801
Si       3.74489976       7.75468896       2.66108813
Si       3.41625709       7.33439919       0.33486405
Si       6.31947500       3.59817358       7.55912083
Si      -0.40554016       4.91215420       0.92124151
Si      -1.90499945       8.85456196       7.83003555
Si      -1.21894253       2.41426105       2.51226808
Si       3.58758199       5.88484015       9.32230688
Si       3.42863609       0.95718956       8.17189266
Si      -0.50619906       4.31994722       5.33837925
Si       1.41567460       6.56689300       5.94577646
Si       3.49868424       1.07420102       1.80295938
Si       5.21969520       4.47742317       4.38098754
Si       1.72339618       6.91575764       3.62800268
24
Lattice="7.569678747146928 0.620455860273775 0.3902228359934861 -3.2248185371572435 7.245209526186698 0.6281069584529428 0.26498756243033206 1.0060052283076832 8.458806132113503" Properties=species:S:1:pos:R:3 unique_starting_index=90 config_type=initial n_minim_iter=13 stress="-0.0011761566610242959 0.0004237675559007117 -0.0007988244746582036 0.0004237675559007117 9.859663551408625e-05 0.0008988384044330076 -0.0007988244746582036 0.0008988384044330076 0.0019635241894413397" pbc="T T T"
Si       5.13470049       1.34234284       6.72423009
Si       0.67933783       2.71221529      -0.06164393
Si       5.08088761       5.72461496       2.52686207
Si       1.11277617       1.54817746       2.04766405
Si       5.02014989       3.93761647       9.63231206
Si      -0.72860236       6.37955668       6.78783458
Si       1.01740540       3.14915547       3.86241451
Si       2.64937761       4.89902656       7.29477518
Si      -0.90522918       8.93877958       5.79422392
Si       3.87317290       3.29322908       6.00584842
Si       1.47679632       4.91993272       2.45513728
Si       3.77197409       7.72354988       2.69351468
Si       3.46664501       7.27894356       0.34401333
Si       6.34699635       3.58498748       7.66729990
Si      -0.38996014       4.87917582       0.92380263
Si      -1.82083412       8.78556723       7.88918257
Si      -1.22370898       2.43315222       2.52323477
Si       3.58598254       5.84449762       9.42708741
Si       3.41874695       0.95688558       8.27996134
Si      -0.54307672       4.28606163       5.41092037
Si       1.49707192       6.58775449       6.01272109
Si       3.49252350       1.09291434       1.82747185
Si       5.24127530       4.43496489       4.41362462
Si       1.75342815       6.91758604       3.69312910
24
Lattice="7.641077469743138 0.6339879463674372 0.4017754105371711 -3.236331714050161 7.202445440952539 0.5922710462701771 0.28549952430933323 0.9686918566678441 8.446892825475716" Properties=species:S:1:pos:R:3 unique_starting_index=90 config_type=initial n_minim_iter=14 stress="0.0026307963470323537 0.002046801474437027 -0.0014919558556953122 0.002046801474437027 -0.0021789513805797103 -0.0028239669752924885 -0.0014919558556953122 -0.0028239669752924885 0.002656425758537026" pbc="T T T"
Si       5.20753535       1.37160865       6.74227036
Si       0.68015482       2.66262083      -0.08203613
Si       5.12818794       5.69528652       2.50858054
Si       1.13360229       1.54172014       2.01312818
Si       5.07836423       3.90956643       9.60369970
Si      -0.66536959       6.33447857       6.70566783
Si       0.97878932       3.11112583       3.85840021
Si       2.70516849       4.85046615       7.26518303
Si      -0.86577878       8.87749221       5.71629652
Si       3.91878436       3.24029631       5.97650379
Si       1.48015712       4.90888669       2.44213174
Si       3.83119230       7.68012770       2.66245510
Si       3.56858259       7.22897979       0.34127523
Si       6.46806155       3.53231953       7.69349537
Si      -0.40184742       4.84980061       0.89579617
Si      -1.77953099       8.68637208       7.82872562
Si      -1.23253072       2.44430342       2.47716188
Si       3.62508844       5.76947553       9.39878560
Si       3.47487094       0.91606282       8.29941214
Si      -0.58695193       4.24108089       5.40752744
Si       1.60990449       6.60881298       6.02503666
Si       3.52353936       1.09339373       1.84568818
Si       5.28988167       4.35008421       4.42423759
Si       1.79450247       6.91714463       3.66616570
24
Lattice="7.647823093091103 0.6145771843519171 0.4260624578497041 -3.260282174318967 7.246033985740005 0.6084791219576701 0.30934012065559474 1.008714366157386 8.39842009638605" Properties=species:S:1:pos:R:3 unique_starting_index=90 config_type=initial n_minim_iter=15 stress="0.0005296106696135367 -0.00018564586790677327 0.0003851403555564236 -0.00018564586790677327 -8.000382045639892e-05 -0.00027104500741728524 0.0003851403555564236 -0.00027104500741728524 -0.0006507834452913861" pbc="T T T"
Si       5.24201023       1.42254731       6.74468086
Si       0.66621291       2.64854052      -0.07735498
Si       5.11228045       5.70932101       2.53305901
Si       1.13101231       1.55836843       1.99398458
Si       5.09377362       3.96109665       9.56832144
Si      -0.62531142       6.40285483       6.65101744
Si       0.93802357       3.12544892       3.86178022
Si       2.71499523       4.89208348       7.24219484
Si      -0.87326341       8.94357794       5.68070370
Si       3.92363988       3.25836922       5.94867322
Si       1.46111039       4.95459567       2.45977060
Si       3.82411260       7.71041206       2.68799461
Si       3.58367576       7.23478015       0.39042681
Si       6.51904976       3.54463371       7.70741214
Si      -0.43145630       4.87098064       0.90548759
Si      -1.77336672       8.74242575       7.80594586
Si      -1.23529513       2.48696782       2.44095382
Si       3.62215089       5.81330517       9.36973051
Si       3.51366104       0.94030278       8.27597003
Si      -0.62010677       4.28437076       5.40438679
Si       1.65725992       6.70530730       6.05463350
Si       3.52588379       1.10066098       1.86079938
Si       5.27216011       4.33503453       4.44705039
Si       1.78461600       6.97715200       3.67384667
24
Lattice="7.5983808136550195 0.6080805185964715 0.4192347184349321 -3.2493965630512585 7.276044768195776 0.6346821883416064 0.2969175609690308 1.037519223291591 8.402023651262617" Properties=species:S:1:pos:R:3 unique_starting_index=90 config_type=initial n_minim_iter=16 stress="-0.0031845551444440747 -0.0008204035575681321 0.0002489947735580927 -0.0008204035575681321 0.0013531762046613612 0.0022302150436219444 0.0002489947735580927 0.0022302150436219444 -0.00022468200910228322" pbc="T T T"
Si       5.20579818       1.43057421       6.74097644
Si       0.65804146       2.67188238      -0.06388668
Si       5.07444488       5.72813954       2.54853116
Si       1.10339755       1.57444557       2.00211043
Si       5.05392258       3.99155133       9.57774458
Si      -0.62555690       6.44350209       6.67275971
Si       0.92704075       3.14534472       3.87973485
Si       2.67148477       4.92976118       7.26491359
Si      -0.90638288       8.96978050       5.70970436
Si       3.88094507       3.29253473       5.95392669
Si       1.47678874       4.97021716       2.47052793
Si       3.78852790       7.73932617       2.71761327
Si       3.52365453       7.26120548       0.40279866
Si       6.47003791       3.57276917       7.70558487
Si      -0.43733988       4.89320855       0.92618186
Si      -1.78780739       8.79562524       7.85539209
Si      -1.22710681       2.48720484       2.46340244
Si       3.59983946       5.86829904       9.35624431
Si       3.49024224       0.96651242       8.26478030
Si      -0.60957875       4.32253410       5.41698068
Si       1.61587175       6.72877946       6.07223876
Si       3.49415305       1.11425449       1.85782725
Si       5.22901571       4.38452153       4.43325503
Si       1.75344277       6.99049183       3.69664553
24
Lattice="7.651942055695264 0.6159957050267029 0.4265990522897295 -3.2600526025264043 7.239530357726973 0.6072101548445022 0.3105693632244522 1.0071648959293158 8.394849394519207" Properties=species:S:1:pos:R:3 unique_starting_index=90 config_type=initial n_minim_iter=17 stress="-0.00037071942502184453 0.0001921878094288917 -0.00013272589478009676 0.0001921878094288917 0.00029099022704149496 0.0005159205501533326 -0.00013272589478009676 0.0005159205501533326 -0.0003161718444645069" pbc="T T T"
Si       5.27809709       1.44385733       6.77447900
Si       0.67055404       2.64896381      -0.08231983
Si       5.11193234       5.69016059       2.54449786
Si       1.10625351       1.56846955       1.98510695
Si       5.09498279       3.95917390       9.55818060
Si      -0.55419807       6.41014088       6.60650700
Si       0.89372711       3.12394141       3.87712191
Si       2.69717322       4.89058223       7.25067768
Si      -0.90293865       8.90335538       5.65002762
Si       3.88879752       3.24563510       5.93279821
Si       1.48745093       4.94400657       2.46502885
Si       3.83228907       7.70010816       2.69871201
Si       3.58032835       7.21360974       0.38612167
Si       6.56524689       3.53072547       7.72329559
Si      -0.44742806       4.86707957       0.90690305
Si      -1.75009897       8.70512831       7.81301387
Si      -1.22898920       2.48373018       2.43194881
Si       3.62487593       5.81384709       9.32791532