10
Lattice="4.566934828185514 -4.0098517243622277e-20 -2.2131595546052298e-14 3.3567545807106385e-20 3.8229946584152668 1.9776298718544738e-10 5.0907256560522664e-14 -5.434168548493867e-10 10.504896608554583" Properties=species:S:1:pos:R:3 unique_starting_index=72 config_type=initial n_minim_iter=1 energy=-1629.2150895949985 free_energy=-1629.2150895949985 pbc="T T T"
Si       4.05113587       3.09223151       3.81303418
Si       4.05113587       0.73076315       6.69186243
Si       1.76766845       1.18073418       1.43941413
Si       1.76766845       2.64226048       9.06548248
Si       0.88508981       1.19543578       3.63598560
Si       0.88508981       2.62755888       6.86891101
Si       3.16855723       3.10693311       1.61646270
Si       3.16855723       0.71606155       8.88843391
Si       0.20529914       0.00000000       0.00000000
Si       2.48876655       1.91149733       5.25244830
10
Lattice="4.5661628993630075 -4.009173956835279e-20 -2.2127854740209263e-14 3.359913472094464e-20 3.826592307459449 1.9794907962121591e-10 5.071190659086799e-14 -5.413316003826784e-10 10.464585435406471" Properties=species:S:1:pos:R:3 unique_starting_index=72 config_type=initial n_minim_iter=2 stress="-0.0013912831367674165 7.197098906195788e-17 -8.128347986609103e-17 7.197098906195788e-17 -0.0005500936731639739 1.368255365369884e-13 -8.128347986609103e-17 1.368255365369884e-13 -0.0031971198868648155" pbc="T T T"
Si       4.05027262       3.09149498       3.79736067
Si       4.05027262       0.73509733       6.66722476
Si       1.76719117       1.17819882       1.43493205
Si       1.76719117       2.64839348       9.02965339
Si       0.88427484       1.19635801       3.62381572
Si       0.88427484       2.63023430       6.84076971
Si       3.16735629       3.10965416       1.60847699
Si       3.16735629       0.71693815       8.85610844
Si       0.20695219       0.00000000       0.00000000
Si       2.49003364       1.91329615       5.23229272
10
Lattice="4.591236086799809 -4.031188670750292e-20 -2.22493606657979e-14 3.3814409728673634e-20 3.8511098938305413 1.99217364066455e-10 5.061567987128842e-14 -5.40304433593264e-10 10.444728703607108" Properties=species:S:1:pos:R:3 unique_starting_index=72 config_type=initial n_minim_iter=3 stress="0.0046642730188036 -1.631003249802551e-16 -1.7014832162554403e-16 -1.631003249802551e-16 0.00580927123901565 3.871553373480802e-13 -1.7014832162554403e-16 3.871553373480802e-13 -0.0016745228614156093" pbc="T T T"
Si       4.07226398       3.09063379       3.78476999
Si       4.07226398       0.76047610       6.65995872
Si       1.77664594       1.16507885       1.43759437
Si       1.77664594       2.68603105       9.00713434
Si       0.88450852       1.20204452       3.62774238
Si       0.88450852       2.64906538       6.81698633
Si       3.18012657       3.12759946       1.59462197
Si       3.18012657       0.72351043       8.85010673
Si       0.21783051       0.00000000       0.00000000
Si       2.51344855       1.92555495       5.22236435
10
Lattice="4.577893044418163 -4.019473237186966e-20 -2.218469961227859e-14 3.368602625508472e-20 3.8364883502213045 1.9846102894731493e-10 5.065961199115901e-14 -5.407732958824199e-10 10.453794255518877" Properties=species:S:1:pos:R:3 unique_starting_index=72 config_type=initial n_minim_iter=4 stress="-0.000918721558637619 -2.252679804220199e-16 -8.033743215646695e-17 -2.252679804220199e-16 -0.0012284251008778317 3.9130376639790025e-14 -8.033743215646695e-17 3.9130376639790025e-14 -0.00198712233084984" pbc="T T T"
Si       4.06081697       3.06681849       3.78446032
Si       4.06081697       0.76966986       6.66933393
Si       1.77187045       1.14857432       1.44243680
Si       1.77187045       2.68791403       9.01135745
Si       0.87886086       1.19510653       3.63783076
Si       0.87886086       2.64138181       6.81596349
Si       3.16780738       3.11335071       1.58906636
Si       3.16780738       0.72313764       8.86472789
Si       0.22257607       0.00000000       0.00000000
Si       2.51152259       1.91824417       5.22689713
10
Lattice="4.545282301976746 -3.990840412885056e-20 -2.2026666316573197e-14 3.403376885201307e-20 3.8760926182853255 2.0050992260355997e-10 5.142619599764645e-14 -5.489558399760245e-10 10.611981639283076" Properties=species:S:1:pos:R:3 unique_starting_index=72 config_type=initial n_minim_iter=5 stress="0.0035201876658768625 -2.7143385529805985e-16 -8.682398780240831e-17 -2.7143385529805985e-16 0.003318431966337444 -5.31290009122629e-13 -8.682398780240831e-17 -5.31290009122629e-13 0.013584085194627468" pbc="T T T"
Si       4.03651662       3.05054762       3.79962541
Si       4.03651662       0.82554500       6.81235623
Si       1.76387547       1.11250131       1.50636541
Si       1.76387547       2.76359131       9.10561623
Si       0.86192518       1.14891613       3.73413076
Si       0.86192518       2.72717649       6.87785088
Si       3.13456633       3.08696244       1.57186006
Si       3.13456633       0.78913018       9.04012158
Si       0.23308675       0.00000000       0.00000000
Si       2.50572790       1.93804631       5.30599082
10
Lattice="4.542005949308637 -3.987963715540546e-20 -2.201078894699278e-14 3.401692592556721e-20 3.874174383784739 2.0041071144686363e-10 5.083744168592193e-14 -5.426710387017236e-10 10.49049005654273" Properties=species:S:1:pos:R:3 unique_starting_index=72 config_type=initial n_minim_iter=6 stress="-0.0005082429944692141 -3.795092150336796e-16 1.0098699865383941e-16 -3.795092150336796e-16 -0.0003798665186186815 1.0019734925373746e-13 1.0098699865383941e-16 1.0019734925373746e-13 -0.0023201069155549935" pbc="T T T"
Si       4.03486709       3.01185946       3.71874231
Si       4.03486709       0.86231492       6.77174775
Si       1.76386412       1.07477227       1.52650272
Si       1.76386412       2.79940211       8.96398734
Si       0.85808728       1.09549940       3.71862643
Si       0.85808728       2.77867498       6.77186363
Si       3.12909026       3.03258659       1.52661860
Si       3.12909026       0.84158779       8.96387146
Si       0.23683176       0.00000000       0.00000000
Si       2.50783473       1.93708719       5.24524503
10
Lattice="4.5306521131603565 -3.977994841049592e-20 -2.1955767686785804e-14 3.408713686205549e-20 3.8821706797172473 2.0082439396767844e-10 5.114080190133504e-14 -5.459092065488975e-10 10.553089534758076" Properties=species:S:1:pos:R:3 unique_starting_index=72 config_type=initial n_minim_iter=7 stress="0.000206427106976873 -2.801629510572256e-16 2.4193393308848216e-17 -2.801629510572256e-16 0.0018821494687306507 6.889200190810762e-14 2.4193393308848216e-17 6.889200190810762e-14 0.0005480807628163082" pbc="T T T"
Si       4.02004222       2.97167933       3.71506497
Si       4.02004222       0.91049135       6.83802457
Si       1.75471616       1.03059399       1.56147980
Si       1.75471616       2.85157669       8.99160973
Si       0.86134708       1.06497578       3.75678270
Si       0.86134708       2.81719490       6.79630684
Si       3.12667314       3.00606112       1.51976207
Si       3.12667314       0.87610956       9.03332746
Si       0.23490766       0.00000000       0.00000000
Si       2.50023371       1.94108534       5.27654477
10
Lattice="4.53424012712943 -3.981145182347635e-20 -2.1973155382683506e-14 3.3920854027120835e-20 3.863232792539532 1.9984480608181018e-10 5.127710159587543e-14 -5.473639800962379e-10 10.581215469952053" Properties=species:S:1:pos:R:3 unique_starting_index=72 config_type=initial n_minim_iter=8 stress="-0.0003866009939981746 -4.0101885271687533e-16 -2.55660739093226e-16 -4.0101885271687533e-16 0.00020769147790146355 2.22101410109728e-14 -2.55660739093226e-16 2.22101410109728e-14 -0.00022273378459614863" pbc="T T T"
Si       4.01940860       2.95211697       3.72480947
Si       4.01940860       0.91111582       6.85640600
Si       1.75228853       1.02050057       1.56579827
Si       1.75228853       2.84273222       9.01541720
Si       0.87116961       1.05525288       3.75806126
Si       0.87116961       2.80797991       6.82315421
Si       3.13828967       2.98686928       1.53254648
Si       3.13828967       0.87636351       9.04866899
Si       0.22444743       0.00000000       0.00000000
Si       2.49156750       1.93161640       5.29060774
10
Lattice="4.5375241652301135 -3.9840286274233235e-20 -2.1989069996256192e-14 3.3802789836278443e-20 3.8497865079877287 1.9914927993243297e-10 5.141720492811329e-14 -5.488594065269396e-10 10.610126299549071" Properties=species:S:1:pos:R:3 unique_starting_index=72 config_type=initial n_minim_iter=9 stress="1.4713373510889852e-05 -2.1442101440719268e-16 -2.5115129053047717e-16 -2.1442101440719268e-16 -0.0004981377664895475 -3.5047111587516726e-14 -2.5115129053047717e-16 -3.5047111587516726e-14 0.0001797289023552652" pbc="T T T"
Si       4.02001421       2.93931151       3.73777005
Si       4.02001421       0.91047500       6.87235625
Si       1.75125213       1.01441825       1.56729310
Si       1.75125213       2.83536825       9.04283320
Si       0.87928212       1.04594523       3.75843568
Si       0.87928212       2.80384128       6.85169062
Si       3.14804421       2.97083849       1.54662747
Si       3.14804421       0.87894802       9.06349883
Si       0.21425798       0.00000000       0.00000000
Si       2.48302006       1.92489325       5.30506315
10
Lattice="4.535125573915218 -3.981922620620703e-20 -2.1977446302277928e-14 3.3722823019031883e-20 3.8406791182630506 1.9867839725922347e-10 5.1574995075713006e-14 -5.505431033242359e-10 10.642686867499004" Properties=species:S:1:pos:R:3 unique_starting_index=72 config_type=initial n_minim_iter=10 stress="0.0005169349103303584 -2.8902089137703826e-16 -1.7276569166943318e-16 -2.8902089137703826e-16 -0.0007304387335086023 -7.372603364366095e-14 -1.7276569166943318e-16 -7.372603364366095e-14 0.0006947524318006279" pbc="T T T"
Si       4.01733934       2.91277246       3.75641388
Si       4.01733934       0.92790666       6.88627298
Si       1.74977655       0.99243290       1.56492955
Si       1.74977655       2.84824622       9.07775732
Si       0.88814064       1.01775380       3.75435551
Si       0.88814064       2.82292532       6.88833135
Si       3.15570343       2.93809335       1.56698792
Si       3.15570343       0.90258576       9.07569895
Si       0.19659777       0.00000000       0.00000000
Si       2.46416056       1.92033956       5.32134343
10
Lattice="4.523517221372457 -3.971730276143824e-20 -2.1921191642840555e-14 3.396878398830342e-20 3.868691516611287 2.001276717826129e-10 5.1318181046216567e-14 -5.478011404005856e-10 10.58969236318352" Properties=species:S:1:pos:R:3 unique_starting_index=72 config_type=initial n_minim_iter=11 stress="-0.000641089421849524 -2.6557836153429094e-16 -4.0973990360068164e-16 -2.6557836153429094e-16 0.0002931451403184079 2.5611557473197423e-14 -4.0973990360068164e-16 2.5611557473197423e-14 -0.00020271331559954298" pbc="T T T"
Si       4.01679484       2.89217407       3.74229095
Si       4.01679484       0.97651744       6.84740141
Si       1.75503623       0.95782831       1.55255523
Si       1.75503623       2.91086320       9.03713713
Si       0.87573867       0.98470859       3.74302138
Si       0.87573867       2.88398293       6.84667098
Si       3.13749728       2.91905435       1.55182480
Si       3.13749728       0.94963717       9.03786757
Si       0.19687483       0.00000000       0.00000000
Si       2.45863344       1.93434576       5.29484618
10
Lattice="4.53919865926997 -3.985498863308957e-20 -2.1997184678472765e-14 3.3904346679992454e-20 3.8613527765548428 1.9974823559352262e-10 5.127787446291122e-14 -5.473703466535014e-10 10.581374953861665" Properties=species:S:1:pos:R:3 unique_starting_index=72 config_type=initial n_minim_iter=12 stress="0.0006754835426698422 -3.204977387896195e-16 -1.545864033838889e-16 -3.204977387896195e-16 -0.00019603211570612752 -2.6818235189805896e-14 -1.545864033838889e-16 -2.6818235189805896e-14 0.00032205335716662016" pbc="T T T"
Si       4.03254441       2.88620696       3.74364806
Si       4.03254441       0.97514582       6.83772690
Si       1.76294508       0.95553057       1.54703942
Si       1.76294508       2.90582221       9.03433553
Si       0.87930793       0.98659732       3.73844810
Si       0.87930793       2.87475546       6.84292686
Si       3.14890726       2.91727371       1.55223938
Si       3.14890726       0.94407907       9.02913558
Si       0.19284105       0.00000000       0.00000000
Si       2.46244038       1.93067639       5.29068748
10
Lattice="4.534289876122436 -3.9811888623927817e-20 -2.1973396468802253e-14 3.394055385055783e-20 3.865476396831082 1.9996166581209392e-10 5.1275125431041756e-14 -5.473406800738622e-10 10.580807681187526" Properties=species:S:1:pos:R:3 unique_starting_index=72 config_type=initial n_minim_iter=13 stress="0.00026931145188536284 -2.6725684962983437e-16 -2.9635285283472833e-16 -2.6725684962983437e-16 -7.957496188531438e-05 -2.9193774773911135e-14 -2.9635285283472833e-16 -2.9193774773911135e-14 0.00048474311429208154" pbc="T T T"
Si       4.03051107       2.88180703       3.74038423
Si       4.03051107       0.98366937       6.84042345
Si       1.76336613       0.94906883       1.55001961
Si       1.76336613       2.91640757       9.03078807
Si       0.87858666       0.97922198       3.74189647
Si       0.87858666       2.88625441       6.83891121
Si       3.14573160       2.91196018       1.54850737
Si       3.14573160       0.95351622       9.03230031
Si       0.18751817       0.00000000       0.00000000
Si       2.45466311       1.93273820       5.29040384
