2
Lattice="4.390155367372755 2.0400905003418075e-17 -1.0452804262952551e-16 2.0400905003417835e-17 4.390155367372755 2.5529891366123104e-16 2.1950776836863777 2.1950776836863777 1.1938740301357869" Properties=species:S:1:pos:R:3:forces:R:3 cutoff=-1.0 nneightol=1.2 n_minim_iter=1 energy=-324.647548309827 stress="-0.3512487814502562 1.4484243522761051e-16 -4.650791953886844e-17 1.4484243522761051e-16 -0.351248781450258 -2.6508345987897496e-16 -4.650791953886844e-17 -2.6508345987897496e-16 -0.3335181385635665" free_energy=-324.647548309827 pbc="T T T"
Si      -0.00000000      -1.09753884      -0.29846851      -0.00000000      -0.00000000      -0.00000000
Si      -0.00000000       1.09753884       0.29846851       0.00000000       0.00000000       0.00000000
2
Lattice="4.398692760915576 2.077967207557618e-17 -1.7412278023763565e-16 2.077967207557608e-17 4.398692760915577 3.7628712992417713e-16 2.199346380457788 2.1993463804577886 1.1892441631997466" Properties=species:S:1:pos:R:3:forces:R:3 cutoff=-1.0 nneightol=1.2 n_minim_iter=2 energy=-324.6485370087312 stress="-0.34644407706400493 2.0279825674028433e-17 4.651534236933795e-18 2.0279825674028433e-17 -0.3464440770640025 -9.314149075332432e-16 4.651534236933795e-18 -9.314149075332432e-16 -0.34210784096213176" free_energy=-324.6485370087312 pbc="T T T"
Si      -0.00000000      -1.09967319      -0.29731104      -0.00000000      -0.00000000       0.00000000
Si      -0.00000000       1.09967319       0.29731104       0.00000000       0.00000000      -0.00000000
