2
Lattice="4.686120925022295 2.783740323169275e-17 1.2092223791421983e-16 2.783740323169243e-17 4.686120925022295 -2.4638477212669943e-16 2.3430604625111475 2.3430604625111475 1.2923250787019527" Properties=species:S:1:pos:R:3:forces:R:3 cutoff=-1.0 nneightol=1.2 n_minim_iter=1 energy=-325.6824616049826 stress="-0.04144498377608769 -1.9730274538076043e-17 -1.5747105752318206e-17 -1.9730274538076043e-17 -0.041444983776087706 1.3177097733600996e-16 -1.5747105752318206e-17 1.3177097733600996e-16 -0.03780892414398514" free_energy=-325.6824616049826 pbc="T T T"
Si      -0.00000000      -1.17153023      -0.32308127       0.00000000       0.00000000      -0.00000000
Si      -0.00000000       1.17153023       0.32308127      -0.00000000      -0.00000000       0.00000000
