4
Lattice="1.7837669122339423 -3.0895749208494427 -7.804061864477072e-18 1.7837669122339423 3.0895749208494427 7.80406186447709e-18 -2.133927111799421e-32 -1.3405966018691539e-17 5.8898428376555145" Properties=species:S:1:pos:R:3:forces:R:3 cutoff=-1.0 nneightol=1.2 n_minim_iter=3 energy=-651.3316212397718 stress="-0.2048323233822269 2.9064291743018003e-16 -1.8888141477097982e-16 2.9064291743018003e-16 -0.20483232338222704 -5.4857236690449194e-17 -1.8888141477097982e-16 -5.4857236690449194e-17 -0.2048769309861634" free_energy=-651.3316212397718 pbc="T T T"
Si       1.78376691       1.02985831       0.38026460       0.00000000       0.00000000      -0.00062788
Si       1.78376691      -1.02985831       3.32518601       0.00000000       0.00000000      -0.00062788
Si       1.78376691       1.02985831       2.56465682      -0.00000000      -0.00000000       0.00062788
Si       1.78376691      -1.02985831      -0.38026460      -0.00000000      -0.00000000       0.00062788
