4
Lattice="2.0665161887374692 -3.579311033556892 -8.440449977981977e-18 2.06651618873747 3.579311033556892 8.440449977981965e-18 1.1179010114817637e-32 -1.5923352000362794e-17 6.856813170895339" Properties=species:S:1:pos:R:3:forces:R:3 cutoff=-1.0 nneightol=1.2 n_minim_iter=2 energy=-651.926196684618 stress="0.06679750677944063 -9.082591169693126e-18 7.522762937538535e-18 -9.082591169693126e-18 0.06679750677944085 -3.672624434429963e-18 7.522762937538535e-18 -3.672624434429963e-18 0.06712520949400919" free_energy=-651.926196684618 pbc="T T T"
Si       2.06651619       1.19310368       0.44351794       0.00000000      -0.00000000       0.00356454
Si       2.06651619      -1.19310368       3.87192453       0.00000000       0.00000000       0.00356454
Si       2.06651619       1.19310368       2.98488864      -0.00000000      -0.00000000      -0.00356454
Si       2.06651619      -1.19310368      -0.44351794      -0.00000000       0.00000000      -0.00356454
