4
Lattice="1.9551418261578652 -3.3864049789084203 -7.693424855380661e-18 1.9551418261578652 3.3864049789084203 7.693424855380647e-18 3.8247204877799915e-32 -1.608189101058625e-17 6.434616862564062" Properties=species:S:1:pos:R:3:forces:R:3 cutoff=-1.0 nneightol=1.2 n_minim_iter=2 energy=-652.6032318873524 stress="0.021870485551436388 -2.1571154028021173e-17 1.1695261712071436e-17 -2.1571154028021173e-17 0.021870485551436378 -2.07933054512692e-17 1.1695261712071436e-17 -2.07933054512692e-17 0.021677769089314226" free_energy=-652.6032318873524 pbc="T T T"
Si       1.95514183       1.12880166       0.40500430      -0.00000000       0.00000000      -0.00151873
Si       1.95514183      -1.12880166       3.62231273      -0.00000000       0.00000000      -0.00151873
Si       1.95514183       1.12880166       2.81230413       0.00000000      -0.00000000       0.00151873
Si       1.95514183      -1.12880166      -0.40500430      -0.00000000      -0.00000000       0.00151873
