4
Lattice="1.8024446526753162 -3.121925716264486 -7.495434062976783e-18 1.8024446526753162 3.121925716264486 7.495434062976795e-18 -1.0625115013833899e-33 -1.2329481681829965e-17 5.94867167940001" Properties=species:S:1:pos:R:3:forces:R:3 cutoff=-1.0 nneightol=1.2 n_minim_iter=3 energy=-651.7054680239222 stress="-0.16445078984410427 -4.904599231634288e-16 -1.1742752125704958e-16 -4.904599231634288e-16 -0.16445078984410336 1.5426194749341677e-16 -1.1742752125704958e-16 1.5426194749341677e-16 -0.16448289960734447" free_energy=-651.7054680239222 pbc="T T T"
Si       1.80244465       1.04064191       0.38130809      -0.00000000      -0.00000000      -0.00051906
Si       1.80244465      -1.04064191       3.35564393       0.00000000       0.00000000      -0.00051906
Si       1.80244465       1.04064191       2.59302775      -0.00000000      -0.00000000       0.00051906
Si       1.80244465      -1.04064191      -0.38130809       0.00000000       0.00000000       0.00051906
