4
Lattice="1.8744987223935763 -3.2467270259086236 -7.608301086053899e-18 1.8744987223935763 3.2467270259086236 7.608301086053899e-18 -2.736552059869639e-34 -1.4440905998504112e-17 6.166821277238362" Properties=species:S:1:pos:R:3:forces:R:3 cutoff=-1.0 nneightol=1.2 n_minim_iter=2 energy=-652.5181908675493 stress="-0.0471997465783427 -1.589453454696297e-16 8.453778597172103e-17 -1.589453454696297e-16 -0.047199746578343284 -9.730122477392891e-17 8.453778597172103e-17 -9.730122477392891e-17 -0.0477574117070906" free_energy=-652.5181908675493 pbc="T T T"
Si       1.87449872       1.08224234       0.38611946      -0.00000000       0.00000000       0.00258096
Si       1.87449872      -1.08224234       3.46953010       0.00000000      -0.00000000       0.00258096
Si       1.87449872       1.08224234       2.69729118      -0.00000000       0.00000000      -0.00258096
Si       1.87449872      -1.08224234      -0.38611946       0.00000000      -0.00000000      -0.00258096
