4
Lattice="2.0274516189401135 -3.5116492138920528 -8.208846675395041e-18 2.0274516189401144 3.5116492138920528 8.208846675395029e-18 1.1987628577966061e-32 -1.5382849710133552e-17 6.696174992915643" Properties=species:S:1:pos:R:3:forces:R:3 cutoff=-1.0 nneightol=1.2 n_minim_iter=2 energy=-652.2917820422175 stress="0.05220355213525232 -2.7247773509079377e-17 -9.485472087007718e-18 -2.7247773509079377e-17 0.05220355213525201 -1.5688755867335886e-17 -9.485472087007718e-18 -1.5688755867335886e-17 0.05273782486995859" free_energy=-652.2917820422175 pbc="T T T"
Si       2.02745162       1.17054974       0.42723771      -0.00000000      -0.00000000       0.00950149
Si       2.02745162      -1.17054974       3.77532521       0.00000000       0.00000000       0.00950149
Si       2.02745162       1.17054974       2.92084978      -0.00000000      -0.00000000      -0.00950149
Si       2.02745162      -1.17054974      -0.42723771       0.00000000      -0.00000000      -0.00950149
