4
Lattice="1.9400068216218473 -3.360190382079251 -8.01613149324627e-18 1.9400068216218473 3.360190382079251 8.016131493246248e-18 6.592854773540542e-34 -1.4694625846791113e-17 6.3798031436418" Properties=species:S:1:pos:R:3:forces:R:3 cutoff=-1.0 nneightol=1.2 n_minim_iter=2 energy=-652.6373339844314 stress="0.01185983910011131 4.541295584846563e-18 -7.224316238777629e-17 4.541295584846563e-18 0.011859839100111328 -2.3672948956124122e-17 -7.224316238777629e-17 -2.3672948956124122e-17 0.011266487676057245" free_energy=-652.6373339844314 pbc="T T T"
Si       1.94000682       1.12006346       0.40006568      -0.00000000       0.00000000       0.00260096
Si       1.94000682      -1.12006346       3.58996725       0.00000000       0.00000000       0.00260096
Si       1.94000682       1.12006346       2.78983589      -0.00000000      -0.00000000      -0.00260096
Si       1.94000682      -1.12006346      -0.40006568       0.00000000      -0.00000000      -0.00260096
