4
Lattice="1.802896370111124 -3.122708113813969 -6.983628011849791e-18 1.8028963701111234 3.122708113813969 6.983628011849795e-18 4.541114553905745e-33 -1.4803875658894062e-17 5.9456911619039206" Properties=species:S:1:pos:R:3:forces:R:3 cutoff=-1.0 nneightol=1.2 n_minim_iter=3 energy=-652.0020012115951 stress="-0.12862317060967302 -2.452299615817144e-16 -1.2018216124006934e-16 -2.452299615817144e-16 -0.12862317060967451 8.402332076728127e-17 -1.2018216124006934e-16 8.402332076728127e-17 -0.12864151466234752" free_energy=-652.0020012115951 pbc="T T T"
Si       1.80289637       1.04090270       0.37838160      -0.00000000       0.00000000      -0.00034785
Si       1.80289637      -1.04090270       3.35122719       0.00000000      -0.00000000      -0.00034785
Si       1.80289637       1.04090270       2.59446398      -0.00000000       0.00000000       0.00034785
Si       1.80289637      -1.04090270      -0.37838160       0.00000000      -0.00000000       0.00034785
