4
Lattice="2.065526306499313 -3.577596507226899 -8.139953603601357e-18 2.0655263064993132 3.577596507226899 8.13995360360134e-18 2.2346258347944735e-32 -1.6752486087292616e-17 6.863386860082137" Properties=species:S:1:pos:R:3:forces:R:3 cutoff=-1.0 nneightol=1.2 n_minim_iter=3 energy=-651.7863907110597 stress="0.07087693309286063 -7.266072935754501e-17 -3.903843130383098e-17 -7.266072935754501e-17 0.07087693309286101 -5.890895731663132e-18 -3.903843130383098e-17 -5.890895731663132e-18 0.07087546189275495" free_energy=-651.7863907110597 pbc="T T T"
Si       2.06552631       1.19253217       0.44595669      -0.00000000       0.00000000      -0.00003591
Si       2.06552631      -1.19253217       3.87765012       0.00000000       0.00000000      -0.00003591
Si       2.06552631       1.19253217       2.98573674      -0.00000000      -0.00000000       0.00003591
Si       2.06552631      -1.19253217      -0.44595669       0.00000000      -0.00000000       0.00003591
