4
Lattice="1.7463299268931178 -3.024732160156922 -2.9549461913149537e-18 1.7463299268931178 3.024732160156922 2.9549461913148786e-18 -7.000240647735632e-32 -2.3479519730354e-17 5.761009576714696" Properties=species:S:1:pos:R:3:forces:R:3 cutoff=-1.0 nneightol=1.2 n_minim_iter=3 energy=-650.8715264536318 stress="-0.24892704206894384 -3.2697328210895254e-16 -3.3192698923148407e-16 -3.2697328210895254e-16 -0.24892704206894467 -1.9378001062910613e-16 -3.3192698923148407e-16 -1.9378001062910613e-16 -0.2489692541606659" free_energy=-650.8715264536318 pbc="T T T"
Si       1.74632993       1.00824405       0.37394754       0.00000000       0.00000000       0.00113157
Si       1.74632993      -1.00824405       3.25445232       0.00000000       0.00000000       0.00113157
Si       1.74632993       1.00824405       2.50655725      -0.00000000      -0.00000000      -0.00113157
Si       1.74632993      -1.00824405      -0.37394754      -0.00000000      -0.00000000      -0.00113157
