8
Lattice="5.608469841591087 -3.899615043594653e-16 1.384446812510034e-48 -2.8042349207955435 4.857077359176769 -1.114514582540967e-47 -1.0775013401552865e-48 9.393958530529061e-48 4.3650169265647465" Properties=species:S:1:pos:R:3:tags:I:1 spacegroup="P 1" unit_cell=conventional n_minim_iter=1 energy=-9783.10553646751 free_energy=-9783.10553646751 pbc="T T T"
Ti       2.80423493       3.25886020       1.09125423        0
Ti      -1.42013404       4.05797121       3.27376269        1
Ti       1.42013405       4.05797121       3.27376269        2
Ti       1.38410088       0.79911587       1.09125423        3
Ti       4.22436897       0.79911587       1.09125423        4
Ti       0.00000000       1.59822689       3.27376269        5
Al       0.00000000       3.23805643       1.09125423        6
Al       2.80423493       1.61903065       3.27376269        7
