8
Lattice="6.160562037387976 -4.2044432606631294e-16 -2.01254937882606e-49 -3.0802810186939875 5.335203225968005 -4.899613537486302e-48 1.5642056328530128e-49 4.4875324949311304e-48 4.788148773792401" Properties=species:S:1:pos:R:3:tags:I:1 spacegroup="P 1" unit_cell=conventional n_minim_iter=1 energy=-9783.095460785491 free_energy=-9783.095460785491 pbc="T T T"
Ti       3.08028102       3.62724127       1.19703719        0
Ti      -1.60113794       4.48122492       3.59111158        1
Ti       1.60113796       4.48122492       3.59111158        2
Ti       1.47914307       0.85398899       1.19703719        3
Ti       4.68141897       0.85398899       1.19703719        4
Ti       0.00000001       1.70797264       3.59111158        5
Al       0.00000001       3.55680749       1.19703719        6
Al       3.08028102       1.77840642       3.59111158        7
8
Lattice="6.144515056325634 -4.3626084015465935e-16 -1.5295525144734536e-49 -3.0722575281628166 5.32130613271397 -4.862907255224914e-48 1.5745284569036906e-49 4.489864993179047e-48 4.8131908359741855" Properties=species:S:1:pos:R:3:tags:I:1 spacegroup="P 1" unit_cell=conventional n_minim_iter=2 stress="0.0894921766800357 1.312212495354712e-16 7.340312896730223e-18 1.312212495354712e-16 0.08949217668003595 -6.842690422869206e-17 7.340312896730223e-18 -6.842690422869206e-17 0.09049160168546654" pbc="T T T"
Ti       3.07225753       3.61894528       1.20329771        0
Ti      -1.59796516       4.47012837       3.60989312        1
Ti       1.59796518       4.47012837       3.60989312        2
Ti       1.47429236       0.85118842       1.20329771        3
Ti       4.67022270       0.85118842       1.20329771        4
Ti       0.00000001       1.70237151       3.60989312        5
Al       0.00000001       3.54754275       1.20329771        6
Al       3.07225753       1.77377404       3.60989312        7
8
Lattice="6.148709177557435 -4.418951050592982e-16 -1.1053252416424942e-48 -3.074354588778717 5.3249383482472625 -4.293844342772764e-48 9.299553592904312e-51 3.20140105762016e-48 4.806626784775683" Properties=species:S:1:pos:R:3:tags:I:1 spacegroup="P 1" unit_cell=conventional n_minim_iter=3 stress="0.08743123214982246 -5.754693923887059e-17 1.0152426869316937e-16 -5.754693923887059e-17 0.08743123214982344 -2.247980150727334e-17 1.0152426869316937e-16 -2.247980150727334e-17 0.08769443675945643" pbc="T T T"
Ti       3.07435459       3.63141044       1.20165669        0
Ti      -1.60771177       4.47817706       3.60497009        1
Ti       1.60771178       4.47817706       3.60497009        2
Ti       1.46664282       0.84677195       1.20165669        3
Ti       4.68206637       0.84677195       1.20165669        4
Ti       0.00000001       1.69353857       3.60497009        5
Al       0.00000001       3.54996423       1.20165669        6
Al       3.07435459       1.77498478       3.60497009        7
8
Lattice="6.149730229837295 -4.3817918445275156e-16 -1.295824596313164e-48 -3.074865114918647 5.325822605460213 -3.341648217304183e-48 3.0521711258325946e-49 4.226052648372701e-48 4.805030809138976" Properties=species:S:1:pos:R:3:tags:I:1 spacegroup="P 1" unit_cell=conventional n_minim_iter=4 stress="0.08713017068988922 -1.691956690843782e-16 -8.829203809915305e-17 -1.691956690843782e-16 0.08713017068988965 -6.381022462410655e-17 -8.829203809915305e-17 -6.381022462410655e-17 0.08711278618470196" pbc="T T T"
Ti       3.07486512       3.63372408       1.20125770        0
Ti      -1.60946018       4.47977601       3.60377310        1
Ti       1.60946019       4.47977601       3.60377310        2
Ti       1.46540493       0.84605726       1.20125770        3
Ti       4.68432531       0.84605726       1.20125770        4
Ti       0.00000001       1.69210919       3.60377310        5
Al       0.00000001       3.55055373       1.20125770        6
Al       3.07486512       1.77527953       3.60377310        7
