8
Lattice="6.194950458459135 -4.414012059330026e-16 -1.3053530605399011e-48 -3.0974752292295666 5.364984472211665 -3.366220042524597e-48 1.0199246858449638e-48 3.6259040680819207e-48 4.840363186918741" Properties=species:S:1:pos:R:3:tags:I:1 spacegroup="P 1" unit_cell=conventional n_minim_iter=1 energy=-9782.759124731143 free_energy=-9782.759124731143 pbc="T T T"
Ti       3.09747523       3.66044360       1.21009079        0
Ti      -1.62129488       4.51271672       3.63027239        1
Ti       1.62129489       4.51271672       3.63027239        2
Ti       1.47618035       0.85227849       1.21009079        3
Ti       4.71877012       0.85227849       1.21009079        4
Ti       0.00000001       1.70455161       3.63027239        5
Al       0.00000001       3.57666168       1.21009079        6
Al       3.09747523       1.78833353       3.63027239        7
8
Lattice="6.179726733879017 -4.4972583902730805e-16 -1.2061345362579125e-48 -3.0898633669395075 5.351800339985064 -4.20103213518338e-48 1.3954915625730966e-48 3.178387825303643e-48 4.864240981081163" Properties=species:S:1:pos:R:3:tags:I:1 spacegroup="P 1" unit_cell=conventional n_minim_iter=2 stress="0.10750336490218292 -1.8681912556426067e-16 9.31226782806197e-18 -1.8681912556426067e-16 0.10750336490218183 -3.838646294033008e-17 9.31226782806197e-18 -3.838646294033008e-17 0.10873978598169128" pbc="T T T"
Ti       3.08986337       3.65269265       1.21606024        0
Ti      -1.61838830       4.50224917       3.64818073        1
Ti       1.61838831       4.50224917       3.64818073        2
Ti       1.47147507       0.84956188       1.21606024        3
Ti       4.70825167       0.84956188       1.21606024        4
Ti       0.00000001       1.69911841       3.64818073        5
Al       0.00000001       3.56787225       1.21606024        6
Al       3.08986337       1.78393880       3.64818073        7
8
Lattice="6.18498780465116 -4.563466973514877e-16 -1.1951217207469193e-48 -3.0924939023255793 5.356356560924848 -5.0504287382720854e-48 1.401256016481616e-48 3.3461593296767773e-48 4.855969264883189" Properties=species:S:1:pos:R:3:tags:I:1 spacegroup="P 1" unit_cell=conventional n_minim_iter=3 stress="0.10476916240246907 -8.214154825783717e-18 9.259944110184608e-19 -8.214154825783717e-18 0.10476916240246764 -9.501009075830728e-18 9.259944110184608e-19 -9.501009075830728e-18 0.1051793122399" pbc="T T T"
Ti       3.09249391       3.66740874       1.21399231        0
Ti      -1.62981753       4.51188533       3.64197695        1
Ti       1.62981754       4.51188533       3.64197695        2
Ti       1.46267637       0.84448195       1.21399231        3
Ti       4.72231145       0.84448195       1.21399231        4
Ti       0.00000001       1.68895855       3.64197695        5
Al       0.00000001       3.57090973       1.21399231        6
Al       3.09249391       1.78545755       3.64197695        7
8
Lattice="6.18655764909923 -4.646497577344876e-16 -1.1245712480882774e-48 -3.093278824549614 5.357716086096867 -5.1447699280938496e-48 1.4470547369680732e-48 3.49836508251876e-48 4.85350516460754" Properties=species:S:1:pos:R:3:tags:I:1 spacegroup="P 1" unit_cell=conventional n_minim_iter=4 stress="0.10431439558707338 8.682669962217497e-17 -3.76680713118844e-17 8.682669962217497e-17 0.10431439558707314 2.7692120282666304e-17 -3.76680713118844e-17 2.7692120282666304e-17 0.10428804817918845" pbc="T T T"
Ti       3.09327883       3.67064237       1.21337629        0
Ti      -1.63222548       4.51418191       3.64012887        1
Ti       1.63222549       4.51418191       3.64012887        2
Ti       1.46105334       0.84354490       1.21337629        3
Ti       4.72550432       0.84354490       1.21337629        4
Ti       0.00000001       1.68708444       3.64012887        5
Al       0.00000001       3.57181609       1.21337629        6
Al       3.09327883       1.78591072       3.64012887        7
