8
Lattice="5.721582494039339 -3.9417442997809057e-16 1.1040617205542119e-48 -2.860791247019669 4.955035789686394 -8.69665178325677e-48 -8.569256728337503e-49 7.299448445632635e-48 4.4408485840060665" Properties=species:S:1:pos:R:3:tags:I:1 spacegroup="P 1" unit_cell=conventional n_minim_iter=1 energy=-9783.501387116417 free_energy=-9783.501387116417 pbc="T T T"
Ti       2.86079125       3.32615195       1.11021214        0
Ti      -1.45013216       4.14059635       3.33063644        1
Ti       1.45013217       4.14059635       3.33063644        2
Ti       1.41065908       0.81444936       1.11021214        3
Ti       4.31092342       0.81444936       1.11021214        4
Ti       0.00000000       1.62889376       3.33063644        5
Al       0.00000000       3.30336215       1.11021214        6
Al       2.86079125       1.65168356       3.33063644        7
8
Lattice="5.71610266215222 -3.9169843660218865e-16 1.4109581232571784e-48 -2.8580513310761098 4.950290116063682 -8.072301952677236e-48 -1.0181726327377195e-48 6.668804420929303e-48 4.449367244264916" Properties=species:S:1:pos:R:3:tags:I:1 spacegroup="P 1" unit_cell=conventional n_minim_iter=2 stress="-0.0474695611311816 -4.5451198464884004e-17 1.9734035364852088e-17 -4.5451198464884004e-17 -0.04746956113118146 1.6938844246025666e-16 1.9734035364852088e-17 1.6938844246025666e-16 -0.047378256372600326" pbc="T T T"
Ti       2.85805134       3.32276790       1.11234181        0
Ti      -1.44857145       4.13653148       3.33702543        1
Ti       1.44857146       4.13653148       3.33702543        2
Ti       1.40947988       0.81376854       1.11234181        3
Ti       4.30662279       0.81376854       1.11234181        4
Ti       0.00000000       1.62753213       3.33702543        5
Al       0.00000000       3.30019837       1.11234181        6
Al       2.85805134       1.65010166       3.33702543        7
8
Lattice="5.716351381128688 -3.974625962149871e-16 1.4110772942207348e-48 -2.8581756905643436 4.950505513015707 -1.1359527916064747e-47 -3.40985496435733e-48 1.4124995257646131e-47 4.448980067928791" Properties=species:S:1:pos:R:3:tags:I:1 spacegroup="P 1" unit_cell=conventional n_minim_iter=3 stress="-0.047415235131634835 6.0560075821925535e-16 -4.4165941921464975e-17 6.0560075821925535e-16 -0.04741523513163478 -1.5237244398762853e-17 -4.4165941921464975e-17 -1.5237244398762853e-17 -0.04741260360600613" pbc="T T T"
Ti       2.85817570       3.32154590       1.11224501        0
Ti      -1.44745098       4.13602818       3.33673505        1
Ti       1.44745099       4.13602818       3.33673505        2
Ti       1.41072471       0.81448724       1.11224501        3
Ti       4.30562668       0.81448724       1.11224501        4
Ti       0.00000000       1.62896953       3.33673505        5
Al       0.00000000       3.30034196       1.11224501        6
Al       2.85817570       1.65017346       3.33673505        7
