8
Lattice="5.750847869999999 0.0 0.0 -2.8754239349999997 4.9803803487196285 0.0 0.0 0.0 4.65528205" Properties=species:S:1:pos:R:3:tags:I:1 spacegroup="P 1" unit_cell=conventional n_minim_iter=1 energy=-9783.588284894939 free_energy=-9783.588284894939 pbc="T T T"
Ti       2.87542394       3.28996953       1.16382051        0
Ti      -1.41148090       4.13517743       3.49146154        1
Ti       1.41148091       4.13517743       3.49146154        2
Ti       1.46394303       0.84521289       1.16382051        3
Ti       4.28690485       0.84521289       1.16382051        4
Ti       0.00000000       1.69042079       3.49146154        5
Al       0.00000000       3.32025855       1.16382051        6
Al       2.87542394       1.66013177       3.49146154        7
8
Lattice="5.8992068642981526 2.666778676849092e-17 0.0 -2.9496034321490763 5.10886300666174 0.0 0.0 0.0 4.6149243788688095" Properties=species:S:1:pos:R:3:tags:I:1 spacegroup="P 1" unit_cell=conventional n_minim_iter=2 stress="-7.258844360161115e-05 3.0668039035273e-16 -1.399560120013456e-16 3.0668039035273e-16 -7.258844360094702e-05 -7.446688513426233e-17 -1.399560120013456e-16 -7.446688513426233e-17 0.014096652157819198" pbc="T T T"
Ti       2.94960344       3.37863322       1.15373109        0
Ti      -1.45117605       4.24375067       3.46119328        1
Ti       1.45117606       4.24375067       3.46119328        2
Ti       1.49842739       0.86512257       1.15373109        3
Ti       4.40077949       0.86512257       1.15373109        4
Ti       0.00000001       1.73024002       3.46119328        5
Al       0.00000001       3.40591378       1.15373109        6
Al       2.94960344       1.70295945       3.46119328        7
8
Lattice="5.927162393832844 -1.4490696775463898e-16 -7.89830371535139e-49 -2.963581196916422 5.13307320541503 1.94293218519683e-48 6.6854083132185244e-49 -1.1033852814120581e-48 4.527694463734734" Properties=species:S:1:pos:R:3:tags:I:1 spacegroup="P 1" unit_cell=conventional n_minim_iter=3 stress="-0.0012918105022635324 1.2342657861914005e-16 1.2576612638030972e-16 1.2342657861914005e-16 -0.0012918105022634808 -1.152937342384596e-16 1.2576612638030972e-16 -1.152937342384596e-16 -0.011723144124912451" pbc="T T T"
Ti       2.96358120       3.40200270       1.13192361        0
Ti      -1.46442571       4.26754052       3.39577085        1
Ti       1.46442572       4.26754052       3.39577085        2
Ti       1.49915548       0.86554296       1.13192361        3
Ti       4.42800692       0.86554296       1.13192361        4
Ti       0.00000001       1.73108078       3.39577085        5
Al       0.00000001       3.42205394       1.13192361        6
Al       2.96358120       1.71102954       3.39577085        7
8
Lattice="6.014266443891256 -1.6060562621490097e-16 -7.638371284460713e-49 -3.007133221945628 5.208507525538125 1.4636572868622742e-48 7.378947502763014e-49 -1.1945053968970603e-48 4.536739213439734" Properties=species:S:1:pos:R:3:tags:I:1 spacegroup="P 1" unit_cell=conventional n_minim_iter=4 stress="0.018572959898480828 -1.8621382525954317e-16 8.653558805030476e-17 -1.8621382525954317e-16 0.018572959898481203 -3.3547368083458064e-17 8.653558805030476e-17 -3.3547368083458064e-17 0.0019402165965134183" pbc="T T T"
Ti       3.00713323       3.49754397       1.13418480        0
Ti      -1.52539080       4.35302835       3.40255441        1
Ti       1.52539081       4.35302835       3.40255441        2
Ti       1.48174243       0.85548960       1.13418480        3
Ti       4.53252403       0.85548960       1.13418480        4
Ti       0.00000001       1.71097398       3.40255441        5
Al       0.00000001       3.47234356       1.13418480        6
Al       3.00713323       1.73617439       3.40255441        7
8
Lattice="5.949141618506916 -3.345488878079558e-16 -8.552905772303123e-49 -2.974570809253458 5.152107772338264 1.6339055246903593e-48 6.0064123375483846e-49 -1.467949615473421e-48 4.557338163509627" Properties=species:S:1:pos:R:3:tags:I:1 spacegroup="P 1" unit_cell=conventional n_minim_iter=5 stress="-0.001271207411945885 5.3160393526237565e-17 -6.910538944085202e-17 5.3160393526237565e-17 -0.0012712074119450966 -2.9969547253826345e-17 -6.910538944085202e-17 -2.9969547253826345e-17 -0.0018119184471173503" pbc="T T T"
Ti       2.97457081       3.47169498       1.13933454        0
Ti      -1.51928617       4.31190396       3.41800362        1
Ti       1.51928618       4.31190396       3.41800362        2
Ti       1.45528464       0.84021413       1.13933454        3
Ti       4.49385699       0.84021413       1.13933454        4
Ti       0.00000001       1.68042310       3.41800362        5
Al       0.00000001       3.43474367       1.13933454        6
Al       2.97457081       1.71737441       3.41800362        7
8
Lattice="5.950592987265932 -4.304198436338662e-16 -8.251766465944974e-49 -2.975296493632966 5.153364694553831 1.628999183296482e-48 6.202675581632116e-49 -1.5088617646139515e-48 4.561790032938651" Properties=species:S:1:pos:R:3:tags:I:1 spacegroup="P 1" unit_cell=conventional n_minim_iter=6 stress="-0.00014221762551059594 7.59293650545758e-17 2.326704974830968e-16 7.59293650545758e-17 -0.000142217625508615 -1.2116459183711002e-16 2.326704974830968e-16 -1.2116459183711002e-16 0.0002915828245610897" pbc="T T T"
Ti       2.97529650       3.47048463       1.14044751        0
Ti      -1.51787513       4.31192724       3.42134252        1
Ti       1.51787514       4.31192724       3.42134252        2
Ti       1.45742136       0.84144777       1.14044751        3
Ti       4.49317164       0.84144777       1.14044751        4
Ti       0.00000001       1.68289038       3.42134252        5
Al       0.00000001       3.43558162       1.14044751        6
Al       2.97529650       1.71779339       3.42134252        7
