8
Lattice="6.094594929082384 -4.425223794711205e-16 1.1933966194750207e-48 -3.0472974645411917 5.278074034361164 -2.4679258681108972e-48 -6.281631355133988e-49 3.2735201159889464e-49 4.67492401640209" Properties=species:S:1:pos:R:3:tags:I:1 spacegroup="P 1" unit_cell=conventional n_minim_iter=4 stress="0.03633979725245225 -7.490037980600706e-17 -2.7190671182754008e-18 -7.490037980600706e-17 0.036339797252452295 -8.073448802108615e-18 -2.7190671182754008e-18 -8.073448802108615e-18 0.036385468150452516" pbc="T T T"
Ti       3.04729747       3.56873223       1.16873100        0
Ti      -1.56695946       4.42340577       3.50619301        1
Ti       1.56695947       4.42340577       3.50619301        2
Ti       1.48033800       0.85467882       1.16873100        3
Ti       4.61425694       0.85467882       1.16873100        4
Ti       0.00000001       1.70935237       3.50619301        5
Al       0.00000001       3.51872131       1.16873100        6
Al       3.04729747       1.75936329       3.50619301        7
