8
Lattice="5.553711024690373 -3.3741408205190763e-16 -2.7676633544129797e-49 -2.7768555123451857 4.809654832659571 -1.4614752645655924e-47 -2.4798161584803913e-48 2.1472743560622045e-47 4.0587371798007075" Properties=species:S:1:pos:R:3:tags:I:1 spacegroup="P 1" unit_cell=conventional n_minim_iter=3 stress="-0.10624085488765508 6.490440536739679e-17 4.3431724434580835e-17 6.490440536739679e-17 -0.10624085488765454 -1.5967781620826513e-16 4.3431724434580835e-17 -1.5967781620826513e-16 -0.10703139096323011" pbc="T T T"
Ti       2.77685552       3.25518969       1.01468429        0
Ti      -1.43064503       4.03242467       3.04405288        1
Ti       1.43064504       4.03242467       3.04405288        2
Ti       1.34621048       0.77723979       1.01468429        3
Ti       4.20750055       0.77723979       1.01468429        4
Ti       0.00000000       1.55447477       3.04405288        5
Al       0.00000000       3.20644137       1.01468429        6
Al       2.77685552       1.60322309       3.04405288        7
