8
Lattice="6.275682162490442 -4.2895164554180525e-16 1.527546836736054e-48 -3.1378410812452207 5.434900178793581 -1.5135727009403234e-48 -8.615718267715661e-49 -1.1896105914798428e-48 4.921700133894043" Properties=species:S:1:pos:R:3:tags:I:1 spacegroup="P 1" unit_cell=conventional n_minim_iter=4 stress="0.13258165757658325 2.8324698414227225e-17 -8.856611343906983e-17 2.8324698414227225e-17 0.13258165757658266 -8.109016781162175e-17 -8.856611343906983e-17 -8.109016781162175e-17 0.1325501655474028" pbc="T T T"
Ti       3.13784109       3.76501876       1.23042503        0
Ti      -1.69167664       4.59996219       3.69127510        1
Ti       1.69167665       4.59996219       3.69127510        2
Ti       1.44616445       0.83494887       1.23042503        3
Ti       4.82951773       0.83494887       1.23042503        4
Ti       0.00000001       1.66989230       3.69127510        5
Al       0.00000001       3.62327223       1.23042503        6
Al       3.13784109       1.81163883       3.69127510        7
