8
Lattice="6.080329424462438 -4.2190347633725204e-16 1.1894149460670166e-48 -3.0401647122312188 5.265719744962484 -2.4538844456835093e-48 -9.194594413085026e-49 1.665900305335271e-48 4.6968861104950514" Properties=species:S:1:pos:R:3:tags:I:1 spacegroup="P 1" unit_cell=conventional n_minim_iter=3 stress="0.052715262920901756 -3.175956086881495e-16 8.912897292084973e-18 -3.175956086881495e-16 0.052715262920901826 -5.326555097703667e-17 8.912897292084973e-18 -5.326555097703667e-17 0.05274757222209675" pbc="T T T"
Ti       3.04016472       3.56887489       1.17422153        0
Ti      -1.57064939       4.41729995       3.52266458        1
Ti       1.57064940       4.41729995       3.52266458        2
Ti       1.46951532       0.84843033       1.17422153        3
Ti       4.61081412       0.84843033       1.17422153        4
Ti       0.00000001       1.69685539       3.52266458        5
Al       0.00000001       3.51048510       1.17422153        6
Al       3.04016472       1.75524519       3.52266458        7
