8
Lattice="5.608469841591089 -3.899615043594655e-16 1.3844468125100342e-48 -2.8042349207955444 4.85707735917677 -1.1145145825409673e-47 -1.077501340155286e-48 9.393958530529065e-48 4.365016926564747" Properties=species:S:1:pos:R:3:tags:I:1 spacegroup="P 1" unit_cell=conventional n_minim_iter=1 stress="-0.055920080428765215 1.2929577416810071e-16 7.900904543288954e-18 1.2929577416810071e-16 -0.05592008042876415 -7.048422359523579e-17 7.900904543288954e-18 -7.048422359523579e-17 -0.0568020674269822" pbc="T T T"
Ti       2.80423493       3.25886020       1.09125423        0
Ti      -1.42013404       4.05797121       3.27376269        1
Ti       1.42013405       4.05797121       3.27376269        2
Ti       1.38410088       0.79911587       1.09125423        3
Ti       4.22436897       0.79911587       1.09125423        4
Ti       0.00000000       1.59822689       3.27376269        5
Al       0.00000000       3.23805643       1.09125423        6
Al       2.80423493       1.61903065       3.27376269        7
