8
Lattice="5.780926693520539 -3.911638351573567e-16 2.6016115524233216e-50 -2.890463346760269 5.006429374004363 -1.1645579120757222e-47 2.38514569064377e-48 2.268686867463396e-48 4.470978613603748" Properties=species:S:1:pos:R:3:tags:I:1 spacegroup="P 1" unit_cell=conventional n_minim_iter=3 stress="-0.02798317754289152 2.4965055145784954e-16 1.989641801685236e-17 2.4965055145784954e-16 -0.027983177542890533 -4.156214212992334e-17 1.989641801685236e-17 -4.156214212992334e-17 -0.028005959837996034" pbc="T T T"
Ti       2.89046335       3.36341780       1.11774465        0
Ti      -1.46756924       4.18492609       3.35323396        1
Ti       1.46756925       4.18492609       3.35323396        2
Ti       1.42289411       0.82151331       1.11774465        3
Ti       4.35803259       0.82151331       1.11774465        4
Ti       0.00000001       1.64302160       3.35323396        5
Al       0.00000001       3.33762459       1.11774465        6
Al       2.89046335       1.66881480       3.35323396        7
