8
Lattice="5.662924410666443 -3.9374777517408173e-16 1.3978888843607044e-48 -2.8314622053332212 4.904236399348162 -1.1253357892220482e-47 -3.37798529639698e-48 1.3992978232432995e-47 4.407398382194592" Properties=species:S:1:pos:R:3:tags:I:1 spacegroup="P 1" unit_cell=conventional n_minim_iter=3 stress="-0.047415235131634835 6.0560075821925535e-16 -4.4165941921464975e-17 6.0560075821925535e-16 -0.04741523513163478 -1.5237244398762853e-17 -4.4165941921464975e-17 -1.5237244398762853e-17 -0.04741260360600613" pbc="T T T"
Ti       2.83146221       3.29050159       1.10184959        0
Ti      -1.43392261       4.09737145       3.30554878        1
Ti       1.43392262       4.09737145       3.30554878        2
Ti       1.39753959       0.80687477       1.10184959        3
Ti       4.26538483       0.80687477       1.10184959        4
Ti       0.00000000       1.61374462       3.30554878        5
Al       0.00000000       3.26949584       1.10184959        6
Al       2.83146221       1.63475037       3.30554878        7
