8
Lattice="6.318964096845726 -4.3191002623783527e-16 1.5380819754190485e-48 -3.1594820484228627 5.4723834334701875 -1.52401146322749e-48 -8.675138892092678e-49 -1.1978150617183975e-48 4.955643966069741" Properties=species:S:1:pos:R:3:tags:I:1 spacegroup="P 1" unit_cell=conventional n_minim_iter=4 stress="0.13258165757658325 2.8324698414227225e-17 -8.856611343906983e-17 2.8324698414227225e-17 0.13258165757658266 -8.109016781162175e-17 -8.856611343906983e-17 -8.109016781162175e-17 0.1325501655474028" pbc="T T T"
Ti       3.15948205       3.79098523       1.23891099        0
Ti      -1.70334374       4.63168707       3.71673297        1
Ti       1.70334375       4.63168707       3.71673297        2
Ti       1.45613831       0.84070732       1.23891099        3
Ti       4.86282580       0.84070732       1.23891099        4
Ti       0.00000001       1.68140916       3.71673297        5
Al       0.00000001       3.64826110       1.23891099        6
Al       3.15948205       1.82413329       3.71673297        7
