8
Lattice="5.721582494039341 -3.941744299780906e-16 1.1040617205542123e-48 -2.86079124701967 4.9550357896863915 -8.696651783256765e-48 -7.54852776330854e-49 9.713787084532367e-48 4.440848584006067" Properties=species:S:1:pos:R:3:tags:I:1 spacegroup="P 1" unit_cell=conventional n_minim_iter=3 stress="-0.038619561476007126 -2.3956600819631785e-16 -6.733475131296015e-18 -2.3956600819631785e-16 -0.0386195614760063 -3.418143998528303e-16 -6.733475131296015e-18 -3.418143998528303e-16 -0.03863052206731813" pbc="T T T"
Ti       2.86079125       3.32615195       1.11021214        0
Ti      -1.45013216       4.14059635       3.33063644        1
Ti       1.45013217       4.14059635       3.33063644        2
Ti       1.41065908       0.81444936       1.11021214        3
Ti       4.31092342       0.81444936       1.11021214        4
Ti       0.00000000       1.62889376       3.33063644        5
Al       0.00000000       3.30336215       1.11021214        6
Al       2.86079125       1.65168356       3.33063644        7
