8
Lattice="5.716351381128688 -3.974625962149871e-16 1.4110772942207348e-48 -2.8581756905643436 4.950505513015707 -1.1359527916064747e-47 -3.40985496435733e-48 1.4124995257646131e-47 4.448980067928791" Properties=species:S:1:pos:R:3:tags:I:1 spacegroup="P 1" unit_cell=conventional n_minim_iter=3 stress="-0.047415235131634835 6.0560075821925535e-16 -4.4165941921464975e-17 6.0560075821925535e-16 -0.04741523513163478 -1.5237244398762853e-17 -4.4165941921464975e-17 -1.5237244398762853e-17 -0.04741260360600613" pbc="T T T"
Ti       2.85817570       3.32154590       1.11224501        0
Ti      -1.44745098       4.13602818       3.33673505        1
Ti       1.44745099       4.13602818       3.33673505        2
Ti       1.41072471       0.81448724       1.11224501        3
Ti       4.30562668       0.81448724       1.11224501        4
Ti       0.00000000       1.62896953       3.33673505        5
Al       0.00000000       3.30034196       1.11224501        6
Al       2.85817570       1.65017346       3.33673505        7
