8
Lattice="5.893856959898316 -4.0852607483326317e-16 -2.704285899443861e-49 -2.9469284799491575 5.104229853543662 -2.4454224990526055e-48 2.6768317986333814e-49 -6.316143553015592e-49 4.53378808413281" Properties=species:S:1:pos:R:3:tags:I:1 spacegroup="P 1" unit_cell=conventional n_minim_iter=3 stress="-0.016423166051542024 1.360464168130396e-16 2.4940327473401784e-17 1.360464168130396e-16 -0.01642316605154325 4.412458050741148e-17 2.4940327473401784e-17 4.412458050741148e-17 -0.016458527937072042" pbc="T T T"
Ti       2.94692849       3.43276818       1.13344702        0
Ti      -1.49939578       4.26850157       3.40034106        1
Ti       1.49939579       4.26850157       3.40034106        2
Ti       1.44753270       0.83573850       1.13344702        3
Ti       4.44632427       0.83573850       1.13344702        4
Ti       0.00000001       1.67147189       3.40034106        5
Al       0.00000001       3.40282501       1.13344702        6
Al       2.94692849       1.70141506       3.40034106        7
