8
Lattice="6.006526743113237 -4.239460655985302e-16 -7.067190493434403e-49 -3.0032633715566184 5.201804748046668 5.028679131236302e-49 2.1883122561026906e-49 -1.8955468027202737e-48 4.58915598427507" Properties=species:S:1:pos:R:3:tags:I:1 spacegroup="P 1" unit_cell=conventional n_minim_iter=3 stress="0.019067391617995023 -2.31119078165966e-16 1.009419037645599e-17 -2.31119078165966e-16 0.019067391617994377 1.0281817544764775e-17 1.009419037645599e-17 1.0281817544764775e-17 0.01895970649836401" pbc="T T T"
Ti       3.00326338       3.50981452       1.14728899        0
Ti      -1.53795234       4.35581224       3.44186699        1
Ti       1.53795235       4.35581224       3.44186699        2
Ti       1.46531103       0.84600292       1.14728899        3
Ti       4.54121572       0.84600292       1.14728899        4
Ti       0.00000001       1.69200064       3.44186699        5
Al       0.00000001       3.46787504       1.14728899        6
Al       3.00326338       1.73394012       3.44186699        7
