8
Lattice="5.493339819055517 -3.3374624718597896e-16 -2.7375776742696494e-49 -2.746669909527758 4.757371834922691 -1.4455884056103654e-47 -2.452859500027208e-48 2.1239325687189367e-47 4.014616976965119" Properties=species:S:1:pos:R:3:tags:I:1 spacegroup="P 1" unit_cell=conventional n_minim_iter=3 stress="-0.10624085488765508 6.490440536739679e-17 4.3431724434580835e-17 6.490440536739679e-17 -0.10624085488765454 -1.5967781620826513e-16 4.3431724434580835e-17 -1.5967781620826513e-16 -0.10703139096323011" pbc="T T T"
Ti       2.74666991       3.21980439       1.00365424        0
Ti      -1.41509331       3.98859049       3.01096273        1
Ti       1.41509332       3.98859049       3.01096273        2
Ti       1.33157660       0.76879087       1.00365424        3
Ti       4.16176323       0.76879087       1.00365424        4
Ti       0.00000000       1.53757697       3.01096273        5
Al       0.00000000       3.17158598       1.00365424        6
Al       2.74666991       1.58579537       3.01096273        7
