8
Lattice="5.662924410666442 -3.9374777517408163e-16 1.3978888843607035e-48 -2.831462205333221 4.90423639934816 -1.125335789222048e-47 -1.0879631724934315e-48 9.485167715590238e-48 4.40739838219459" Properties=species:S:1:pos:R:3:tags:I:1 spacegroup="P 1" unit_cell=conventional n_minim_iter=1 stress="-0.055920080428765215 1.2929577416810071e-16 7.900904543288954e-18 1.2929577416810071e-16 -0.05592008042876415 -7.048422359523579e-17 7.900904543288954e-18 -7.048422359523579e-17 -0.0568020674269822" pbc="T T T"
Ti       2.83146221       3.29050159       1.10184959        0
Ti      -1.43392261       4.09737145       3.30554878        1
Ti       1.43392262       4.09737145       3.30554878        2
Ti       1.39753959       0.80687477       1.10184959        3
Ti       4.26538483       0.80687477       1.10184959        4
Ti       0.00000000       1.61374462       3.30554878        5
Al       0.00000000       3.26949584       1.10184959        6
Al       2.83146221       1.63475037       3.30554878        7
