2
Lattice="2.632829318601031 -8.36027704887794e-16 4.888573763893893e-41 -1.3164146593005148 2.280097073736967 2.2744242076223993e-25 -1.8436266325908948e-40 -4.260361998264973e-25 4.270988188020932" Properties=species:S:1:pos:R:3 n_minim_iter=1 energy=-3186.6423370414336 free_energy=-3186.6423370414336 pbc="T T T"
Ti       0.00000000       0.00000000       0.00000000
Ti       0.00000000       1.52006472       2.13549409
2
Lattice="2.6364153059255835 -8.408780600818971e-16 4.962855590826077e-41 -1.318207652962791 2.2832026298576777 2.277522037140464e-25 -1.8239830198201221e-40 -4.248780200830723e-25 4.259377503281494" Properties=species:S:1:pos:R:3 n_minim_iter=2 stress="-0.37788692670057483 2.0665936979152103e-17 4.2682232440174645e-18 2.0665936979152103e-17 -0.377886926700576 -8.717471917052812e-18 4.2682232440174645e-18 -8.717471917052812e-18 -0.3778898895276833" pbc="T T T"
Ti       0.00000000      -0.00000000      -0.00000000
Ti       0.00000000       1.52213509       2.12968875
