2
Lattice="3.0542649919616798 -9.572068834183546e-16 5.525904154243705e-41 -1.527132495980839 2.6450710729282902 2.638490153969595e-25 -2.6596045357029623e-40 -4.946505663323071e-25 4.958843231780576" Properties=species:S:1:pos:R:3 n_minim_iter=2 stress="0.0440757108048516 2.892559353858654e-17 -1.9507294355951575e-17 2.892559353858654e-17 0.044075710804851995 -7.00628707785603e-17 -1.9507294355951575e-17 -7.00628707785603e-17 0.0415206294204675" pbc="T T T"
Ti      -0.00000000       0.00000000       0.00000000
Ti       0.00000000       1.76338072       2.47942162
