2
Lattice="3.0236592731564906 -9.49159083889905e-16 6.107424202312624e-41 -1.5118296365782442 2.6185657429419122 2.612050769065147e-25 -2.2071341159857974e-40 -4.946207303456557e-25 4.958544127745242" Properties=species:S:1:pos:R:3 n_minim_iter=1 stress="0.05924391063598681 1.462539939703066e-16 8.9366233286687e-20 1.462539939703066e-16 0.059243910635986594 -1.1930724576572355e-18 8.9366233286687e-20 -1.1930724576572355e-18 0.06903142838925046" pbc="T T T"
Ti       0.00000000       0.00000000       0.00000000
Ti       0.00000000       1.74571050       2.47927206
