2
Lattice="3.0440900231302845 -9.555725154893146e-16 6.148691833877171e-41 -1.5220450115651412 2.636259291437586 2.6297002961317055e-25 -2.222047636726268e-40 -4.979628636882786e-25 4.9920488206209805" Properties=species:S:1:pos:R:3 n_minim_iter=1 stress="0.05924391063598681 1.462539939703066e-16 8.9366233286687e-20 1.462539939703066e-16 0.059243910635986594 -1.1930724576572355e-18 8.9366233286687e-20 -1.1930724576572355e-18 0.06903142838925046" pbc="T T T"
Ti       0.00000000       0.00000000       0.00000000
Ti       0.00000000       1.75750619       2.49602441
