2
Lattice="3.023659273156491 -9.491590838899055e-16 6.107424202312626e-41 -1.5118296365782447 2.6185657429419127 2.6120507690651473e-25 -2.554233177939595e-40 -4.946207303456556e-25 4.958544127745243" Properties=species:S:1:pos:R:3 n_minim_iter=1 stress="0.07158833143084772 1.3531808354503435e-18 1.1554529679893313e-19 1.3531808354503435e-18 0.07158833143084777 4.51321078080485e-19 1.1554529679893313e-19 4.51321078080485e-19 0.07615456612081363" pbc="T T T"
Ti       0.00000000       0.00000000       0.00000000
Ti       0.00000000       1.74571050       2.47927206
