2
Lattice="3.410180143510716 0.0 0.0 0.0 3.410180143510716 0.0 0.0 0.0 3.410180143510716" Properties=species:S:1:pos:R:3 Minim_Constant_Volume=F n_minim_iter=1 stress="-0.03815144837586532 1.0736146656841777e-18 2.709994470251243e-20 1.0736146656841777e-18 -0.03815144837586532 3.570772679189312e-19 2.709994470251243e-20 3.570772679189312e-19 -0.0381514483758653" pbc="T T T"
Ti       0.00000000       0.00000000       0.00000000
Ti       1.70509007       1.70509007       1.70509007
