2
Lattice="2.876257327600344 0.0 0.0 0.0 2.8762573276003445 0.0 0.0 0.0 2.876257327600344" Properties=species:S:1:pos:R:3 Minim_Constant_Volume=F n_minim_iter=1 stress="-0.36432716614227956 7.2903275533448595e-19 -7.2903275533448595e-19 7.2903275533448595e-19 -0.36432716614227956 -2.9161310213379435e-19 -7.2903275533448595e-19 -2.9161310213379435e-19 -0.3643271661422798" pbc="T T T"
Ti       0.00000000       0.00000000       0.00000000
Ti       1.43812866       1.43812866       1.43812866
