2
Lattice="3.165730814945473 0.0 0.0 0.0 3.165730814945473 0.0 0.0 0.0 3.165730814945473" Properties=species:S:1:pos:R:3 Minim_Constant_Volume=F n_minim_iter=1 stress="-0.0007797622508971259 5.459082106144301e-18 -3.5132373958787226e-19 5.459082106144301e-18 -0.000779762250897133 -1.4762913295523325e-18 -3.5132373958787226e-19 -1.4762913295523325e-18 -0.0007797622508971259" pbc="T T T"
Ti       0.00000000       0.00000000       0.00000000
Ti       1.58286541       1.58286541       1.58286541
