2
Lattice="2.9078670820125843 0.0 0.0 0.0 2.9078670820125843 0.0 0.0 9.756956118684794e-32 2.9078670820125843" Properties=species:S:1:pos:R:3 Minim_Constant_Volume=F n_minim_iter=1 stress="-0.2971213894086242 -5.772394202049716e-18 -4.1822224613783844e-18 -5.772394202049716e-18 -0.2971213894086242 -1.093549133001727e-18 -4.1822224613783844e-18 -1.093549133001727e-18 -0.29712138940862426" pbc="T T T"
Ti       0.00000000       0.00000000       0.00000000
Ti       1.45393354       1.45393354       1.45393354
