8
Lattice="-3.2396118012774835 3.2396118012774835 3.2396118012774835 3.2396118012774835 -3.2396118012774835 3.2396118012774835 3.2396118012774835 3.2396118012774835 -3.2396118012774835" Properties=species:S:1:pos:R:3:forces:R:3 cutoff=-1.0 nneightol=1.2 n_minim_iter=1 energy=-1303.759801842962 stress="-0.05918573940588547 1.9508567425461857e-10 1.9508518834185217e-10 1.9508567425461857e-10 -0.05918573940588534 1.9508518834185217e-10 1.9508518834185217e-10 1.9508518834185217e-10 -0.05918573940588545" free_energy=-1303.759801842962 pbc="T T T"
Si       2.59104152       0.64857028      -0.64857028      -0.43799268       0.43799269      -0.43799270
Si       3.88818208      -0.64857028       0.64857028       0.43799270      -0.43799269       0.43799268
Si       0.64857028       0.64857028       0.64857028       0.43799267       0.43799267       0.43799267
Si       0.64857028      -0.64857028       2.59104152       0.43799269      -0.43799270      -0.43799268
Si      -0.64857028       2.59104152       0.64857028      -0.43799270      -0.43799268       0.43799269
Si       0.64857028       3.88818208      -0.64857028       0.43799268       0.43799270      -0.43799269
Si      -0.64857028       0.64857028       3.88818208      -0.43799269       0.43799268       0.43799270
Si       2.59104152       2.59104152       2.59104152      -0.43799268      -0.43799268      -0.43799268
8
Lattice="-3.2396118051026246 3.2396118051026246 3.2396118051026246 3.2396118051026246 -3.2396118051026246 3.2396118051026246 3.2396118051026246 3.2396118051026246 -3.2396118051026246" Properties=species:S:1:pos:R:3:forces:R:3 cutoff=-1.0 nneightol=1.2 n_minim_iter=2 energy=-1303.75980187206 stress="-0.05918573736561428 1.9508503520001005e-10 1.9508517349302756e-10 1.9508503520001005e-10 -0.059185737365614416 1.9508512580942393e-10 1.9508517349302756e-10 1.9508512580942393e-10 -0.059185737365614256" free_energy=-1303.75980187206 pbc="T T T"
Si       2.59104152       0.64857028      -0.64857028      -0.43799266       0.43799267      -0.43799268
Si       3.88818208      -0.64857028       0.64857028       0.43799268      -0.43799267       0.43799266
Si       0.64857028       0.64857028       0.64857028       0.43799265       0.43799265       0.43799265
Si       0.64857028      -0.64857028       2.59104152       0.43799267      -0.43799268      -0.43799266
Si      -0.64857028       2.59104152       0.64857028      -0.43799268      -0.43799266       0.43799267
Si       0.64857028       3.88818208      -0.64857028       0.43799266       0.43799268      -0.43799267
Si      -0.64857028       0.64857028       3.88818208      -0.43799267       0.43799266       0.43799268
Si       2.59104152       2.59104152       2.59104152      -0.43799265      -0.43799265      -0.43799265
8
Lattice="-3.239611806398036 3.239611806398036 3.2396118063980373 3.239611806398036 -3.239611806398036 3.2396118063980373 3.2396118063980386 3.2396118063980386 -3.239611806398037" Properties=species:S:1:pos:R:3:forces:R:3 cutoff=-1.0 nneightol=1.2 n_minim_iter=3 energy=-1300.861861889789 stress="-0.06376869030258987 0.0036351613989011903 0.01549060248128332 0.0036351613989011903 -0.057822751789408496 0.011803186579064925 0.01549060248128332 0.011803186579064925 -0.056488971021546965" free_energy=-1300.861861889789 pbc="T T T"
Si       2.59104152       0.64857028      -0.64857028       0.30479090       1.24269503      -0.83599001
Si       3.88818209      -0.64857028       0.64857028       0.07906283      -0.64194952       0.52682297
Si       0.64857028       0.64857028       0.64857028      -0.08577991       0.33498132      -0.38780955
Si       0.64857028      -0.64857028       2.59104152       0.68017989      -1.26682967      -0.98744072
Si      -0.64857028       2.59104152       0.64857028      -0.00977469      -0.71025720       0.96556317
Si       0.64857028       3.88818209      -0.64857028       0.47985658       0.22879713      -0.66640358
Si      -0.64857028       0.64857028       3.88818209      -1.41319512       0.79708763       1.18213314
Si       2.59104152       2.59104152       2.59104152      -0.03514047       0.01547526       0.20312458
8
Lattice="-3.3714036069726983 3.3719307717316425 3.371764074193158 3.371894938398754 -3.371556390883127 3.3718809913333248 3.3715192210269422 3.371671971501279 -3.371389647123561" Properties=species:S:1:pos:R:3:forces:R:3 cutoff=-1.0 nneightol=1.2 n_minim_iter=4 energy=-1304.140645260988 stress="0.015351141772225605 2.3901709587239496e-05 7.938541830490527e-05 2.3901709587239496e-05 0.015376425647728844 5.6514088110846555e-05 7.938541830490527e-05 5.6514088110846555e-05 0.015377698444173513" free_energy=-1304.140645260988 pbc="T T T"
Si       2.69801156       0.67362997      -0.67340600      -0.02927205       0.03062385      -0.03104197
Si       4.04538878      -0.67353600       0.67390848       0.02952206      -0.03032085       0.03095244
Si       0.67371076       0.67370276       0.67377056       0.02827532       0.02916029       0.02881098
Si       0.67380758      -0.67345893       2.69819968       0.03090674      -0.03130908      -0.03040035
Si      -0.67355132       2.69818694       0.67373603      -0.03121968      -0.03080569       0.03160179
Si       0.67365001       4.04543313      -0.67337237       0.03154150       0.03059855      -0.03145729
Si      -0.67328985       0.67385020       4.04543838      -0.03131027       0.03095575       0.03045433
Si       2.69830417       2.69833095       2.69849154      -0.02844361      -0.02890281      -0.02891994
8
Lattice="-3.3378135059376848 3.339846976355844 3.3392216160432753 3.339660691719548 -3.338394608083785 3.3396164078668273 3.3381879862485717 3.338769062712667 -3.337769212268231" Properties=species:S:1:pos:R:3:forces:R:3 cutoff=-1.0 nneightol=1.2 n_minim_iter=5 energy=-1304.170630812242 stress="-0.002971802977594782 0.00010013179052411096 0.0003301639395769723 0.00010013179052411096 -0.002857682556632168 0.00023395749215729213 0.0003301639395769723 0.00023395749215729213 -0.00285266106135942" free_energy=-1304.170630812242 pbc="T T T"
Si       2.66951702       0.66904594      -0.66826669      -0.05911734       0.06536459      -0.06705706
Si       4.00825752      -0.66878856       0.67017489       0.06055089      -0.06364123       0.06655963
Si       0.66942669       0.66938996       0.66970086       0.05478043       0.05900922       0.05719151
Si       0.66978221      -0.66842684       2.67034595       0.06599551      -0.06882234      -0.06461014
Si      -0.66888475       2.67026514       0.66952673      -0.06715048      -0.06614373       0.06942358
Si       0.66916860       4.00844514      -0.66813272       0.06898385       0.06496813      -0.06860786
Si      -0.66779256       0.66996939       4.00845366      -0.06829116       0.06680070       0.06490777
Si       2.67063080       2.67076411       2.67140378      -0.05575170      -0.05753534      -0.05780743
8
Lattice="-3.341720012273289 3.343580947846921 3.3430759687434977 3.343226840482991 -3.3421644208553687 3.343166243137054 3.341727029452555 3.342171411215996 -3.3416594046765384" Properties=species:S:1:pos:R:3:forces:R:3 cutoff=-1.0 nneightol=1.2 n_minim_iter=6 energy=-1304.172211753502 stress="-0.0006484258191488578 8.428025492799413e-05 0.00029394491817531386 8.428025492799413e-05 -0.000508971982309908 0.00021285926960553286 0.00029394491817531386 0.00021285926960553286 -0.0004975799524003923" free_energy=-1304.172211753502 pbc="T T T"
Si       2.67162034       0.66999962      -0.66966848      -0.04022596       0.04986223      -0.04977520
Si       4.01317044      -0.67025597       0.67131685       0.04336963      -0.04605530       0.04864890
Si       0.67068184       0.67061733       0.67113758       0.03662148       0.04296388       0.03904839
Si       0.67094405      -0.66961555       2.67283157       0.04694014      -0.05417235      -0.04897691
Si      -0.67053185       2.67260859       0.67080332      -0.04636148      -0.04913761       0.05247624
Si       0.67034031       4.01335802      -0.66951857       0.05039077       0.04654412      -0.05065462
Si      -0.66911891       0.67122751       4.01332133      -0.05201831       0.04973405       0.04965526
Si       2.67259536       2.67282424       2.67352486      -0.03871626      -0.03973902      -0.04042206
8
Lattice="-3.3435510678340754 3.344902357611133 3.3445102748005318 3.3446828569491474 -3.3434213592173316 3.3441610379444673 3.342995677570762 3.342865941383267 -3.3430292382920834" Properties=species:S:1:pos:R:3:forces:R:3 cutoff=-1.0 nneightol=1.2 n_minim_iter=7 energy=-1304.173242726282 stress="0.0005504907353880352 7.466633381030028e-05 0.00027455267982043146 7.466633381030028e-05 0.0006388398676421758 0.00020054427192969478 0.00027455267982043146 0.00020054427192969478 0.000656590482481876" free_energy=-1304.173242726282 pbc="T T T"
Si       2.67113416       0.67087039      -0.67120778      -0.01506039       0.03085603      -0.02715514
Si       4.01623699      -0.67194574       0.67263622       0.02101740      -0.02354594       0.02489544
Si       0.67217174       0.67200930       0.67291751       0.01229961       0.02198783       0.01375549
Si       0.67229186      -0.67086164       2.67273055       0.02267233      -0.03689398      -0.02891006
Si      -0.67263061       2.67227127       0.67226394      -0.01919402      -0.02753887       0.03056114
Si       0.67170478       4.01592959      -0.67104459       0.02684885       0.02256687      -0.02699983
Si      -0.67054051       0.67269832       4.01575290      -0.03244298       0.02847384       0.03029095
Si       2.67201400       2.67206931       2.67287751      -0.01614079      -0.01590578      -0.01643800
8
Lattice="-3.3431143542055044 3.3443303008024214 3.3440462798924457 3.343768293987004 -3.3427846417628695 3.343154532808699 3.3419098655269592 3.341580125268405 -3.3425005823973346" Properties=species:S:1:pos:R:3:forces:R:3 cutoff=-1.0 nneightol=1.2 n_minim_iter=8 energy=-1304.173753363326 stress="0.0004889090605503545 5.4637536739917105e-05 0.00024396222867072075 5.4637536739917105e-05 0.0006259125502912043 0.0001905294013505858 0.00024396222867072075 0.0001905294013505858 0.0006526200375207546" free_energy=-1304.173753363326 pbc="T T T"
Si       2.66863772       0.67139635      -0.67246614       0.00672652       0.01484602      -0.00871222
Si       4.01661622      -0.67336815       0.67359227       0.00159753      -0.00444108       0.00530445
Si       0.67322747       0.67313177       0.67441644      -0.00836827       0.00404283      -0.00738093
Si       0.67316494      -0.67189168       2.67096909       0.00181889      -0.02204296      -0.01270447
Si      -0.67438639       2.67028292       0.67343571       0.00453130      -0.00903455       0.01264404
Si       0.67267950       4.01628634      -0.67227781       0.00618920       0.00195771      -0.00746738
Si      -0.67161633       0.67390023       4.01593178      -0.01574478       0.01028204       0.01482085
Si       2.66936830       2.66963955       2.67049937       0.00324962       0.00438997       0.00349567
8
Lattice="-3.3424448448341555 3.3432162221380186 3.3429196641746155 3.3430374518729695 -3.3417118299235136 3.342007851286862 3.3411567014355925 3.3404236588204674 -3.3414152336608707" Properties=species:S:1:pos:R:3:forces:R:3 cutoff=-1.0 nneightol=1.2 n_minim_iter=9 energy=-1304.173823436209 stress="0.00012341556648802653 6.883461738654354e-05 0.0002531358909323348 6.883461738654354e-05 0.00016534308457202875 0.00017958094553311636 0.0002531358909323348 0.00017958094553311636 0.00018940671645977203" free_energy=-1304.173823436209 pbc="T T T"
Si       2.66750698       0.67142930      -0.67262815       0.01131534       0.01135023      -0.00386992
Si       4.01626695      -0.67353887       0.67376579      -0.00297046      -0.00067675       0.00013880
Si       0.67343351       0.67335165       0.67472860      -0.01254135      -0.00079928      -0.01309870
Si       0.67328118      -0.67214362       2.66969596      -0.00124864      -0.01873245      -0.00872774
Si      -0.67475059       2.66895460       0.67359461       0.00897084      -0.00442116       0.00747562
Si       0.67297685       4.01541609      -0.67250541       0.00179678      -0.00286963      -0.00206664
Si      -0.67175557       0.67407012       4.01488490      -0.01301726       0.00696848       0.01109273
Si       2.66828863       2.66824487       2.66900059       0.00769475       0.00918057       0.00905585
8
Lattice="-3.3421110702727472 3.3432093640862273 3.3428869428452948 3.342489328298043 -3.3416453648298066 3.341701173965808 3.3406111598155612 3.3401454267347925 -3.341322905379325" Properties=species:S:1:pos:R:3:forces:R:3 cutoff=-1.0 nneightol=1.2 n_minim_iter=10 energy=-1304.173828404751 stress="-9.510773465078574e-05 3.7223102877515025e-05 0.00022349742862169168 3.7223102877515025e-05 3.9496011746249e-05 0.00019132362719300922 0.00022349742862169168 0.00019132362719300922 6.531851839747452e-05" free_energy=-1304.173828404751 pbc="T T T"
Si       2.66701119       0.67130534      -0.67265915       0.01084113       0.01086275      -0.00484359
Si       4.01570426      -0.67361666       0.67361054      -0.00311312      -0.00075102       0.00109070
Si       0.67324597       0.67336175       0.67473152      -0.01173958      -0.00082129      -0.01216115
Si       0.67304414      -0.67223914       2.66950555      -0.00112140      -0.01721465      -0.00891732
Si      -0.67475268       2.66883294       0.67361903       0.00870716      -0.00434246       0.00823377
Si       0.67282060       4.01526830      -0.67246351       0.00127013      -0.00262000      -0.00303933
Si      -0.67176851       0.67415310       4.01471838      -0.01235177       0.00638086       0.01132546
Si       2.66766330       2.66806262       2.66873330       0.00750745       0.00850581       0.00831144
8
Lattice="-3.342052939456667 3.3428355694683365 3.342530157729461 3.34249188392143 -3.3414949611576086 3.3416284662655364 3.340764198064691 3.3402061921554944 -3.3411895112493277" Properties=species:S:1:pos:R:3:forces:R:3 cutoff=-1.0 nneightol=1.2 n_minim_iter=11 energy=-1304.173830227925 stress="-0.0001092972351817495 7.151126673150465e-05 0.00023770689337557774 7.151126673150465e-05 -4.0811653053203995e-05 0.0001578145405367841 0.00023770689337557774 0.0001578145405367841 -1.9033078077740463e-05" free_energy=-1304.173830227925 pbc="T T T"
Si       2.66706465       0.67133873      -0.67257473       0.01015570       0.01120952      -0.00456661
Si       4.01584700      -0.67342388       0.67361478      -0.00315076      -0.00178005       0.00081727
Si       0.67320855       0.67335084       0.67469306      -0.01066987      -0.00145607      -0.01194303
Si       0.67294750      -0.67237874       2.66935846       0.00114940      -0.01737888      -0.00944818
Si      -0.67463474       2.66866199       0.67347300       0.00744035      -0.00384221       0.00719439
Si       0.67297589       4.01514141      -0.67253005       0.00159522      -0.00274365      -0.00229421
Si      -0.67165656       0.67398651       4.01441920      -0.01364185       0.00766044       0.01188821
Si       2.66785717       2.66796352       2.66845365       0.00712182       0.00833089       0.00835217
8
Lattice="-3.342439763515275 3.3430166192893656 3.342568008306443 3.342566040643677 -3.3415640423992135 3.3412416809476246 3.340871382701956 3.3399956339965144 -3.3411153932766138" Properties=species:S:1:pos:R:3:forces:R:3 cutoff=-1.0 nneightol=1.2 n_minim_iter=12 energy=-1304.173833366789 stress="-0.00010271020632308679 1.932163961911706e-05 0.00019762361298619087 1.932163961911706e-05 -8.626945432716463e-05 0.00018932359621605437 0.00019762361298619087 0.00018932359621605437 -7.205566410097862e-05" free_energy=-1304.173833366789 pbc="T T T"
Si       2.66705211       0.67106525      -0.67249607       0.00779312       0.01047167      -0.00554148
Si       4.01616424      -0.67339531       0.67332105      -0.00295934      -0.00306426       0.00176848
Si       0.67289162       0.67336760       0.67470115      -0.00734453      -0.00180695      -0.01126669
Si       0.67252100      -0.67273224       2.66914468       0.00416226      -0.01341205      -0.00801565
Si      -0.67466380       2.66871400       0.67344564       0.00419684      -0.00399930       0.00719425
Si       0.67291924       4.01512508      -0.67235858       0.00195564      -0.00154697      -0.00321905
Si      -0.67167847       0.67418917       4.01422720      -0.01367397       0.00714957       0.01055820
Si       2.66778707       2.66801106       2.66809786       0.00586997       0.00620829       0.00852195
8
Lattice="-3.342201501280042 3.3429026284681984 3.3425642291169497 3.3422488671773665 -3.341878418544351 3.341587357470912 3.340888523979889 3.340565413632605 -3.3415399810210094" Properties=species:S:1:pos:R:3:forces:R:3 cutoff=-1.0 nneightol=1.2 n_minim_iter=13 energy=-1304.173835313847 stress="-0.00010828361268524905 5.405469426227176e-05 0.00018891427414847417 5.405469426227176e-05 -1.04195691092582e-05 0.00012774758685364716 0.00018891427414847417 0.00012774758685364716 4.129498296197087e-06" free_energy=-1304.173835313847 pbc="T T T"
Si       2.66686589       0.67117324      -0.67253213       0.00815104       0.01001441      -0.00548792
Si       4.01610476      -0.67324834       0.67333963      -0.00424109      -0.00343112       0.00164739
Si       0.67274684       0.67342038       0.67473696      -0.00653513      -0.00310067      -0.01006495
Si       0.67227323      -0.67315289       2.66928738       0.00553499      -0.01195257      -0.00897835
Si      -0.67451241       2.66882663       0.67328800       0.00426603      -0.00238789       0.00598926
Si       0.67311583       4.01552310      -0.67261758       0.00059971      -0.00284934      -0.00245260
Si      -0.67156524       0.67405126       4.01439265      -0.01373877       0.00729817       0.01158680
Si       2.66777878       2.66817548       2.66793995       0.00596323       0.00640901       0.00776039
8
Lattice="-3.3423307523968098 3.3429636655950388 3.3426237548899462 3.342382359073038 -3.3418839442861303 3.341595612614253 3.3410045226630403 3.3405576869169264 -3.3415439953764645" Properties=species:S:1:pos:R:3:forces:R:3 cutoff=-1.0 nneightol=1.2 n_minim_iter=14 energy=-1304.173836049715 stress="-4.97007111432564e-05 4.361933236724278e-05 0.0001863842626873659 4.361933236724278e-05 2.5688607431176957e-05 0.00014122634539625456 0.0001863842626873659 0.00014122634539625456 3.9934868323296574e-05" free_energy=-1304.173836049715 pbc="T T T"
Si       2.66690390       0.67115535      -0.67253768       0.00869053       0.00973676      -0.00510255
Si       4.01630627      -0.67326664       0.67336455      -0.00455710      -0.00289680       0.00119829
Si       0.67276715       0.67341989       0.67478505      -0.00688578      -0.00305259      -0.01072063
Si       0.67232446      -0.67320527       2.66926601       0.00470785      -0.01114564      -0.00790754
Si      -0.67457743       2.66885843       0.67331198       0.00468405      -0.00245616       0.00581902
Si       0.67316123       4.01557314      -0.67259117       0.00039013      -0.00306347      -0.00225972
Si      -0.67159678       0.67416232       4.01447622      -0.01315462       0.00631560       0.01053197
Si       2.66787960       2.66821499       2.66795119       0.00612494       0.00656229       0.00844116
8
Lattice="-3.3423072196170733 3.3428994241005827 3.3426109095342036 3.3424221204038456 -3.34182932748501 3.341655686048795 3.341085111572292 3.340607191790648 -3.3415407746947614" Properties=species:S:1:pos:R:3:forces:R:3 cutoff=-1.0 nneightol=1.2 n_minim_iter=15 energy=-1304.173836572595 stress="-2.0435792196293692e-05 3.429263898564384e-05 0.00018498792493275559 3.429263898564384e-05 4.403213431902927e-05 0.00015203900604684214 0.00018498792493275559 0.00015203900604684214 5.89464978923695e-05" free_energy=-1304.173836572595 pbc="T T T"
Si       2.66684122       0.67113805      -0.67250522       0.00965878       0.00985070      -0.00491641
Si       4.01645873      -0.67320415       0.67342678      -0.00484978      -0.00226219       0.00086182
Si       0.67275564       0.67335144       0.67483576      -0.00719126      -0.00218817      -0.01105805
Si       0.67240054      -0.67333024       2.66921281       0.00323213      -0.01019557      -0.00664042
Si      -0.67460188       2.66888858       0.67325382       0.00541960      -0.00313308       0.00614170
Si       0.67326410       4.01559542      -0.67255732       0.00032905      -0.00315267      -0.00248257
Si      -0.67156630       0.67430229       4.01456868      -0.01243259       0.00473621       0.00928529
Si       2.66804799       2.66829045       2.66794217       0.00583406       0.00634476       0.00880865
8
Lattice="-3.3421389855615717 3.34273476907088 3.3425225180370415 3.3423083179859767 -3.341745243616126 3.3417022973672927 3.34107819364985 3.3406844240716103 -3.341532954381462" Properties=species:S:1:pos:R:3:forces:R:3 cutoff=-1.0 nneightol=1.2 n_minim_iter=16 energy=-1304.173836845084 stress="-5.610252821660715e-05 4.643302286894091e-05 0.00018650450704645077 4.643302286894091e-05 1.579322562865822e-05 0.00014459844513429814 0.00018650450704645077 0.00014459844513429814 3.230298354786785e-05" free_energy=-1304.173836845084 pbc="T T T"
Si       2.66678768       0.67115853      -0.67246334       0.00964169       0.01051448      -0.00529549
Si       4.01637840      -0.67308467       0.67344556      -0.00452818      -0.00259028       0.00118843
Si       0.67272377       0.67328308       0.67481364      -0.00686926      -0.00142228      -0.01056956
Si       0.67240423      -0.67335981       2.66920151       0.00306443      -0.01059648      -0.00693475
Si      -0.67452303       2.66887344       0.67315964       0.00547776      -0.00365413       0.00668125
Si       0.67333048       4.01554081      -0.67255256       0.00062214      -0.00291041      -0.00292559
Si      -0.67149725       0.67427562       4.01454096      -0.01264874       0.00474985       0.00957726
Si       2.66813832       2.66833484       2.66793022       0.00524016       0.00590924       0.00827846
8
Lattice="-3.3421403411986264 3.342738139050364 3.3425078465026505 3.3423252391821068 -3.3417621251596836 3.3417167029561137 3.3410612471829344 3.340683003511245 -3.3415317944112704" Properties=species:S:1:pos:R:3:forces:R:3 cutoff=-1.0 nneightol=1.2 n_minim_iter=17 energy=-1304.173836848209 stress="-5.621479914407278e-05 4.324676140430316e-05 0.00018886169219085855 4.324676140430316e-05 1.602636107831641e-05 0.00014237041005501672 0.00018886169219085855 0.00014237041005501672 3.2134188373569924e-05" free_energy=-1304.173836848209 pbc="T T T"
Si       2.66678490       0.67115334      -0.67245959       0.00968969       0.01044383      -0.00522758
Si       4.01638241      -0.67309644       0.67345623      -0.00459185      -0.00253025       0.00112079
Si       0.67272198       0.67327808       0.67481421      -0.00685126      -0.00136528      -0.01053733
Si       0.67241185      -0.67336586       2.66920606       0.00309008      -0.01059417      -0.00697151
Si      -0.67452912       2.66887411       0.67315056       0.00545272      -0.00370367       0.00671088
Si       0.67331821       4.01553882      -0.67255818       0.00064491      -0.00282990      -0.00293750
Si      -0.67149014       0.67427084       4.01453748      -0.01267579       0.00473151       0.00961430
Si       2.66813836       2.66832413       2.66793152       0.00524150       0.00584793       0.00822796
8
Lattice="-3.3421435081397 3.3427424385187416 3.342516107484816 3.3423243584004148 -3.3417606863000424 3.341715177887063 3.341068901036164 3.3406860515633277 -3.3415343170648084" Properties=species:S:1:pos:R:3:forces:R:3 cutoff=-1.0 nneightol=1.2 n_minim_iter=18 energy=-1304.173836856354 stress="-5.480010274336289e-05 4.356259182181933e-05 0.00018715051519527283 4.356259182181933e-05 1.7970400693285148e-05 0.00014301371287723301 0.00018715051519527283 0.00014301371287723301 3.341746347776529e-05" free_energy=-1304.173836856354 pbc="T T T"
Si       2.66679504       0.67115901      -0.67246854       0.00955314       0.01041699      -0.00518585
Si       4.01638901      -0.67308658       0.67345238      -0.00458727      -0.00260307       0.00108708
Si       0.67271458       0.67327267       0.67482223      -0.00669095      -0.00132934      -0.01065993
Si       0.67240803      -0.67335437       2.66921839       0.00301772      -0.01066484      -0.00703787
Si      -0.67453345       2.66886628       0.67314337       0.00553732      -0.00359764       0.00686070
Si       0.67332792       4.01552973      -0.67255289       0.00051948      -0.00270146      -0.00297240
Si      -0.67149818       0.67428282       4.01454188      -0.01258135       0.00471744       0.00967918
Si       2.66814631       2.66833383       2.66793413       0.00523191       0.00576193       0.00822909
8
Lattice="-3.342137655498439 3.3427312469157764 3.3425141194491483 3.3423231770824153 -3.341749505455386 3.341717871933219 3.341067796111201 3.3406796184351943 -3.3415323397877614" Properties=species:S:1:pos:R:3:forces:R:3 cutoff=-1.0 nneightol=1.2 n_minim_iter=19 energy=-1304.173836858561 stress="-5.548092851076911e-05 4.4253286362154134e-05 0.00018767823903347936 4.4253286362154134e-05 1.5233773680949384e-05 0.00014287046893907745 0.00018767823903347936 0.00014287046893907745 3.313667783577898e-05" free_energy=-1304.173836858561 pbc="T T T"
Si       2.66679362       0.67116312      -0.67247264       0.00951991       0.01035400      -0.00513325
Si       4.01639372      -0.67307891       0.67345454      -0.00462144      -0.00260377       0.00105514
Si       0.67271391       0.67327030       0.67482787      -0.00664785      -0.00138038      -0.01072466
Si       0.67240497      -0.67335160       2.66922309       0.00304847      -0.01065101      -0.00705592
Si      -0.67453402       2.66884944       0.67314172       0.00554175      -0.00349559       0.00686790
Si       0.67333466       4.01551590      -0.67255354       0.00047852      -0.00269342      -0.00294938
Si      -0.67149800       0.67428968       4.01454585      -0.01256374       0.00468199       0.00967735
Si       2.66815111       2.66832611       2.66793210       0.00524439       0.00578819       0.00826281
8
Lattice="-3.3421328769123315 3.34274218603823 3.342503095615755 3.342321178715024 -3.3417577602053448 3.341706943946126 3.3410644278266126 3.3406892834867334 -3.3415186315820087" Properties=species:S:1:pos:R:3:forces:R:3 cutoff=-1.0 nneightol=1.2 n_minim_iter=20 energy=-1304.173836860441 stress="-5.625442140659742e-05 4.4519224474148225e-05 0.00018827172440406131 4.4519224474148225e-05 1.7361597835454663e-05 0.00014322282922248642 0.00018827172440406131 0.00014322282922248642 3.039697793210593e-05" free_energy=-1304.173836860441 pbc="T T T"
Si       2.66678966       0.67116708      -0.67247246       0.00956013       0.01036585      -0.00512195
Si       4.01639352      -0.67307700       0.67344948      -0.00465493      -0.00263050       0.00108036
Si       0.67271700       0.67327007       0.67482534      -0.00670537      -0.00136508      -0.01071382
Si       0.67240000      -0.67335024       2.66921784       0.00307287      -0.01067138      -0.00705705
Si      -0.67453299       2.66885302       0.67314232       0.00554175      -0.00349840       0.00683472
Si       0.67333435       4.01552583      -0.67255022       0.00048215      -0.00268068      -0.00293818
Si      -0.67149730       0.67430005       4.01453821      -0.01255203       0.00467652       0.00963606
Si       2.66815397       2.66833230       2.66792374       0.00525544       0.00580366       0.00827986
8
Lattice="-3.342134480240631 3.342741222798307 3.3425134329045836 3.3423221211860357 -3.3417542977128196 3.3417141211249537 3.3410628706537517 3.3406826604929725 -3.3415264696180813" Properties=species:S:1:pos:R:3:forces:R:3 cutoff=-1.0 nneightol=1.2 n_minim_iter=21 energy=-1304.173836862503 stress="-5.6065916005504906e-05 4.4152025129113e-05 0.00018848643445683606 4.4152025129113e-05 1.6485677081204196e-05 0.00014354928910438966 0.00018848643445683606 0.00014354928910438966 3.288114903662505e-05" free_energy=-1304.173836862503 pbc="T T T"
Si       2.66678790       0.67116498      -0.67247632       0.00958365       0.01036557      -0.00514089
Si       4.01639369      -0.67307451       0.67344337      -0.00462882      -0.00261501       0.00114639
Si       0.67272157       0.67326442       0.67482299      -0.00675380      -0.00134748      -0.01064560
Si       0.67239306      -0.67334375       2.66922973       0.00313348      -0.01066823      -0.00707513
Si      -0.67453301       2.66884773       0.67314750       0.00550357      -0.00350648       0.00680481
Si       0.67332869       4.01551796      -0.67255034       0.00055577      -0.00270980      -0.00294963
Si      -0.67149811       0.67430735       4.01455480      -0.01259267       0.00462436       0.00959662
Si       2.66815776       2.66832454       2.66793155       0.00519882       0.00585707       0.00826344
8
Lattice="-3.3421398659988593 3.3427401994000543 3.34251391727186 3.3423228530348834 -3.341755863309643 3.3417125405778982 3.3410671052931407 3.3406830749709076 -3.341529542980379" Properties=species:S:1:pos:R:3:forces:R:3 cutoff=-1.0 nneightol=1.2 n_minim_iter=22 energy=-1304.173836862717 stress="-5.540457799511426e-05 4.410403522543571e-05 0.0001877970570913834 4.410403522543571e-05 1.664150391590625e-05 0.00014312571320247182 0.0001877970570913834 0.00014312571320247182 3.275214709261474e-05" free_energy=-1304.173836862717 pbc="T T T"
Si       2.66678993       0.67116411      -0.67247898       0.00957896       0.01037966      -0.00513119
Si       4.01639708      -0.67307394       0.67343972      -0.00462299      -0.00262804       0.00114172
Si       0.67272183       0.67326251       0.67482291      -0.00674423      -0.00132580      -0.01064889