2
Lattice="2.6952312911332577 4.913745240620862e-17 2.6952312911332577 2.6952312911332577 2.6952312911332577 5.604954668221618e-17 9.710560993522562e-17 2.6952312911332577 2.6952312911332577" Properties=species:S:1:pos:R:3:forces:R:3 n_minim_iter=1 energy=-8.666767872125327 stress="-0.014685534900345337 -4.90441406547128e-16 2.490281124599759e-16 -4.90441406547128e-16 -0.014685534900345316 -7.592859573148712e-17 2.490281124599759e-16 -7.592859573148712e-17 -0.014685534900345298" free_energy=-8.666767872125327 pbc="T T T"
Si       0.00000000       0.00000000       0.00000000      -0.00000000       0.00000000      -0.00000000
Si       1.34761565       1.34761565       1.34761565       0.00000000      -0.00000000       0.00000000
