2
Lattice="2.8058130440589175 5.1153496683839037e-17 2.8058130440589175 2.8058130440589175 2.8058130440589175 5.834918498902805e-17 1.0108972387783185e-16 2.8058130440589175 2.8058130440589175" Properties=species:S:1:pos:R:3:forces:R:3 n_minim_iter=1 energy=-8.55463489442393 stress="0.05385534414426211 -1.5963651059297563e-16 1.4335670303626106e-16 -1.5963651059297563e-16 0.053855344144262164 -3.5579422438137985e-16 1.4335670303626106e-16 -3.5579422438137985e-16 0.05385534414426225" free_energy=-8.55463489442393 pbc="T T T"
Si       0.00000000       0.00000000       0.00000000      -0.00000000       0.00000000      -0.00000000
Si       1.40290652       1.40290652       1.40290652       0.00000000      -0.00000000       0.00000000
