2
Lattice="2.574744525563095 4.694082730458608e-17 2.574744525563095 2.574744525563095 2.574744525563095 5.354392550839309e-17 9.276463151964273e-17 2.574744525563095 2.574744525563095" Properties=species:S:1:pos:R:3:forces:R:3 n_minim_iter=1 energy=-8.447726542278232 stress="-0.1002673798709598 8.258668295104304e-17 9.166927412073617e-17 8.258668295104304e-17 -0.10026737987095985 -3.796029083936618e-16 9.166927412073617e-17 -3.796029083936618e-16 -0.10026737987095982" free_energy=-8.447726542278232 pbc="T T T"
Si      -0.00000000       0.00000000       0.00000000      -0.00000000       0.00000000       0.00000000
Si       1.28737226       1.28737226       1.28737226       0.00000000      -0.00000000      -0.00000000
