2
Lattice="4.977744635985914 -1.508771673882609e-17 2.0565859815614063e-15 -1.5087716738825943e-17 4.977744635985913 -3.537155977559433e-15 2.488872317992957 2.4888723179929553 1.4243170208893436" Properties=species:S:1:pos:R:3:forces:R:3 cutoff=-1.0 nneightol=1.2 n_minim_iter=2 energy=-325.6049746104974 stress="0.05008660838127229 -1.3148527849910702e-17 7.544125022141479e-17 -1.3148527849910702e-17 0.05008660838127235 -3.8380473321939547e-16 7.544125022141479e-17 -3.8380473321939547e-16 0.05024196556837181" free_energy=-325.6049746104974 pbc="T T T"
Si      -0.00000000      -1.24443616      -0.35607926       0.00000000       0.00000000       0.00000000
Si      -0.00000000       1.24443616       0.35607926      -0.00000000      -0.00000000      -0.00000000
