2
Lattice="4.769475807953775 2.182819038336827e-17 1.6638402949122366e-16 2.182819038336777e-17 4.769475807953775 -2.618871455289722e-16 2.3847379039768875 2.3847379039768875 1.3153379941915555" Properties=species:S:1:pos:R:3:forces:R:3 cutoff=-1.0 nneightol=1.2 n_minim_iter=1 energy=-325.7134164010959 stress="-0.0016070002873998677 1.3955110705917206e-18 4.2401765467914164e-17 1.3955110705917206e-18 -0.0016070002873999015 -6.045421766878843e-17 4.2401765467914164e-17 -6.045421766878843e-17 -0.001982808641985777" free_energy=-325.7134164010959 pbc="T T T"
Si      -0.00000000      -1.19236895      -0.32883450       0.00000000       0.00000000      -0.00000000
Si      -0.00000000       1.19236895       0.32883450      -0.00000000      -0.00000000       0.00000000
