2
Lattice="5.045813302708093 -4.7824527792838165e-18 2.0880951494359458e-15 -4.7824527792726346e-18 5.045813302708092 -3.762921101857122e-15 2.522906651354046 2.522906651354047 1.5066823757010148" Properties=species:S:1:pos:R:3:forces:R:3 cutoff=-1.0 nneightol=1.2 n_minim_iter=2 energy=-325.4228072567046 stress="0.07260444911419288 -1.2960825331024377e-17 5.4257656010319414e-17 -1.2960825331024377e-17 0.072604449114193 6.051667415907253e-17 5.4257656010319414e-17 6.051667415907253e-17 0.06832366846194353" free_energy=-325.4228072567046 pbc="T T T"
Si      -0.00000000      -1.26145332      -0.37667059      -0.00000000       0.00000000       0.00000000
Si      -0.00000000       1.26145333       0.37667059       0.00000000      -0.00000000      -0.00000000
