2
Lattice="4.888761809512268 2.2374119885253437e-17 1.7054534331277617e-16 2.2374119885252923e-17 4.888761809512268 -2.6843702054828187e-16 2.444380904756134 2.444380904756134 1.348234986721306" Properties=species:S:1:pos:R:3:forces:R:3 cutoff=-1.0 nneightol=1.2 n_minim_iter=1 energy=-325.7087288779863 stress="0.014414864094106708 6.014958615102457e-17 -1.7583500719682145e-17 6.014958615102457e-17 0.014414864094107128 -1.138428129734599e-16 -1.7583500719682145e-17 -1.138428129734599e-16 0.011741520633315404" free_energy=-325.7087288779863 pbc="T T T"
Si      -0.00000000      -1.22219045      -0.33705875      -0.00000000      -0.00000000       0.00000000
Si      -0.00000000       1.22219045       0.33705875       0.00000000       0.00000000      -0.00000000
