2
Lattice="4.400257760005993 4.538414065996552e-17 -2.0478437514515474e-16 4.5384140659965154e-17 4.400257760005993 2.7961110087372283e-16 2.2001288800029966 2.2001288800029966 1.1887415414068379" Properties=species:S:1:pos:R:3 cutoff=-1.0 nneightol=1.2 n_minim_iter=1 energy=-324.63916173462593 free_energy=-324.63916173462593 pbc="T T T"
Si      -0.00000000      -1.10006444      -0.29718539
Si      -0.00000000       1.10006444       0.29718539
2
Lattice="4.415866572613935 6.761355712112576e-17 -3.501240457603953e-16 6.761355712112563e-17 4.415866572613936 4.579461899690199e-16 2.2079332863069676 2.207933286306968 1.1803526779083453" Properties=species:S:1:pos:R:3 cutoff=-1.0 nneightol=1.2 n_minim_iter=2 stress="-0.35402438131207953 -2.189225713273185e-16 1.8136641369324324e-16 -2.189225713273185e-16 -0.354024381312075 4.820697524093712e-16 1.8136641369324324e-16 4.820697524093712e-16 -0.34225742658943276" pbc="T T T"
Si      -0.00000000      -1.10396664      -0.29508817
Si      -0.00000000       1.10396664       0.29508817
