2
Lattice="5.002848407318474 5.0655920242781824e-17 1.4706587783366385e-16 5.0655920242781004e-17 5.002848407318474 -3.2134659119530384e-16 2.501424203659237 2.501424203659237 1.379431842552272" Properties=species:S:1:pos:R:3 cutoff=-1.0 nneightol=1.2 n_minim_iter=1 energy=-325.6008693667912 free_energy=-325.6008693667912 pbc="T T T"
Si      -0.00000000      -1.25071210      -0.34485796
Si      -0.00000000       1.25071210       0.34485796
2
Lattice="4.922793875607009 8.12692804561491e-17 2.6101314146854865e-15 8.126928045614798e-17 4.9227938756070095 -4.709431503213494e-15 2.4613969378035043 2.4613969378035034 1.4246613110634958" Properties=species:S:1:pos:R:3 cutoff=-1.0 nneightol=1.2 n_minim_iter=2 stress="0.041744961855333544 -1.4088751582524015e-16 3.5059784615972834e-16 -1.4088751582524015e-16 0.0417449618553341 -4.459935622315988e-16 3.5059784615972834e-16 -4.459935622315988e-16 0.03357654623987927" pbc="T T T"
Si      -0.00000000      -1.23069847      -0.35616533
Si      -0.00000000       1.23069847       0.35616533
