2
Lattice="4.728692111207258 4.7879973754067447e-17 1.390066617494346e-16 4.787997375406652e-17 4.728692111207258 -3.0373678493349653e-16 2.364346055603629 2.364346055603629 1.3038389214997819" Properties=species:S:1:pos:R:3 cutoff=-1.0 nneightol=1.2 n_minim_iter=1 stress="-0.020200832440616236 -7.162369224365699e-17 -1.2813160799276285e-17 -7.162369224365699e-17 -0.020200832440616562 -1.2883662577143103e-16 -1.2813160799276285e-17 -1.2883662577143103e-16 -0.0183355790740844" pbc="T T T"
Si      -0.00000000      -1.18217303      -0.32595973
Si      -0.00000000       1.18217303       0.32595973
