2
Lattice="4.965773057950212 2.0696296351169858e-16 2.8019466865353776e-15 2.069629635117137e-16 4.965773057950212 -4.743381620171703e-15 2.482886528975105 2.4828865289751074 1.493447367282671" Properties=species:S:1:pos:R:3 cutoff=-1.0 nneightol=1.2 n_minim_iter=1 stress="0.048158063870506175 6.609586252961342e-17 -1.24663135455385e-16 6.609586252961342e-17 0.04815806387050625 -1.3367919021780315e-17 -1.24663135455385e-16 -1.3367919021780315e-17 0.038847090608445434" pbc="T T T"
Si      -0.00000000      -1.24144326      -0.37336184
Si      -0.00000000       1.24144327       0.37336184
