2
Lattice="4.927606173759302 4.9894061343262444e-17 1.4485402485959449e-16 4.989406134326148e-17 4.927606173759302 -3.165135774200332e-16 2.463803086879651 2.463803086879651 1.3586853548664881" Properties=species:S:1:pos:R:3 cutoff=-1.0 nneightol=1.2 n_minim_iter=1 stress="0.028130466684931143 -4.142588563962619e-17 6.262297845422442e-17 -4.142588563962619e-17 0.0281304666849315 -8.300266717073124e-18 6.262297845422442e-17 -8.300266717073124e-18 0.02314988756663003" pbc="T T T"
Si      -0.00000000      -1.23190154      -0.33967134
Si      -0.00000000       1.23190154       0.33967134
