2
Lattice="4.8102373105121154 4.870565280245235e-17 1.4140379940832242e-16 4.870565280245137e-17 4.8102373105121154 -3.0897465538078505e-16 2.4051186552560577 2.4051186552560577 1.326323321459581" Properties=species:S:1:pos:R:3 cutoff=-1.0 nneightol=1.2 n_minim_iter=1 stress="-0.0013754079364913685 -3.368354432998822e-17 -6.945763321344911e-17 -3.368354432998822e-17 -0.0013754079364909344 1.2154597363270204e-16 -6.945763321344911e-17 1.2154597363270204e-16 -0.0013515384327813464" pbc="T T T"
Si      -0.00000000      -1.20255933      -0.33158083
Si      -0.00000000       1.20255933       0.33158083
