2
Lattice="4.532571088067336 5.4974188569860235e-17 -1.3575298217306073e-16 5.497418856985965e-17 4.532571088067336 1.4189507192492077e-16 2.266285544033668 2.266285544033668 1.23238700840288" Properties=species:S:1:pos:R:3 cutoff=-1.0 nneightol=1.2 n_minim_iter=1 stress="-0.1576952850043307 -6.395181493974411e-17 3.9315815124532023e-16 -6.395181493974411e-17 -0.15769528500432992 -8.407192479518745e-17 3.9315815124532023e-16 -8.407192479518745e-17 -0.15336197918503877" pbc="T T T"
Si      -0.00000000      -1.13314277      -0.30809675
Si      -0.00000000       1.13314277       0.30809675
