2
Lattice="2.4383670371218793 -4.512496734256596e-16 7.771694634619702e-17 -1.2191835185609394 2.111687798063351 -5.383110619141874e-17 1.3014677865434923e-16 -3.240558411656883e-17 4.2787184945066485" Properties=species:S:1:pos:R:3:forces:R:3 n_minim_iter=1 energy=-324.4805469703593 stress="-0.3030219414217742 7.479306893922946e-17 -2.3983552162538167e-16 7.479306893922946e-17 -0.30302194155458373 4.55104082301568e-17 -2.3983552162538167e-16 4.55104082301568e-17 -0.3317898510983154" free_energy=-324.4805469703593 pbc="T T T"
Si       0.00000000      -0.00000000       0.00000000      -0.00000000       0.00000000       0.00000001
Si      -0.00000000       1.40779187       2.13935925       0.00000000      -0.00000000      -0.00000001
2
Lattice="2.4310189314719763 -5.071159176760044e-16 2.6252506582195485e-16 -1.215509465735988 2.105324151988347 -1.7661877982738306e-16 4.532205009227433e-16 -9.368777005640504e-17 4.304623674927447" Properties=species:S:1:pos:R:3:forces:R:3 n_minim_iter=2 energy=-324.4828502122508 stress="-0.306229508681601 -5.016806029250958e-16 7.614635162380876e-17 -5.016806029250958e-16 -0.30622950880707267 -5.955800775562318e-16 7.614635162380876e-17 -5.955800775562318e-16 -0.311700787366215" free_energy=-324.4828502122508 pbc="T T T"
Si       0.00000000      -0.00000000       0.00000000      -0.00000000       0.00000000       0.00000001
Si      -0.00000000       1.40354944       2.15231184      -0.00000000      -0.00000000      -0.00000001
