2
Lattice="2.4972118113357684 -5.057610297652438e-16 1.0666770407458769e-16 -1.248605905667884 2.162648867362856 -6.978962143136645e-17 1.8177205476596168e-16 -3.5677369209106256e-17 4.351408287914001" Properties=species:S:1:pos:R:3:forces:R:3 n_minim_iter=1 energy=-324.8354524983536 stress="-0.1807804719131664 -5.129072756514673e-17 -8.059868479352285e-17 -5.129072756514673e-17 -0.18078047193818533 -4.946958024122548e-16 -8.059868479352285e-17 -4.946958024122548e-16 -0.18469088734795408" free_energy=-324.8354524983536 pbc="T T T"
Si       0.00000000      -0.00000000       0.00000000       0.00000000       0.00000000       0.00000001
Si      -0.00000000       1.44176591       2.17570415      -0.00000000      -0.00000000      -0.00000001
