2
Lattice="2.548189332576725 -5.160855218730697e-16 1.0884519463646267e-16 -1.2740946662883623 2.206796695781844 -7.121429109405428e-17 1.8548270868037175e-16 -3.6405679013834355e-17 4.440236959722403" Properties=species:S:1:pos:R:3:forces:R:3 n_minim_iter=1 energy=-325.04648185217036 stress="-0.11044440488922513 1.2516504822573751e-16 2.750200038045548e-16 1.2516504822573751e-16 -0.11044440483245505 -2.366406797138139e-16 2.750200038045548e-16 -2.366406797138139e-16 -0.10883674014955644" free_energy=-325.04648185217036 pbc="T T T"
Si       0.00000000      -0.00000000       0.00000000       0.00000000      -0.00000000       0.00000001
Si      -0.00000000       1.47119780       2.22011848      -0.00000000       0.00000000      -0.00000001
