2
Lattice="2.7895984199065826 -8.609235005557215e-16 -1.9233415523499555e-16 -1.3947992099532913 2.4158630979853006 7.03609256511022e-17 -3.4620147942299204e-16 -5.3637079624368685e-17 5.0126233406405225" Properties=species:S:1:pos:R:3:forces:R:3 n_minim_iter=1 energy=-325.0134084887204 stress="0.10074706450027221 2.1054020045557824e-18 -1.576088818793672e-18 2.1054020045557824e-18 0.1007470644571879 2.51671002054861e-16 -1.576088818793672e-18 2.51671002054861e-16 0.09480894557209425" free_energy=-325.0134084887204 pbc="T T T"
Si      -0.00000000      -0.00000000      -0.00000000       0.00000000      -0.00000000      -0.00000000
Si      -0.00000000       1.61057540       2.50631167      -0.00000000       0.00000000       0.00000000
