2
Lattice="2.7692356616961376 -8.546391633714134e-16 -1.90930206239788e-16 -1.3846178308480688 2.3982284320840135 6.984732394188397e-17 -3.4367437123161843e-16 -5.324555413607206e-17 4.976033544647981" Properties=species:S:1:pos:R:3:forces:R:3 n_minim_iter=1 energy=-325.1405922567275 stress="0.06979657383115978 -1.212753569298279e-16 3.484826230199914e-17 -1.212753569298279e-16 0.06979657384162176 1.4040058310949542e-16 3.484826230199914e-17 1.4040058310949542e-16 0.07255893236410889" free_energy=-325.1405922567275 pbc="T T T"
Si      -0.00000000      -0.00000000      -0.00000000       0.00000000      -0.00000000      -0.00000000
Si      -0.00000000       1.59881896       2.48801677      -0.00000000       0.00000000       0.00000000
