2
Lattice="2.706276551470966 -8.352087761227917e-16 -1.8658937094496773e-16 -1.353138275735483 2.3437042432295927 6.825933147601457e-17 -3.35860867700942e-16 -5.203500612882878e-17 4.862902456255974" Properties=species:S:1:pos:R:3:forces:R:3 n_minim_iter=1 energy=-325.2322747991933 stress="0.015103949499364217 1.4812461241570145e-16 1.6505760764773504e-17 1.4812461241570145e-16 0.015103949459145822 1.786480661192991e-17 1.6505760764773504e-17 1.786480661192991e-17 0.015835111404439377" free_energy=-325.2322747991933 pbc="T T T"
Si      -0.00000000      -0.00000000      -0.00000000      -0.00000000      -0.00000000       0.00000000
Si      -0.00000000       1.56246950       2.43145123       0.00000000       0.00000000      -0.00000000
