2
Lattice="2.706276551470966 -8.352087761227917e-16 -1.8658937094496773e-16 -1.353138275735483 2.3437042432295927 6.825933147601457e-17 -3.35860867700942e-16 -5.203500612882878e-17 4.862902456255974" Properties=species:S:1:pos:R:3:forces:R:3 n_minim_iter=1 energy=-325.215289627518 stress="0.030893859963753528 3.4363779756123555e-17 4.187745261092603e-17 3.4363779756123555e-17 0.030893859941374686 2.9247881124654606e-16 4.187745261092603e-17 2.9247881124654606e-16 0.032573674852478654" free_energy=-325.215289627518 pbc="T T T"
Si      -0.00000000      -0.00000000      -0.00000000      -0.00000000      -0.00000000       0.00000000
Si      -0.00000000       1.56246950       2.43145123      -0.00000000       0.00000000      -0.00000000
