2
Lattice="2.62103384510297 -5.308387420447756e-16 1.1195672761509727e-16 -1.3105169225514848 2.269881894159236 -7.325007793819857e-17 1.9078506095189882e-16 -3.7446399931643105e-17 4.567169010138346" Properties=species:S:1:pos:R:3:forces:R:3 n_minim_iter=2 energy=-325.2032189662018 stress="-0.037486710369658185 6.131719369535581e-16 3.922377382536454e-16 6.131719369535581e-16 -0.037486710365904216 -1.8493429423691741e-16 3.922377382536454e-16 -1.8493429423691741e-16 -0.037472857743765596" free_energy=-325.2032189662018 pbc="T T T"
Si       0.00000000      -0.00000000       0.00000000       0.00000000      -0.00000000       0.00000000
Si      -0.00000000       1.51325460       2.28358451      -0.00000000       0.00000000      -0.00000000
