2
Lattice="2.8096681633276916 -8.67117407764034e-16 -1.937179017696711e-16 -1.4048340816638458 2.4332440056353395 7.086713676543766e-17 -3.4869222318540806e-16 -5.4022971162819846e-17 5.0486866189946475" Properties=species:S:1:pos:R:3:forces:R:3 n_minim_iter=1 energy=-325.0134084887204 stress="0.10074706450027221 2.1054020045557824e-18 -1.576088818793672e-18 2.1054020045557824e-18 0.1007470644571879 2.51671002054861e-16 -1.576088818793672e-18 2.51671002054861e-16 0.09480894557209425" free_energy=-325.0134084887204 pbc="T T T"
Si      -0.00000000      -0.00000000      -0.00000000       0.00000000      -0.00000000      -0.00000000
Si      -0.00000000       1.62216267       2.52434331      -0.00000000       0.00000000       0.00000000
