2
Lattice="2.548189332576725 -5.160855218730697e-16 1.0884519463646267e-16 -1.2740946662883623 2.206796695781844 -7.121429109405428e-17 1.8548270868037175e-16 -3.6405679013834355e-17 4.440236959722403" Properties=species:S:1:pos:R:3:forces:R:3 n_minim_iter=1 energy=-325.11682090221314 stress="-0.0834157141636884 3.5882977496463393e-16 1.2203315089108888e-16 3.5882977496463393e-16 -0.08341571410221943 -3.9092329088814937e-17 1.2203315089108888e-16 -3.9092329088814937e-17 -0.0801797743344848" free_energy=-325.11682090221314 pbc="T T T"
Si       0.00000000      -0.00000000       0.00000000       0.00000000      -0.00000000       0.00000001
Si      -0.00000000       1.47119780       2.22011848      -0.00000000       0.00000000      -0.00000001
