2
Lattice="2.8294552107711373 -8.7322406957926535e-16 -1.9508215729386131e-16 -1.4147276053855686 2.450380091387175 7.136621755215166e-17 -3.5114788312895045e-16 -5.4403427156658127e-17 5.0842419215606345" Properties=species:S:1:pos:R:3:forces:R:3 n_minim_iter=1 energy=-324.86405492291703 stress="0.10507514176568211 3.736147118165775e-16 1.123834085496149e-16 3.736147118165775e-16 0.10507514176737359 2.0811027963057766e-16 1.123834085496149e-16 2.0811027963057766e-16 0.09355921125638247" free_energy=-324.86405492291703 pbc="T T T"
Si      -0.00000000      -0.00000000      -0.00000000       0.00000000      -0.00000000      -0.00000000
Si      -0.00000000       1.63358673       2.54212096      -0.00000000       0.00000000       0.00000000
