2
Lattice="4.600402248063169 -2.272713956392522e-17 8.617569537422949e-17 -2.2727139563925206e-17 4.600402248063169 -2.5055394373861746e-16 2.3002011240315845 2.3002011240315845 1.2687440145531348" Properties=species:S:1:pos:R:3:forces:R:3 cutoff=-1.0 nneightol=1.2 n_minim_iter=1 energy=-325.5029660268647 stress="-0.1270556334744478 8.527829992706834e-18 2.88530849504821e-17 8.527829992706834e-18 -0.12705563347444815 -1.5093185390203342e-16 2.88530849504821e-17 -1.5093185390203342e-16 -0.11191232987587064" free_energy=-325.5029660268647 pbc="T T T"
Si      -0.00000000      -1.15010056      -0.31718600      -0.00000000       0.00000000       0.00000000
Si      -0.00000000       1.15010056       0.31718600       0.00000000      -0.00000000      -0.00000000
2
Lattice="4.622208603685707 4.5028859461672336e-18 -1.5283965047802202e-16 4.502885946167534e-18 4.622208603685706 2.7971335770864267e-16 2.3111043018428536 2.311104301842853 1.2568010567590697" Properties=species:S:1:pos:R:3:forces:R:3 cutoff=-1.0 nneightol=1.2 n_minim_iter=2 energy=-325.5048718588038 stress="-0.12036712684840029 -4.3398256042430475e-17 -8.974251177877198e-17 -4.3398256042430475e-17 -0.12036712684840034 7.559786358521443e-17 -8.974251177877198e-17 7.559786358521443e-17 -0.12067040554331361" free_energy=-325.5048718588038 pbc="T T T"
Si      -0.00000000      -1.15555215      -0.31420026       0.00000000       0.00000000      -0.00000000
Si      -0.00000000       1.15555215       0.31420026      -0.00000000      -0.00000000       0.00000000
