2
Lattice="4.390701826476818 4.277355533562043e-18 -1.4518456219756536e-16 4.277355533562457e-18 4.390701826476818 2.657037048483694e-16 2.195350913238409 2.195350913238409 1.193853235232579" Properties=species:S:1:pos:R:3:forces:R:3 cutoff=-1.0 nneightol=1.2 n_minim_iter=1 energy=-324.8916918310059 stress="-0.297373834768336 -3.429132762371589e-17 -2.3254941984056565e-16 -3.429132762371589e-17 -0.2973738347683365 1.9161374157802507e-16 -2.3254941984056565e-16 1.9161374157802507e-16 -0.2840079358262744" free_energy=-324.8916918310059 pbc="T T T"
Si      -0.00000000      -1.09767546      -0.29846331       0.00000000       0.00000000       0.00000000
Si      -0.00000000       1.09767546       0.29846331      -0.00000000      -0.00000000       0.00000000
