2
Lattice="4.48618163260905 4.370370521425818e-18 -1.4834173259989717e-16 4.3703705214261756e-18 4.48618163260905 2.714816736629575e-16 2.243090816304525 2.243090816304525 1.2198146600697128" Properties=species:S:1:pos:R:3:forces:R:3 cutoff=-1.0 nneightol=1.2 n_minim_iter=1 energy=-325.2640918438376 stress="-0.19882710772806567 3.3660554852411193e-17 7.300950850108313e-17 3.3660554852411193e-17 -0.1988271077280655 -3.5033960296721294e-16 7.300950850108313e-17 -3.5033960296721294e-16 -0.19153747047279135" free_energy=-325.2640918438376 pbc="T T T"
Si      -0.00000000      -1.12154541      -0.30495367       0.00000000      -0.00000000       0.00000000
Si      -0.00000000       1.12154541       0.30495367      -0.00000000       0.00000000      -0.00000000
