2
Lattice="3.084522159066582 0.0 0.0 0.0 3.084522159066582 0.0 0.0 0.0 3.084522159066582" Properties=species:S:1:pos:R:3 Minim_Constant_Volume=F n_minim_iter=1 energy=-3187.060168079113 free_energy=-3187.060168079113 pbc="T T T"
Ti       0.00000000       0.00000000       0.00000000
Ti       1.54226108       1.54226108       1.54226108
