2
Lattice="3.340565096800739 0.0 0.0 0.0 3.340565096800739 0.0 0.0 3.5471584031930167e-34 3.340565096800739" Properties=species:S:1:pos:R:3 Minim_Constant_Volume=F n_minim_iter=1 stress="0.01966724757349565 2.9777607399428875e-17 9.641245172078216e-18 2.9777607399428875e-17 0.01966724757349565 1.023748124512254e-17 9.641245172078216e-18 1.023748124512254e-17 0.01966724757349566" pbc="T T T"
Ti       0.00000000       0.00000000       0.00000000
Ti       1.67028255       1.67028255       1.67028255
