2
Lattice="2.9987962484785107 0.0 0.0 0.0 2.9987962484785107 0.0 0.0 1.6414877257093592e-47 2.9987962484785107" Properties=species:S:1:pos:R:3 Minim_Constant_Volume=F n_minim_iter=1 stress="-0.1469762101148053 -6.372413652200382e-19 -8.400178416431522e-18 -6.372413652200382e-19 -0.14697621011480533 -1.5824299218730886e-17 -8.400178416431522e-18 -1.5824299218730886e-17 -0.1469762101148054" pbc="T T T"
Ti       0.00000000       0.00000000       0.00000000
Ti       1.49939812       1.49939812       1.49939812
