2
Lattice="2.6990177354175455 9.565463169883483e-17 2.6990177354175455 2.6990177354175455 2.6990177354175455 1.0225873589226375e-16 1.1834417878950332e-16 2.6990177354175455 2.6990177354175455" Properties=species:S:1:pos:R:3 n_minim_iter=1 stress="-0.0051943976004713115 -5.692959345010189e-17 -1.7868251606404213e-16 -5.692959345010189e-17 -0.005194397600471386 -9.009346973063081e-17 -1.7868251606404213e-16 -9.009346973063081e-17 -0.005194397600471096" pbc="T T T"
Si      -0.00000000       0.00000000       0.00000000
Si       1.34950887       1.34950887       1.34950887
