2
Lattice="2.855499208112041 1.0120041876124099e-16 2.855499208112041 2.855499208112041 2.855499208112041 1.0818741037940027e-16 1.2520544210718859e-16 2.855499208112041 2.855499208112041" Properties=species:S:1:pos:R:3 n_minim_iter=1 stress="0.05410300600974026 -5.267487788131221e-17 1.5803394674115753e-16 -5.267487788131221e-17 0.054103006009740315 8.761761865406388e-17 1.5803394674115753e-16 8.761761865406388e-17 0.05410300600974098" pbc="T T T"
Si       0.00000000       0.00000000       0.00000000
Si       1.42774960       1.42774960       1.42774960
