2
Lattice="2.83418871832831 1.0044516360865884e-16 2.83418871832831 2.83418871832831 2.83418871832831 1.0738001155503044e-16 1.242710383128142e-16 2.83418871832831 2.83418871832831" Properties=species:S:1:pos:R:3 n_minim_iter=1 stress="0.04037527252139458 2.0389185404043983e-16 -1.2377755957521922e-17 2.0389185404043983e-16 0.04037527252139442 -5.273898664357687e-16 -1.2377755957521922e-17 -5.273898664357687e-16 0.04037527252139472" pbc="T T T"
Si      -0.00000000       0.00000000       0.00000000
Si       1.41709436       1.41709436       1.41709436
