2
Lattice="2.917594636491438 1.0340111394522198e-16 2.917594636491438 2.917594636491438 2.917594636491438 1.1054004405328883e-16 1.2792814836499148e-16 2.917594636491438 2.917594636491438" Properties=species:S:1:pos:R:3 n_minim_iter=1 stress="0.06283747336558855 1.0539651939973357e-16 -4.722334744001599e-17 1.0539651939973357e-16 0.06283747336558854 1.087135672184054e-16 -4.722334744001599e-17 1.087135672184054e-16 0.06283747336558797" pbc="T T T"
Si       0.00000000       0.00000000       0.00000000
Si       1.45879732       1.45879732       1.45879732
