2
Lattice="2.768253291961708 9.810837684277743e-17 2.7682532919617087 2.768253291961708 2.7682532919617087 1.0488189038217235e-16 1.2137995916794743e-16 2.7682532919617087 2.7682532919617087" Properties=species:S:1:pos:R:3 n_minim_iter=1 stress="0.020911243908588232 4.194982426225866e-17 1.783071964987427e-16 4.194982426225866e-17 0.02091124390858832 -7.719421852548181e-17 1.783071964987427e-16 -7.719421852548181e-17 0.020911243908586723" pbc="T T T"
Si       0.00000000       0.00000000       0.00000000
Si       1.38412665       1.38412665       1.38412665
