2
Lattice="4.391109350384197 2.973687520274289e-17 -4.4309671809103697e-17 2.973687520274235e-17 4.391109350384197 2.8374312539491233e-16 2.1955546751920987 2.1955546751920987 1.1931891777716055" Properties=species:S:1:pos:R:3:forces:R:3 cutoff=-1.0 nneightol=1.2 n_minim_iter=1 energy=-324.6332934432441 stress="-0.3688703414619179 -2.6013063903436697e-18 -2.414393000396607e-16 -2.6013063903436697e-18 -0.36887034146191794 -7.623815084893284e-16 -2.414393000396607e-16 -7.623815084893284e-16 -0.3547095353534881" free_energy=-324.6332934432441 pbc="T T T"
Si      -0.00000000      -1.09777734      -0.29829729       0.00000000      -0.00000000       0.00000000
Si      -0.00000000       1.09777734       0.29829729      -0.00000000       0.00000000      -0.00000000
