2
Lattice="4.9769596123189626 -3.4871189911896453e-17 2.3468196399869733e-15 -3.487118991188561e-17 4.9769596123189626 -3.888002221449625e-15 2.4884798061594804 2.488479806159482 1.4861052211825603" Properties=species:S:1:pos:R:3:forces:R:3 cutoff=-1.0 nneightol=1.2 n_minim_iter=1 energy=-325.4896522344409 stress="0.06756018498795349 -3.4063355729323593e-17 -1.3683653239257447e-17 -3.4063355729323593e-17 0.06756018498795323 3.2416224410324606e-17 -1.3683653239257447e-17 3.2416224410324606e-17 0.06409914151536801" free_energy=-325.4896522344409 pbc="T T T"
Si      -0.00000000      -1.24423990      -0.37152631       0.00000000       0.00000000       0.00000000
Si      -0.00000000       1.24423990       0.37152631      -0.00000000      -0.00000000      -0.00000000
