2
Lattice="4.5781864231101705 3.100377318251195e-17 -4.6197423407630915e-17 3.100377318251137e-17 4.578186423110174 2.95831604425924e-16 2.2890932115550853 2.289093211555087 1.2440233339663933" Properties=species:S:1:pos:R:3:forces:R:3 cutoff=-1.0 nneightol=1.2 n_minim_iter=2 energy=-325.5036277496288 stress="-0.1212645369728512 3.119144091030105e-17 7.91944703005875e-18 3.119144091030105e-17 -0.12126453697285133 2.14817885711799e-16 7.91944703005875e-18 2.14817885711799e-16 -0.12157728454845639" free_energy=-325.5036277496288 pbc="T T T"
Si      -0.00000000      -1.14454660      -0.31100583      -0.00000000       0.00000000       0.00000000
Si      -0.00000000       1.14454661       0.31100583       0.00000000      -0.00000000      -0.00000000
