2
Lattice="4.926489864914447 -5.838179118883455e-18 2.6948862166864564e-16 -5.838179118883773e-18 4.926489864914447 -2.4043795958424964e-16 2.4632449324572234 2.4632449324572234 1.3587195485428734" Properties=species:S:1:pos:R:3:forces:R:3 cutoff=-1.0 nneightol=1.2 n_minim_iter=1 energy=-325.6704024527795 stress="0.03859889473206534 -8.285533259384009e-17 -9.848468264059687e-17 -8.285533259384009e-17 0.038598894732065236 5.97068008131228e-17 -9.848468264059687e-17 5.97068008131228e-17 0.03106160465136786" free_energy=-325.6704024527795 pbc="T T T"
Si      -0.00000000      -1.23162246      -0.33967989       0.00000000       0.00000000      -0.00000000
Si      -0.00000000       1.23162247       0.33967989      -0.00000000      -0.00000000       0.00000000
