2
Lattice="5.001715052961486 -5.927325373947944e-18 2.736035864402038e-16 -5.92732537394825e-18 5.001715052961486 -2.441093343803664e-16 2.500857526480743 2.500857526480743 1.3794665583500478" Properties=species:S:1:pos:R:3:forces:R:3 cutoff=-1.0 nneightol=1.2 n_minim_iter=1 energy=-325.6391444823618 stress="0.04906583816677621 7.087553452485429e-17 -1.1697964791350547e-16 7.087553452485429e-17 0.04906583816677647 -3.5568838400786175e-18 -1.1697964791350547e-16 -3.5568838400786175e-18 0.03728123094980496" free_energy=-325.6391444823618 pbc="T T T"
Si      -0.00000000      -1.25042876      -0.34486664       0.00000000       0.00000000      -0.00000000
Si      -0.00000000       1.25042876       0.34486664      -0.00000000      -0.00000000       0.00000000
