2
Lattice="4.888000090493672 -5.7925664811889735e-18 2.6738315580118024e-16 -5.7925664811893056e-18 4.888000090493672 -2.3855946128620233e-16 2.444000045246836 2.444000045246836 1.348104118417469" Properties=species:S:1:pos:R:3:forces:R:3 cutoff=-1.0 nneightol=1.2 n_minim_iter=1 energy=-325.694009040745 stress="0.026507031979221295 -1.1506580381098964e-17 1.8313754225169147e-17 -1.1506580381098964e-17 0.02650703197922109 3.104297876612898e-17 1.8313754225169147e-17 3.104297876612898e-17 0.0225271052137252" free_energy=-325.694009040745 pbc="T T T"
Si      -0.00000000      -1.22200002      -0.33702603       0.00000000       0.00000000       0.00000000
Si      -0.00000000       1.22200002       0.33702603      -0.00000000      -0.00000000      -0.00000000
