2
Lattice="4.9342455693298675 -4.035767812076795e-18 2.2590530980608234e-15 -4.0357678120769465e-18 4.934245569329867 -3.891544504366825e-15 2.4671227846649337 2.467122784664932 1.4174493520743425" Properties=species:S:1:pos:R:3:forces:R:3 cutoff=-1.0 nneightol=1.2 n_minim_iter=2 energy=-325.6116615641074 stress="0.047018865351825374 -3.121714235691782e-17 -3.703143990991579e-18 -3.121714235691782e-17 0.047018865351825326 -9.393940271390665e-17 -3.703143990991579e-18 -9.393940271390665e-17 0.0418332140333652" free_energy=-325.6116615641074 pbc="T T T"
Si      -0.00000000      -1.23356139      -0.35436234      -0.00000000      -0.00000000       0.00000000
Si      -0.00000000       1.23356139       0.35436234       0.00000000       0.00000000      -0.00000000
