2
Lattice="4.62263761494298 3.13047995151925e-17 -4.664597013340602e-17 3.130479951519192e-17 4.622637614942984 2.987039355595284e-16 2.31131880747149 2.311318807471492 1.2561019858062334" Properties=species:S:1:pos:R:3:forces:R:3 cutoff=-1.0 nneightol=1.2 n_minim_iter=2 energy=-325.5036277496288 stress="-0.1212645369728512 3.119144091030105e-17 7.91944703005875e-18 3.119144091030105e-17 -0.12126453697285133 2.14817885711799e-16 7.91944703005875e-18 2.14817885711799e-16 -0.12157728454845639" free_energy=-325.5036277496288 pbc="T T T"
Si      -0.00000000      -1.15565940      -0.31402550      -0.00000000       0.00000000       0.00000000
Si      -0.00000000       1.15565940       0.31402550       0.00000000      -0.00000000      -0.00000000
