2
Lattice="4.532854867196134 3.0696784967599015e-17 -4.573999313093529e-17 3.069678496759846e-17 4.532854867196134 2.929023862426105e-16 2.266427433598067 2.266427433598067 1.2317054621913612" Properties=species:S:1:pos:R:3:forces:R:3 cutoff=-1.0 nneightol=1.2 n_minim_iter=1 energy=-325.3973098830296 stress="-0.15734184588501154 5.914479235333832e-17 -1.3629478209232314e-16 5.914479235333832e-17 -0.15734184588501093 7.2128663013679e-17 -1.3629478209232314e-16 7.2128663013679e-17 -0.15493197080173046" free_energy=-325.3973098830296 pbc="T T T"
Si      -0.00000000      -1.13321372      -0.30792637       0.00000000       0.00000000      -0.00000000
Si      -0.00000000       1.13321372       0.30792637      -0.00000000      -0.00000000       0.00000000
