2
Lattice="4.964387430094537 -5.883089953931884e-18 2.7156169253350525e-16 -5.883089953932204e-18 4.964387430094537 -2.4228755503556805e-16 2.4821937150472686 2.4821937150472686 1.3691716481237706" Properties=species:S:1:pos:R:3:forces:R:3 cutoff=-1.0 nneightol=1.2 n_minim_iter=1 energy=-325.6704024527795 stress="0.03859889473206534 -8.285533259384009e-17 -9.848468264059687e-17 -8.285533259384009e-17 0.038598894732065236 5.97068008131228e-17 -9.848468264059687e-17 5.97068008131228e-17 0.03106160465136786" free_energy=-325.6704024527795 pbc="T T T"
Si      -0.00000000      -1.24109686      -0.34229291       0.00000000       0.00000000      -0.00000000
Si      -0.00000000       1.24109686       0.34229291      -0.00000000      -0.00000000       0.00000000
