2
Lattice="4.926489864914447 -5.83817911888346e-18 2.6948862166864564e-16 -5.838179118883795e-18 4.926489864914447 -2.4043795958424964e-16 2.4632449324572234 2.4632449324572234 1.3587195485428734" Properties=species:S:1:pos:R:3:forces:R:3 cutoff=-1.0 nneightol=1.2 n_minim_iter=1 energy=-325.694009040745 stress="0.026507031979221295 -1.1506580381098964e-17 1.8313754225169147e-17 -1.1506580381098964e-17 0.02650703197922109 3.104297876612898e-17 1.8313754225169147e-17 3.104297876612898e-17 0.0225271052137252" free_energy=-325.694009040745 pbc="T T T"
Si      -0.00000000      -1.23162246      -0.33967989       0.00000000       0.00000000       0.00000000
Si      -0.00000000       1.23162247       0.33967989      -0.00000000      -0.00000000      -0.00000000
