2
Lattice="3.472631217521441 -1.6176759578766793e-16 -2.215462962357648e-16 -1.73631560876072 3.007386851515919 9.732173642110774e-17 -2.215462962357648e-16 -1.5532352328226627e-17 3.4993350184804286" Properties=species:S:1:pos:R:3:forces:R:3 n_minim_iter=1 energy=-325.32708581709596 stress="0.07640688829267202 2.4664136410449235e-16 -1.2493457858410776e-16 2.4664136410449235e-16 0.07640688874728532 8.999846542381014e-17 -1.2493457858410776e-16 8.999846542381014e-17 0.08526491674446258" free_energy=-325.32708581709596 pbc="T T T"
Si      -0.00000000       0.00000000       0.00000000      -0.00000000       0.00000001       0.00000001
Si      -0.00000000       2.00492457       1.74966751       0.00000000      -0.00000001      -0.00000001
