2
Lattice="3.4987422070984904 -1.6298393917195935e-16 -2.2321212041043047e-16 -1.7493711035492447 3.0299996318013345 9.805350627691339e-17 -2.2321212041043047e-16 -1.5649141317423944e-17 3.52564679605506" Properties=species:S:1:pos:R:3:forces:R:3 n_minim_iter=1 energy=-325.2589539752181 stress="0.08172434985742036 2.9054356910846514e-17 2.697970874165348e-16 2.9054356910846514e-17 0.08172435036071309 -2.171186607491054e-16 2.697970874165348e-16 -2.171186607491054e-16 0.08689744169203967" free_energy=-325.2589539752181 pbc="T T T"
Si      -0.00000000       0.00000000       0.00000000      -0.00000000       0.00000000       0.00000001
Si      -0.00000000       2.01999976       1.76282340       0.00000000      -0.00000000      -0.00000001
