2
Lattice="2.913252071324126 -7.155514550572359e-16 -5.027565003765641e-15 -1.456626035662063 2.5229502964087636 -1.0884229831885686e-14 -5.976939467285896e-15 -1.8709569722416522e-14 3.616129939468515" Properties=species:S:1:pos:R:3:forces:R:3 n_minim_iter=1 energy=-325.12818882098435 stress="-0.14603869656090823 3.909274376723766e-16 -2.851996093937463e-15 3.909274376723766e-16 -0.1460386971980542 -1.0226123657585778e-14 -2.851996093937463e-15 -1.0226123657585778e-14 -0.15614248920677287" free_energy=-325.12818882098435 pbc="T T T"
Si       0.00000000       0.00000000       0.00000000      -0.00000000      -0.00000000       0.00000000
Si      -0.00000000       1.68196687       1.80806497       0.00000000       0.00000000      -0.00000000
