2
Lattice="3.5994802880851062 -1.6767667967467803e-16 -2.296389902202379e-16 -1.7997401440425527 3.117241369040087 1.0087672715792165e-16 -2.296389902202379e-16 -1.6099721660899153e-17 3.627159531617746" Properties=species:S:1:pos:R:3:forces:R:3 n_minim_iter=1 energy=-325.0445698958948 stress="0.08820783350011772 -5.691358652064783e-17 -1.0473646021444038e-16 -5.691358652064783e-17 0.08820783395236675 2.4932484242142984e-16 -1.0473646021444038e-16 2.4932484242142984e-16 0.09897832802733321" free_energy=-325.0445698958948 pbc="T T T"
Si      -0.00000000       0.00000000       0.00000000       0.00000000      -0.00000000       0.00000000
Si      -0.00000000       2.07816092       1.81357977      -0.00000000       0.00000000      -0.00000000
