1
Lattice="2.5154731993136696 2.041452160699345e-17 2.389207732492074e-52 1.2577365996568348 2.1784636931445545 -2.0649483479184017e-50 -1.9707780569111823e-50 3.347077882858166e-49 2.3668528997545972" Properties=species:S:1:pos:R:3:forces:R:3 cutoff=-1.0 nneightol=1.2 n_minim_iter=1 energy=-162.7018310847302 stress="-0.13977048015154567 -1.5514826531197677e-17 -6.4199282198059395e-18 -1.5514826531197677e-17 -0.13977048015154642 -8.994586932957279e-18 -6.4199282198059395e-18 -8.994586932957279e-18 -0.14534918929277857" free_energy=-162.7018310847302 pbc="T T T"
Si       0.00000000       0.00000000       0.00000000      -0.00000000      -0.00000000      -0.00000000
