1
Lattice="2.7688826727372144 1.9383725370186826e-17 1.0394306821401949e-51 1.3844413363686072 2.3979227346889815 -2.3259232037849227e-50 -9.36608136244751e-51 2.5791902682394146e-49 2.585444062807937" Properties=species:S:1:pos:R:3:forces:R:3 cutoff=-1.0 nneightol=1.2 n_minim_iter=1 energy=-162.759897307865 stress="0.06841106937188232 1.4147619595498275e-18 -2.021088513642614e-19 1.4147619595498275e-18 0.06841106937188252 2.9027883777192016e-17 -2.021088513642614e-19 2.9027883777192016e-17 0.07427574350558286" free_energy=-162.759897307865 pbc="T T T"
Si       0.00000000       0.00000000       0.00000000      -0.00000000       0.00000000       0.00000000
