1
Lattice="2.768882672737215 1.938372537018683e-17 1.0394306821401949e-51 1.3844413363686074 2.3979227346889824 -2.325923203784924e-50 -7.424944663301542e-51 2.066420299205168e-49 2.5854440628079374" Properties=species:S:1:pos:R:3:forces:R:3 cutoff=-1.0 nneightol=1.2 n_minim_iter=1 energy=-162.7847486268951 stress="0.05753389120929693 3.617289101121718e-18 -1.0335111717490623e-18 3.617289101121718e-18 0.05753389120929693 5.968527016850835e-18 -1.0335111717490623e-18 5.968527016850835e-18 0.06401635974496964" free_energy=-162.7847486268951 pbc="T T T"
Si       0.00000000       0.00000000       0.00000000       0.00000000      -0.00000000       0.00000000
