1
Lattice="2.6171477897026434 1.8321496431857697e-17 9.824698385009904e-52 1.3085738948513215 2.266516471340783 -2.1984625176573994e-50 -5.1832950647763466e-51 1.468510228914099e-49 2.4437616230551638" Properties=species:S:1:pos:R:3:forces:R:3 cutoff=-1.0 nneightol=1.2 n_minim_iter=1 energy=-162.8262656643664 stress="-0.03151275151488778 4.266225326330472e-17 -2.8720731509658152e-18 4.266225326330472e-17 -0.03151275151488829 5.7441463019316304e-18 -2.8720731509658152e-18 5.7441463019316304e-18 -0.03347212206126386" free_energy=-162.8262656643664 pbc="T T T"
Si       0.00000000       0.00000000       0.00000000      -0.00000000      -0.00000000      -0.00000000
