1
Lattice="2.7892428353473937 1.952625788137406e-17 1.0470738292907612e-51 1.3946214176736969 2.4155551527345787 -2.3430261945017647e-50 -9.434952081108581e-51 2.598155583664656e-49 2.604455363668242" Properties=species:S:1:pos:R:3:forces:R:3 cutoff=-1.0 nneightol=1.2 n_minim_iter=1 energy=-162.759897307865 stress="0.06841106937188232 1.4147619595498275e-18 -2.021088513642614e-19 1.4147619595498275e-18 0.06841106937188252 2.9027883777192016e-17 -2.021088513642614e-19 2.9027883777192016e-17 0.07427574350558286" free_energy=-162.759897307865 pbc="T T T"
Si       0.00000000       0.00000000       0.00000000      -0.00000000       0.00000000       0.00000000
