4
Lattice="2.0523716603292583 -3.5548119917047725 6.722656023458128e-17 2.0523716603292583 3.5548119917047725 -6.722656023458126e-17 -6.805586274103855e-31 -1.668825700939686e-16 6.808702472774542" Properties=species:S:1:pos:R:3:forces:R:3 cutoff=-1.0 nneightol=1.2 n_minim_iter=3 energy=-651.9342454213028 stress="0.06749071713169909 2.7247773509079377e-17 -2.831423829322041e-17 2.7247773509079377e-17 0.0674907171316993 1.5721312858019333e-17 -2.831423829322041e-17 1.5721312858019333e-17 0.06776824923812358" free_energy=-651.9342454213028 pbc="T T T"
Si       2.05237166       1.18493733       0.44085344       0.00000000       0.00000000       0.00761394
Si       2.05237166      -1.18493733       3.84520468      -0.00000000      -0.00000000       0.00761394
Si       2.05237166       1.18493733       2.96349780       0.00000000       0.00000000      -0.00761394
Si       2.05237166      -1.18493733      -0.44085344      -0.00000000      -0.00000000      -0.00761394
