2
Lattice="4.955964620985993 -1.5884737612626765e-16 2.432328578883243e-15 -1.588473761262527e-16 4.955964620985993 -5.014149706894629e-15 2.4779823104929957 2.4779823104929983 1.4992894560783692" Properties=species:S:1:pos:R:3 cutoff=-1.0 nneightol=1.2 n_minim_iter=1 energy=-325.53118476581113 free_energy=-325.53118476581113 pbc="T T T"
Si      -0.00000000      -1.23899115      -0.37482236
Si      -0.00000000       1.23899116       0.37482236
