2
Lattice="4.728111693632506 -3.0143172087664146e-17 1.4877455818337193e-16 -3.01431720876635e-17 4.728111693632506 -2.164178796863938e-16 2.364055846816253 2.364055846816253 1.30409366721095" Properties=species:S:1:pos:R:3 cutoff=-1.0 nneightol=1.2 n_minim_iter=1 energy=-325.6825839533545 free_energy=-325.6825839533545 pbc="T T T"
Si      -0.00000000      -1.18202792      -0.32602342
Si      -0.00000000       1.18202792       0.32602342
