2
Lattice="4.809646883770833 -3.066298410286034e-17 1.513401409519777e-16 -3.066298410285978e-17 4.809646883770832 -2.2014995585399525e-16 2.4048234418854166 2.404823441885416 1.3265824602014857" Properties=species:S:1:pos:R:3 cutoff=-1.0 nneightol=1.2 n_minim_iter=2 stress="-0.0019511700461551566 -9.342876416592292e-17 -2.954091477639223e-16 -9.342876416592292e-17 -0.0019511700461551382 -1.4902726103348534e-17 -2.954091477639223e-16 -1.4902726103348534e-17 -0.0019226914694013466" pbc="T T T"
Si      -0.00000000      -1.20241172      -0.33164562
Si      -0.00000000       1.20241172       0.33164562
