2
Lattice="4.917616618900757 -1.8840266552598102e-16 2.499018434338661e-15 -1.8840266552598092e-16 4.917616618900755 -4.975764481183778e-15 2.4588083094503785 2.4588083094503768 1.4275910693041118" Properties=species:S:1:pos:R:3 cutoff=-1.0 nneightol=1.2 n_minim_iter=2 stress="0.0425103589241513 -5.911986494804939e-16 4.672627222236295e-16 -5.911986494804939e-16 0.04251035892415071 -5.55377654780151e-16 4.672627222236295e-16 -5.55377654780151e-16 0.03325235317397147" pbc="T T T"
Si      -0.00000000      -1.22940415      -0.35689777
Si      -0.00000000       1.22940416       0.35689777
