2
Lattice="4.686267802757638 -2.987640436194456e-17 1.4745790012176869e-16 -2.9876404361943876e-17 4.686267802757638 -2.1450257676468755e-16 2.343133901378819 2.343133901378819 1.2925524100162709" Properties=species:S:1:pos:R:3 cutoff=-1.0 nneightol=1.2 n_minim_iter=1 stress="-0.06589476471232962 -3.278621091139867e-16 3.0879369996266017e-16 -3.278621091139867e-16 -0.0658947647123284 1.1437309876598624e-15 3.0879369996266017e-16 1.1437309876598624e-15 -0.059590259059635345" pbc="T T T"
Si      -0.00000000      -1.17156695      -0.32313810
Si      -0.00000000       1.17156695       0.32313810
