2
Lattice="4.600261751044637 -2.932808922360787e-17 1.4475163741610327e-16 -2.9328089223607164e-17 4.600261751044637 -2.1056585771953614e-16 2.3001308755223184 2.3001308755223184 1.2688304773191668" Properties=species:S:1:pos:R:3 cutoff=-1.0 nneightol=1.2 n_minim_iter=1 stress="-0.09423513734187548 -2.283413850756992e-16 -3.7762834595649098e-16 -2.283413850756992e-16 -0.09423513734187651 -7.94189138399365e-16 -3.7762834595649098e-16 -7.94189138399365e-16 -0.08382858408978586" pbc="T T T"
Si      -0.00000000      -1.15006544      -0.31720762
Si      -0.00000000       1.15006544       0.31720762
