18
Lattice="0.0 -2.7455616706084913 2.7455616706084913 2.7455616706084913 -2.7455616706084913 0.0 22.07658942655622 22.07658942655622 22.07658942655622" Properties=species:S:1:pos:R:3:travel:I:3:map_shift:I:3:n_neighb:I:1:orig_index:I:1:forces:R:3 cutoff=2.0 nneightol=1.2 bulk_struct_test=bulk_Si_diamond supercell_a1_in_bulk_lattice_coords="1 -1 0" n_minim_iter=0 pbc="T T T"
Si       0.03909516       0.03909516       0.03909516        0        0        0        0        0        0       21        1      -0.00027308      -0.00027308      -0.00027308
Si       1.40578335       1.40578335       1.40578335        0        0        0        0        0        0       21        2       0.00064920       0.00064920       0.00064920
Si       2.77070701       0.02514534       2.77070701        0       -1        0        0        0        0       20        3      -0.00168422      -0.00168422      -0.00168422
Si      -1.25991372      -4.00547539      -1.25991372        0       -1        1        0        0        0       20        4       0.00119573       0.00119573       0.00119573
Si      -2.71070859       0.03485308      -2.71070859        1       -1        1        0        0        0       20        5      -0.00228787      -0.00228787      -0.00228787
Si      -1.31958960       1.42597207      -1.31958960        1       -1        1        0        0        0       20        6      -0.00011980      -0.00011980      -0.00011980
Si       5.48756684       5.48756684       5.48756684        0        0        0        0        0        0       21        1      -0.00149399      -0.00149399      -0.00149399
Si       6.85346354       6.85346354       6.85346354        0        0        0        0        0        0       21        2      -0.00119194      -0.00119194      -0.00119194
Si       8.21873528       5.47317361       8.21873528        0       -1        0        0        0        0       20        3      -0.00219582      -0.00219582      -0.00219582
Si       4.13629224       1.39073057       4.13629224        0       -1        1        0        0        0       20        4       0.00219582       0.00219582       0.00219582
Si       2.75600230       5.50156397       2.75600230        1       -1        1        0        0        0       20        5       0.00119194       0.00119194       0.00119194
Si       4.12189900       6.86746067       4.12189900        1       -1        1        0        0        0       20        6       0.00149399       0.00149399       0.00149399
Si      10.92905545      10.92905545      10.92905545        0        0        0        0        0        0       21        1       0.00011980       0.00011980       0.00011980
Si      12.32017443      12.32017443      12.32017443        0        0        0        0        0        0       21        2       0.00228787       0.00228787       0.00228787
Si      13.61494124      10.86937957      13.61494124        0       -1        0        0        0        0       20        3      -0.00119573      -0.00119573      -0.00119573
Si       9.58432051       6.83875884       9.58432051        0       -1        1        0        0        0       20        4       0.00168422       0.00168422       0.00168422
Si       8.20368249      10.94924416       8.20368249        1       -1        1        0        0        0       20        5      -0.00064920      -0.00064920      -0.00064920
Si       9.57037069      12.31593236       9.57037069        1       -1        1        0        0        0       20        6       0.00027308       0.00027308       0.00027308
