8
Lattice="5.686776679839529 1.6315655148799764e-16 1.679049219373747e-48 -2.8433883399197644 4.924893070389959 -7.174335773865258e-48 -2.400588283883095e-48 6.582627598542586e-48 5.720279922009709" Properties=species:S:1:pos:R:3:tags:I:1 spacegroup="P 1" unit_cell=conventional n_minim_iter=4 stress="0.24512883986184014 -8.06973594508848e-16 5.20578073308158e-17 -8.06973594508848e-16 0.24512883986184109 -1.3042771324930175e-16 5.20578073308158e-17 -1.3042771324930175e-16 0.24497961556917736" pbc="T T T"
Ti       2.84338834       3.33272834       1.43006998        0
Ti      -1.46452896       4.12881317       4.29020994        1
Ti       1.46452897       4.12881317       4.29020994        2
Ti       1.37885938       0.79608976       1.43006998        3
Ti       4.30791731       0.79608976       1.43006998        4
Ti       0.00000000       1.59217459       4.29020994        5
Al       0.00000000       3.28326698       1.43006998        6
Al       2.84338834       1.64163595       4.29020994        7
