8
Lattice="5.652568318439034 -1.5558994872238577e-16 1.070627607493929e-48 -2.826284159219517 4.8952677603952885 -4.1383498020519405e-48 1.4722210284673166e-48 2.5886183365277855e-48 5.435252703124922" Properties=species:S:1:pos:R:3:tags:I:1 spacegroup="P 1" unit_cell=conventional n_minim_iter=6 stress="0.2695198139228513 5.968804984992995e-16 9.109027256323235e-17 5.968804984992995e-16 0.2695198139228481 5.707632838635494e-18 9.109027256323235e-17 5.707632838635494e-18 0.2698235426665758" pbc="T T T"
Ti       2.82628416       3.29990007       1.35881317        0
Ti      -1.44465097       4.09758637       4.07643952        1
Ti       1.44465098       4.09758637       4.07643952        2
Ti       1.38163319       0.79769119       1.35881317        3
Ti       4.27093514       0.79769119       1.35881317        4
Ti       0.00000000       1.59537749       4.07643952        5
Al       0.00000000       3.26351674       1.35881317        6
Al       2.82628416       1.63176082       4.07643952        7
