8
Lattice="5.686538509629345 2.0176717232084978e-17 1.422771254049721e-47 -2.8432692548146723 4.924686808937513 -1.8110589928238835e-46 7.722689752874145e-47 3.1511597592812092e-49 5.837509284549607" Properties=species:S:1:pos:R:3:tags:I:1 spacegroup="P 1" unit_cell=conventional n_minim_iter=6 stress="0.19450696998158631 6.099460169606472e-16 -1.22361138521933e-17 6.099460169606472e-16 0.19450696998158545 2.0658699822216808e-16 -1.22361138521933e-17 2.0658699822216808e-16 0.19466075388297852" pbc="T T T"
Ti       2.84326926       3.47177417       1.45937732        0
Ti      -1.58500573       4.19823295       4.37813196        1
Ti       1.58500574       4.19823295       4.37813196        2
Ti       1.25826353       0.72646371       1.45937732        3
Ti       4.42827499       0.72646371       1.45937732        4
Ti       0.00000000       1.45292250       4.37813196        5
Al       0.00000000       3.28312947       1.45937732        6
Al       2.84326926       1.64156720       4.37813196        7
