8
Lattice="5.7139736249472515 2.7901450388451e-16 -1.4304462634638927e-48 -2.8569868124736257 4.948446315758569 -2.832364795184411e-48 -1.1589301905889747e-48 -4.332831865716686e-49 4.972165111494732" Properties=species:S:1:pos:R:3:tags:I:1 spacegroup="P 1" unit_cell=conventional n_minim_iter=4 stress="0.5204015719366261 2.781286636414699e-15 2.016746254622471e-16 2.781286636414699e-15 0.5204015719366312 -1.20169822629296e-16 2.016746254622471e-16 -1.20169822629296e-16 0.5202601151962986" pbc="T T T"
Ti       2.85698682       3.31948891       1.24304128        0
Ti      -1.44626403       4.13397009       3.72912383        1
Ti       1.44626404       4.13397009       3.72912383        2
Ti       1.41072279       0.81448613       1.24304128        3
Ti       4.30325085       0.81448613       1.24304128        4
Ti       0.00000000       1.62896731       3.72912383        5
Al       0.00000000       3.29896916       1.24304128        6
Al       2.85698682       1.64948706       3.72912383        7
