2
Lattice="2.6261959060843236 -2.5862113391562834e-17 2.6261959060843236 2.6261959060843236 2.6261959060843236 -3.8993884054365245e-17 4.0677290195737194e-17 2.6261959060843236 2.6261959060843236" Properties=species:S:1:pos:R:3 n_minim_iter=1 energy=-326.18744676103654 free_energy=-326.18744676103654 pbc="T T T"
Si       0.00000000       0.00000000       0.00000000
Si       1.31309795       1.31309795       1.31309795
