2
Lattice="2.5489095901284147 -2.5101017289692797e-17 2.5489095901284147 2.5489095901284147 2.5489095901284147 -3.784633309048184e-17 3.948019827467586e-17 2.5489095901284147 2.5489095901284147" Properties=species:S:1:pos:R:3 n_minim_iter=1 energy=-325.79468531197125 free_energy=-325.79468531197125 pbc="T T T"
Si       0.00000000       0.00000000       0.00000000
Si       1.27445480       1.27445480       1.27445480
