2
Lattice="2.5751888611436633 -2.5359808907359013e-17 2.5751888611436633 2.5751888611436633 2.5751888611436633 -3.823652897976328e-17 3.98872393224298e-17 2.5751888611436633 2.5751888611436633" Properties=species:S:1:pos:R:3 n_minim_iter=1 stress="-0.14086875657590478 -1.523672917852205e-16 -6.501042037646834e-17 -1.523672917852205e-16 -0.1408687565759046 1.8771758883705234e-16 -6.501042037646834e-17 1.8771758883705234e-16 -0.14086875657590428" pbc="T T T"
Si       0.00000000       0.00000000       0.00000000
Si       1.28759443       1.28759443       1.28759443
