2
Lattice="2.4946609186646813 -2.4566790086959635e-17 2.4946609186646813 2.4946609186646813 2.4946609186646813 -3.7040846188206456e-17 3.863993767311485e-17 2.4946609186646813 2.4946609186646813" Properties=species:S:1:pos:R:3 n_minim_iter=1 stress="-0.21640657312195985 -7.368883734770791e-16 -2.693380088069429e-16 -7.368883734770791e-16 -0.21640657312196002 -1.1107378679198453e-16 -2.693380088069429e-16 -1.1107378679198453e-16 -0.21640657312195846" pbc="T T T"
Si       0.00000000       0.00000000       0.00000000
Si       1.24733046       1.24733046       1.24733046
