2
Lattice="2.937896319875967 -2.893166026999653e-17 2.937896319875967 2.937896319875967 2.937896319875967 -4.36220269004225e-17 4.5505234735807204e-17 2.937896319875967 2.937896319875967" Properties=species:S:1:pos:R:3 n_minim_iter=1 stress="0.06781239411218101 -7.158129782662892e-17 -2.962767375897299e-16 -7.158129782662892e-17 0.06781239411218107 -2.7305646292889666e-17 -2.962767375897299e-16 -2.7305646292889666e-17 0.06781239411218196" pbc="T T T"
Si       0.00000000       0.00000000       0.00000000
Si       1.46894816       1.46894816       1.46894816
