2
Lattice="2.6752950124244936 -2.6345628978748086e-17 2.6752950124244936 2.6752950124244936 2.6752950124244936 -3.9722909964186326e-17 4.1437788905038863e-17 2.6752950124244936 2.6752950124244936" Properties=species:S:1:pos:R:3 n_minim_iter=1 stress="-0.02041576459463127 6.724258454833717e-18 8.486105284832895e-17 6.724258454833717e-18 -0.020415764594631323 -4.234231327151548e-18 8.486105284832895e-17 -4.234231327151548e-18 -0.020415764594627232" pbc="T T T"
Si       0.00000000       0.00000000       0.00000000
Si       1.33764751       1.33764751       1.33764751
