1
Lattice="2.593995543412984 1.6504517318102576e-17 3.82326937010076e-52 1.296997771706492 2.2464660378992636 2.6032346055366992e-51 -1.9703048456607296e-51 -1.8310258885793339e-50 2.422065350510726" Properties=species:S:1:pos:R:3:forces:R:3 cutoff=-1.0 nneightol=1.2 n_minim_iter=1 energy=-162.8097262584476 stress="-0.05211106174437561 4.4676557178253795e-17 -5.407891377835397e-18 4.4676557178253795e-17 -0.052111061744375846 4.424638400047143e-18 -5.407891377835397e-18 4.424638400047143e-18 -0.060542925529197905" free_energy=-162.8097262584476 pbc="T T T"
Si       0.00000000       0.00000000       0.00000000      -0.00000000      -0.00000000      -0.00000000
