1
Lattice="2.570412460405594 1.635446794623758e-17 3.788510451896889e-52 1.285206230202797 2.2260424889153065 2.5795675264062135e-51 -1.952391991938574e-51 -1.8143792772816783e-50 2.400045355775013" Properties=species:S:1:pos:R:3:forces:R:3 cutoff=-1.0 nneightol=1.2 n_minim_iter=1 energy=-162.8097262584476 stress="-0.05211106174437561 4.4676557178253795e-17 -5.407891377835397e-18 4.4676557178253795e-17 -0.052111061744375846 4.424638400047143e-18 -5.407891377835397e-18 4.424638400047143e-18 -0.060542925529197905" free_energy=-162.8097262584476 pbc="T T T"
Si       0.00000000       0.00000000       0.00000000      -0.00000000      -0.00000000      -0.00000000
