1
Lattice="2.8678646604954734 1.8247032873790165e-17 4.226922880384115e-52 1.4339323302477367 2.4836436506047144 2.878079165230466e-51 -6.125088042452041e-51 -4.899525426297616e-50 2.6777824047457965" Properties=species:S:1:pos:R:3:forces:R:3 cutoff=-1.0 nneightol=1.2 n_minim_iter=1 energy=-162.6294160663097 stress="0.09480774144271958 2.2273689904999214e-18 -1.1809853904998869e-36 2.2273689904999214e-18 0.09480774144271958 1.8561408254166007e-19 -1.1809853904998869e-36 1.8561408254166007e-19 0.09857382503275335" free_energy=-162.6294160663097 pbc="T T T"
Si       0.00000000       0.00000000       0.00000000      -0.00000000       0.00000000      -0.00000000
