1
Lattice="2.4315747943165893 2.241942979463677e-17 9.48844376353097e-51 1.2157873971582946 2.1058055430800877 -1.0099234834615042e-49 -1.5931913847376903e-50 2.5286545141249408e-49 2.3094523822179047" Properties=species:S:1:pos:R:3:forces:R:3 cutoff=-1.0 nneightol=1.2 n_minim_iter=2 energy=-162.5634548888028 stress="-0.22422922057047376 6.849739689795205e-17 -2.8422156389191677e-19 6.849739689795205e-17 -0.2242292205704734 -6.071683158641079e-17 -2.8422156389191677e-19 -6.071683158641079e-17 -0.22420749529885453" free_energy=-162.5634548888028 pbc="T T T"
Si       0.00000000       0.00000000       0.00000000       0.00000000      -0.00000000      -0.00000000
