2
Lattice="2.937997888745492 2.1361640064581177e-16 2.937997888745492 2.937997888745492 2.937997888745492 1.6562618219813502e-16 1.6378327036460913e-17 2.937997888745492 2.937997888745492" Properties=species:S:1:pos:R:3:forces:R:3 n_minim_iter=1 energy=-325.9073574733604 stress="0.07656572191330512 -8.714822568223178e-17 8.959583016845387e-17 -8.714822568223178e-17 0.07656572191330516 -7.002556608523746e-17 8.959583016845387e-17 -7.002556608523746e-17 0.07656572191330521" free_energy=-325.9073574733604 pbc="T T T"
Si       0.00000000      -0.00000000       0.00000000      -0.00000000       0.00000000      -0.00000000
Si       1.46899894       1.46899894       1.46899894       0.00000000      -0.00000000       0.00000000
