2
Lattice="2.8780219192507324 2.0925565866645513e-16 2.8780219192507324 2.8780219192507324 2.8780219192507324 1.622451073208857e-16 1.6043981648917622e-17 2.8780219192507324 2.8780219192507324" Properties=species:S:1:pos:R:3:forces:R:3 n_minim_iter=1 energy=-326.1155525430688 stress="0.060002968225195255 3.066713771762997e-17 8.673815257567575e-17 3.066713771762997e-17 0.06000296822519511 1.0645515503958268e-16 8.673815257567575e-17 1.0645515503958268e-16 0.06000296822519519" free_energy=-326.1155525430688 pbc="T T T"
Si       0.00000000      -0.00000000       0.00000000       0.00000000       0.00000000       0.00000000
Si       1.43901096       1.43901096       1.43901096      -0.00000000      -0.00000000      -0.00000000
