2
Lattice="2.4780033899555227 -1.506095236607368e-17 2.4780033899555227 2.4780033899555227 2.4780033899555227 1.3969453229512622e-16 -1.8792689604272985e-16 2.4780033899555227 2.4780033899555227" Properties=species:S:1:pos:R:3:forces:R:3 n_minim_iter=1 energy=-325.171162143129 stress="-0.29265383773013276 -3.8067816190189507e-16 3.465226963335687e-16 -3.8067816190189507e-16 -0.292653837730133 -2.0401140110613897e-16 3.465226963335687e-16 -2.0401140110613897e-16 -0.2926538377301328" free_energy=-325.171162143129 pbc="T T T"
Si       0.00000000      -0.00000000       0.00000000      -0.00000000       0.00000000      -0.00000000
Si       1.23900169       1.23900169       1.23900169       0.00000000      -0.00000000       0.00000000
