2
Lattice="4.889736724106779 3.906926077210471e-17 2.1404891972392762e-16 3.906926077210531e-17 4.889736724106779 -2.769002726957816e-16 2.4448683620533895 2.4448683620533895 1.3488011985852286" Properties=species:S:1:pos:R:3 cutoff=-1.0 nneightol=1.2 n_minim_iter=1 energy=-325.69339630529305 free_energy=-325.69339630529305 pbc="T T T"
Si      -0.00000000      -1.22243418      -0.33720030
Si      -0.00000000       1.22243418       0.33720030
