2
Lattice="4.9661512029914245 3.967981658947422e-17 2.1739397439239004e-16 3.9679816589474884e-17 4.9661512029914245 -2.8122753840249093e-16 2.4830756014957123 2.4830756014957123 1.369879621928707" Properties=species:S:1:pos:R:3 cutoff=-1.0 nneightol=1.2 n_minim_iter=1 energy=-325.636568971149 free_energy=-325.636568971149 pbc="T T T"
Si      -0.00000000      -1.24153780      -0.34246991
Si      -0.00000000       1.24153780       0.34246991
