2
Lattice="4.770426934589622 3.811596910379669e-17 2.0882611673890556e-16 3.811596910379727e-17 4.770426934589622 -2.701438939546313e-16 2.385213467294811 2.385213467294811 1.3158903904612824" Properties=species:S:1:pos:R:3 cutoff=-1.0 nneightol=1.2 n_minim_iter=1 stress="-0.01998070422410193 3.770794887730151e-16 -1.048179145519729e-15 3.770794887730151e-16 -0.019980704224100528 1.4988193179217814e-16 -1.048179145519729e-15 1.4988193179217814e-16 -0.018879634888939855" pbc="T T T"
Si      -0.00000000      -1.19260673      -0.32897260
Si      -0.00000000       1.19260673       0.32897260
