2
Lattice="4.729300517978548 3.7787366811718527e-17 2.0702580200941988e-16 3.77873668117191e-17 4.729300517978548 -2.678149513924554e-16 2.364650258989274 2.364650258989274 1.304545943275598" Properties=species:S:1:pos:R:3 cutoff=-1.0 nneightol=1.2 n_minim_iter=1 stress="-0.01998070422410193 3.770794887730151e-16 -1.048179145519729e-15 3.770794887730151e-16 -0.019980704224100528 1.4988193179217814e-16 -1.048179145519729e-15 1.4988193179217814e-16 -0.018879634888939855" pbc="T T T"
Si      -0.00000000      -1.18232513      -0.32613649
Si      -0.00000000       1.18232513       0.32613649
