2
Lattice="4.687446105982473 3.745294779715769e-17 2.051936191785382e-16 3.745294779715828e-17 4.687446105982473 -2.654447832731582e-16 2.3437230529912365 2.3437230529912365 1.293000683427953" Properties=species:S:1:pos:R:3 cutoff=-1.0 nneightol=1.2 n_minim_iter=1 stress="-0.04099220699716853 -4.023573158300306e-16 7.997845680346455e-16 -4.023573158300306e-16 -0.04099220699716831 3.09795595340898e-16 7.997845680346455e-16 3.09795595340898e-16 -0.038125977444685745" pbc="T T T"
Si      -0.00000000      -1.17186153      -0.32325017
Si      -0.00000000       1.17186153       0.32325017
