2
Lattice="5.00207755795413 2.971431002419288e-17 1.2907528896630672e-16 2.9714310024192614e-17 5.00207755795413 -2.6299699879612936e-16 2.501038778977065 2.501038778977065 1.3794586988225421" Properties=species:S:1:pos:R:3:forces:R:3 cutoff=-1.0 nneightol=1.2 n_minim_iter=1 energy=-325.6000339123305 stress="0.05904090823016461 -1.4614784708304515e-17 -8.475834373779579e-17 -1.4614784708304515e-17 0.05904090823016449 -4.269825778464773e-17 -8.475834373779579e-17 -4.269825778464773e-17 0.04035173036033004" free_energy=-325.6000339123305 pbc="T T T"
Si      -0.00000000      -1.25051939      -0.34486467       0.00000000       0.00000000      -0.00000000
Si      -0.00000000       1.25051939       0.34486467      -0.00000000      -0.00000000       0.00000000
2
Lattice="4.925839807557709 5.933387145144134e-17 2.405392132203259e-15 5.933387145144183e-17 4.925839807557707 -4.335530984177431e-15 2.4629199037788543 2.462919903778852 1.422489195645334" Properties=species:S:1:pos:R:3:forces:R:3 cutoff=-1.0 nneightol=1.2 n_minim_iter=2 energy=-325.6113574350742 stress="0.04567174378177869 -3.2297549200531085e-17 -1.3737442657081257e-16 -3.2297549200531085e-17 0.04567174378177871 -1.1145926844532794e-16 -1.3737442657081257e-16 -1.1145926844532794e-16 0.04330504769871178" free_energy=-325.6113574350742 pbc="T T T"
Si      -0.00000000      -1.23145995      -0.35562230       0.00000000      -0.00000000       0.00000000
Si      -0.00000000       1.23145995       0.35562230      -0.00000000       0.00000000      -0.00000000
