2
Lattice="2.5564067450148937 1.346516376606488e-68 2.6179555998713682e-51 -2.6771165989559094e-68 2.5564067450148937 1.2993174458342655e-17 -3.83732724767514e-51 -1.9045037427389812e-17 3.7471106306264947" Properties=species:S:1:pos:R:3:tags:I:1 spacegroup="P 1" unit_cell=conventional n_minim_iter=1 energy=-1703.6466612510399 free_energy=-1703.6466612510399 pbc="T T T"
Ti       1.27820337       1.27820337       1.87355532        0
Al       0.00000000       0.00000000       0.00000000        1
2
Lattice="2.527389394120708 -1.7826416962461153e-66 2.610233895464834e-51 -4.254298228673465e-67 2.527389394120708 -4.1427240675618924e-17 -3.892961662747889e-51 -9.978315488899474e-17 3.8336468836576154" Properties=species:S:1:pos:R:3:tags:I:1 spacegroup="P 1" unit_cell=conventional n_minim_iter=2 stress="-0.1623631690274226 -6.1681174900454885e-18 1.1451107080410833e-17 -6.1681174900454885e-18 -0.16236316902742254 -1.0377947169128021e-17 1.1451107080410833e-17 -1.0377947169128021e-17 -0.1636736489821815" pbc="T T T"
Ti       1.26369470       1.26369470       1.91682345        0
Al      -0.00000000      -0.00000000       0.00000000        1
