2
Lattice="2.879052490229694 0.0 0.0 0.0 2.879052490229694 0.0 0.0 0.0 4.15450986591583" Properties=species:S:1:pos:R:3:tags:I:1 spacegroup="P 1" unit_cell=conventional n_minim_iter=1 stress="0.06482758079932292 2.704770593257072e-19 -2.4563078756169894e-20 2.704770593257072e-19 0.06482758079932292 -1.641561423984987e-19 -2.4563078756169894e-20 -1.641561423984987e-19 0.06449749506491632" pbc="T T T"
Ti       1.43952625       1.43952625       2.07725494        0
Al       0.00000000       0.00000000       0.00000001        1
