2
Lattice="2.8135966730944317 0.0 0.0 0.0 2.8135966730944317 0.0 0.0 0.0 4.060056277802077" Properties=species:S:1:pos:R:3:tags:I:1 spacegroup="P 1" unit_cell=conventional n_minim_iter=1 stress="0.02157202359227188 1.9374588646362038e-19 -1.080196405654857e-19 1.9374588646362038e-19 0.021572023592271825 -3.8702408488881667e-19 -1.080196405654857e-19 -3.8702408488881667e-19 0.01592206408855845" pbc="T T T"
Ti       1.40679834       1.40679834       2.03002814        0
Al       0.00000000       0.00000000       0.00000000        1
