2
Lattice="2.5564067450148937 1.3465163766064887e-68 2.617955599871368e-51 -2.6771165989559107e-68 2.5564067450148937 1.2993174458342653e-17 -3.8373272476751394e-51 -1.9045037427389803e-17 3.7471106306264947" Properties=species:S:1:pos:R:3:tags:I:1 spacegroup="P 1" unit_cell=conventional n_minim_iter=1 stress="-0.21181381272276464 -7.838038712819046e-18 1.974824195429945e-18 -7.838038712819046e-18 -0.2118138127227647 -1.803180395504714e-17 1.974824195429945e-18 -1.803180395504714e-17 -0.2122661331448255" pbc="T T T"
Ti       1.27820337       1.27820337       1.87355532        0
Al      -0.00000000      -0.00000000       0.00000000        1
