2
Lattice="2.697196907162916 0.0 0.0 0.0 2.697196907162916 0.0 0.0 0.0 3.8920899147038512" Properties=species:S:1:pos:R:3:tags:I:1 spacegroup="P 1" unit_cell=conventional n_minim_iter=1 stress="-0.04838829462452325 3.4595977178568347e-18 -3.941677599762936e-18 3.4595977178568347e-18 -0.04838829462452349 8.023474872629243e-18 -3.941677599762936e-18 8.023474872629243e-18 -0.03770659159178543" pbc="T T T"
Ti       1.34859845       1.34859845       1.94604496        0
Al       0.00000000       0.00000000       0.00000000        1
