2
Lattice="2.74494479145056 0.0 0.0 0.0 2.74494479145056 0.0 0.0 0.0 3.9609907273923333" Properties=species:S:1:pos:R:3:tags:I:1 spacegroup="P 1" unit_cell=conventional n_minim_iter=1 stress="0.0016960198556488675 -4.84485779316479e-18 -9.511969512212153e-21 -4.84485779316479e-18 0.0016960198556488675 -3.683639950816774e-19 -9.511969512212153e-21 -3.683639950816774e-19 -0.0007122119133927983" pbc="T T T"
Ti       1.37247240       1.37247240       1.98049537        0
Al       0.00000000       0.00000000       0.00000000        1
