2
Lattice="3.0163805757942423 5.41937029564144e-68 1.411616832722755e-36 -6.990815955393584e-54 3.0163805757942423 1.4938162373799814e-17 -1.9680443139105077e-36 -2.0826448678231822e-17 4.2053696889769805" Properties=species:S:1:pos:R:3:tags:I:1 spacegroup="P 1" unit_cell=conventional n_minim_iter=1 stress="0.10347136054366295 5.667138385871957e-20 2.2668553543487826e-20 5.667138385871957e-20 0.10347136054366299 -3.361869735855043e-19 2.2668553543487826e-20 -3.361869735855043e-19 0.10392405021760624" pbc="T T T"
Ti       1.50819029       1.50819029       2.10268485        0
Al       0.00000000       0.00000000       0.00000001        1
