14
Lattice="19.728611653591724 0.19793429642895818 -1.246396502420664e-17 -0.3794845291905965 4.003529536383702 -2.521031120780011e-16 -1.0293525130651113e-27 2.7771603224291787e-15 44.102761312515774" Properties=species:S:1:pos:R:3 unique_starting_index=0 config_type=initial n_minim_iter=1 energy=-2228.5973342267994 free_energy=-2228.5973342267994 pbc="T T T"
Si       5.13748429       1.08694326      34.14618095
Si       4.53707927       1.01378866      12.09480030
Si      14.21164284       3.11452058       9.95658036
Si      14.81204785       3.18767517      32.00796102
Si      16.67294347       1.21964675      15.39987479
Si      12.73023174       1.07901946      37.45125545
Si       2.67618365       2.98181708      28.70288652
Si       6.61889538       3.12244437       6.65150586
Si       7.84967971       1.08469937      17.22431527
Si       1.82488385       1.01603255      39.27569593
Si      11.49944741       3.11676447      26.87844604
Si      17.52424328       3.18543128       4.82706539
Si       9.86430583       0.09896715       0.00000000
Si      -0.18974226       2.00176477      22.05138066
14
Lattice="19.705290138717203 0.44397429661686605 -2.795715651420162e-17 -0.32314355379105086 3.4091370334749462 -2.146740889079899e-16 -1.0293204435795808e-27 2.777160322429178e-15 44.10276131251577" Properties=species:S:1:pos:R:3 unique_starting_index=0 config_type=initial n_minim_iter=2 stress="6.196421553590273e-05 -0.0006537172085142791 4.116471258365117e-20 -0.0006537172085142791 0.006896661000413904 -4.342842197991691e-19 4.116471258365117e-20 -4.342842197991691e-19 2.7346970302767384e-35" pbc="T T T"
Si       5.14585243       0.99866004      34.14618095
Si       4.54522086       0.92789562      12.09480030
Si      14.23629415       2.85445129       9.95658036
Si      14.83692573       2.92521571      32.00796102
Si      16.66791205       1.27272783      15.39987479
Si      12.72845138       1.09780213      37.45125545
Si       2.71423453       2.58038350      28.70288652
Si       6.65369521       2.75530920       6.65150586
Si       7.85443090       1.03457471      17.22431527
Si       1.83664239       0.89198096      39.27569593
Si      11.52771568       2.81853662      26.87844604
Si      17.54550420       2.96113037       4.82706539
Si       9.85264507       0.22198715      -0.00000000
Si      -0.16157178       1.70456852      22.05138066
