4
Lattice="2.069188265557024 -3.5839392063700877 1.7997427004600745e-17 2.069188265557024 3.5839392063700877 -1.7997427004600927e-17 2.9321338907759e-31 3.4314711306857975e-17 6.833301181134413" Properties=species:S:1:pos:R:3:forces:R:3 cutoff=-1.0 nneightol=1.2 n_minim_iter=1 energy=-651.7859251209156 stress="0.07564712854464661 -3.178906909392594e-17 2.592430164199176e-17 -3.178906909392594e-17 0.07564712854464646 -2.5195089196734154e-17 2.592430164199176e-17 -2.5195089196734154e-17 0.07509022058066009" free_energy=-651.7859251209156 pbc="T T T"
Si       2.06918827       1.19464640       0.43723623       0.00000000       0.00000000       0.02840045
Si       2.06918827      -1.19464640       3.85388682       0.00000000       0.00000000       0.02840045
Si       2.06918827       1.19464640       2.97941436      -0.00000000      -0.00000000      -0.02840045
Si       2.06918827      -1.19464640      -0.43723623      -0.00000000      -0.00000000      -0.02840045
4
Lattice="2.0679028558808965 -3.5817128115024937 1.721435586432068e-17 2.0679028558808965 3.5817128115024937 -1.721435586432101e-17 2.551078305976899e-31 3.583019505528574e-17 6.841798989796982" Properties=species:S:1:pos:R:3:forces:R:3 cutoff=-1.0 nneightol=1.2 n_minim_iter=2 energy=-651.7860133982045 stress="0.07518995150272871 7.720202494239157e-17 -3.4149101735236804e-17 7.720202494239157e-17 0.07518995150272857 -1.6083380525671626e-17 -3.4149101735236804e-17 -1.6083380525671626e-17 0.0757472413173665" free_energy=-651.7860133982045 pbc="T T T"
Si       2.06790286       1.19390427       0.43871917       0.00000000       0.00000000       0.01858493
Si       2.06790286      -1.19390427       3.85961866       0.00000000       0.00000000       0.01858493
Si       2.06790286       1.19390427       2.98218032      -0.00000000       0.00000000      -0.01858493
Si       2.06790286      -1.19390427      -0.43871917      -0.00000000      -0.00000000      -0.01858493
4
Lattice="2.0680961406940983 -3.5820475906192897 1.7394764117984165e-17 2.0680961406940983 3.5820475906192897 -1.7394764117984627e-17 2.5773697831812344e-31 3.54834347441833e-17 6.840520176866557" Properties=species:S:1:pos:R:3:forces:R:3 cutoff=-1.0 nneightol=1.2 n_minim_iter=3 energy=-651.7860498174285 stress="0.0752793708932463 -4.541295584846563e-17 -2.304512592514904e-18 -4.541295584846563e-17 0.07527937089324616 4.1696983829931537e-19 -2.304512592514904e-18 4.1696983829931537e-19 0.0755340548288201" free_energy=-651.7860498174285 pbc="T T T"
Si       2.06809614       1.19401586       0.43916704       0.00000000       0.00000000       0.00851032
Si       2.06809614      -1.19401586       3.85942713       0.00000000       0.00000000       0.00851032
Si       2.06809614       1.19401586       2.98109305      -0.00000000      -0.00000000      -0.00851032
Si       2.06809614      -1.19401586      -0.43916704      -0.00000000      -0.00000000      -0.00851032
