4
Lattice="1.85790953168635 -3.2179937047472573 9.249453812189064e-18 1.85790953168635 3.2179937047472573 -9.249453812189084e-18 3.146397026532778e-32 1.754061617002647e-17 6.102586548207663" Properties=species:S:1:pos:R:3:forces:R:3 cutoff=-1.0 nneightol=1.2 n_minim_iter=1 energy=-652.3960285793216 stress="-0.07279611259184343 9.990850286662439e-17 -8.22606428540985e-17 9.990850286662439e-17 -0.07279611259184324 -9.98831267148636e-17 -8.22606428540985e-17 -9.98831267148636e-17 -0.07320303029626327" free_energy=-652.3960285793216 pbc="T T T"
Si       1.85790953       1.07266457       0.38222137       0.00000000       0.00000000       0.06325969
Si       1.85790953      -1.07266457       3.43351464       0.00000000       0.00000000       0.06325969
Si       1.85790953       1.07266457       2.66907191      -0.00000000      -0.00000000      -0.06325969
Si       1.85790953      -1.07266457      -0.38222137      -0.00000000      -0.00000000      -0.06325969
4
Lattice="1.856973357466661 -3.2163722034340205 1.2428617595681138e-17 1.856973357466661 3.2163722034340205 -1.2428617595681126e-17 3.4684144270280693e-32 1.1520486556181055e-17 6.10874121302663" Properties=species:S:1:pos:R:3:forces:R:3 cutoff=-1.0 nneightol=1.2 n_minim_iter=2 energy=-652.3964489790935 stress="-0.07170677507680152 -1.1807368520601065e-16 -3.1583769024087773e-17 -1.1807368520601065e-16 -0.07170677507680155 -1.574026940993858e-17 -3.1583769024087773e-17 -1.574026940993858e-17 -0.07396154562275267" free_energy=-652.3964489790935 pbc="T T T"
Si       1.85697336       1.07212407       0.38583139      -0.00000000       0.00000000      -0.01347167
Si       1.85697336      -1.07212407       3.44020199       0.00000000       0.00000000      -0.01347167
Si       1.85697336       1.07212407       2.66853922      -0.00000000      -0.00000000       0.01347167
Si       1.85697336      -1.07212407      -0.38583139      -0.00000000      -0.00000000       0.01347167
4
Lattice="1.8560390695273805 -3.2147539692542892 1.1674728854734547e-17 1.8560390695273805 3.2147539692542892 -1.1674728854734612e-17 4.3440687307812633e-32 1.2965457265417723e-17 6.114892764253893" Properties=species:S:1:pos:R:3:forces:R:3 cutoff=-1.0 nneightol=1.2 n_minim_iter=3 energy=-652.396520198901 stress="-0.07235951900913298 -1.0899109403631751e-16 -6.945021060427863e-17 -1.0899109403631751e-16 -0.07235951900913222 -1.2107186149541317e-16 -6.945021060427863e-17 -1.2107186149541317e-16 -0.07236900646148363" free_energy=-652.396520198901 pbc="T T T"
Si       1.85603907       1.07158466       0.38664895      -0.00000000      -0.00000000      -0.00040612
Si       1.85603907      -1.07158466       3.44409534       0.00000000       0.00000000      -0.00040612
Si       1.85603907       1.07158466       2.67079743      -0.00000000      -0.00000000       0.00040612
Si       1.85603907      -1.07158466      -0.38664895       0.00000000       0.00000000       0.00040612
