4
Lattice="1.8147376951904746 -3.143217890480342 4.006897055716274e-17 1.8147376951904755 3.143217890480342 -4.0068970557162465e-17 -3.5296708982278272e-31 4.1030076841131357e-17 6.041040795715068" Properties=species:S:1:pos:R:3:forces:R:3 cutoff=-1.0 nneightol=1.2 n_minim_iter=3 energy=-651.9808764163365 stress="-0.13617999607874196 1.9981700573324878e-16 -1.7115872303456384e-16 1.9981700573324878e-16 -0.13617999607874434 -9.918229381587581e-17 -1.7115872303456384e-16 -9.918229381587581e-17 -0.13623129497757136" free_energy=-651.9808764163365 pbc="T T T"
Si       1.81473770       1.04773930       0.39326286       0.00000000       0.00000000      -0.00162985
Si       1.81473770      -1.04773930       3.41378326      -0.00000000      -0.00000000      -0.00162985
Si       1.81473770       1.04773930       2.62725754       0.00000000       0.00000000       0.00162985
Si       1.81473770      -1.04773930      -0.39326286      -0.00000000      -0.00000000       0.00162985
