4
Lattice="2.003063119981878 -3.4694070945760465 1.3325653648592447e-17 2.0030631199818782 3.4694070945760465 -1.3325653648592453e-17 -1.602874403733235e-32 2.53947744425127e-17 6.562719106662606" Properties=species:S:1:pos:R:3:forces:R:3 cutoff=-1.0 nneightol=1.2 n_minim_iter=2 energy=-652.485874850152 stress="0.03786417332015342 1.589453454696297e-16 -6.472753426183761e-17 1.589453454696297e-16 0.037864173320153245 3.9023846778160983e-17 -6.472753426183761e-17 3.9023846778160983e-17 0.03707894607404273" free_energy=-652.485874850152 pbc="T T T"
Si       2.00306312       1.15646903       0.41182791       0.00000000       0.00000000       0.00124991
Si       2.00306312      -1.15646903       3.69318747      -0.00000000      -0.00000000       0.00124991
Si       2.00306312       1.15646903       2.86953164       0.00000000       0.00000000      -0.00124991
Si       2.00306312      -1.15646903      -0.41182791      -0.00000000      -0.00000000      -0.00124991
