4
Lattice="1.9266594096753806 -3.3370719864384197 1.3032396976859932e-17 1.9266594096753809 3.3370719864384197 -1.3032396976859932e-17 2.968488839783401e-33 2.4624611817825345e-17 6.305371331159736" Properties=species:S:1:pos:R:3:forces:R:3 cutoff=-1.0 nneightol=1.2 n_minim_iter=1 energy=-652.6487591675361 stress="1.2141529272835296e-05 1.8591150543414097e-16 -1.9200142446291322e-17 1.8591150543414097e-16 1.2141529272864405e-05 -7.010446535210511e-18 -1.9200142446291322e-17 -7.010446535210511e-18 -1.29199428663319e-05" free_energy=-652.6487591675361 pbc="T T T"
Si       1.92665941       1.11235733       0.39187638       0.00000000       0.00000000      -0.00028636
Si       1.92665941      -1.11235733       3.54456204      -0.00000000       0.00000000      -0.00028636
Si       1.92665941       1.11235733       2.76080929       0.00000000      -0.00000000       0.00028636
Si       1.92665941      -1.11235733      -0.39187638      -0.00000000      -0.00000000       0.00028636
