4
Lattice="2.016319308872432 -3.4923674872492176 1.4125959826995067e-17 2.016319308872432 3.4923674872492176 -1.412595982699512e-17 1.3740697587974193e-32 2.408366458968658e-17 6.620637136948336" Properties=species:S:1:pos:R:3:forces:R:3 cutoff=-1.0 nneightol=1.2 n_minim_iter=4 energy=-652.4021854290634 stress="0.0448830078561816 -3.8601012471195783e-17 2.7586410864137212e-17 -3.8601012471195783e-17 0.04488300785618172 -2.91286278696322e-17 2.7586410864137212e-17 -2.91286278696322e-17 0.044997252979287375" free_energy=-652.4021854290634 pbc="T T T"
Si       2.01631931       1.16412250       0.41748309      -0.00000000       0.00000000       0.00149198
Si       2.01631931      -1.16412250       3.72780166       0.00000000      -0.00000000       0.00149198
Si       2.01631931       1.16412250       2.89283548      -0.00000000       0.00000000      -0.00149198
Si       2.01631931      -1.16412250      -0.41748309       0.00000000      -0.00000000      -0.00149198
