4
Lattice="1.8359644440811689 -3.179983698038534 3.1034996005915745e-17 1.8359644440811684 3.179983698038534 -3.103499600591556e-17 1.2054113461639358e-31 -1.5013345824125614e-17 6.075752637477841" Properties=species:S:1:pos:R:3:forces:R:3 cutoff=-1.0 nneightol=1.2 n_minim_iter=3 energy=-652.2210335049638 stress="-0.10163339787359635 -1.4532145871509002e-16 -3.779958263111527e-17 -1.4532145871509002e-16 -0.10163339787359624 -1.1329639978037486e-16 -3.779958263111527e-17 -1.1329639978037486e-16 -0.10163787629368572" free_energy=-652.2210335049638 pbc="T T T"
Si       1.83596444       1.05999457       0.38912057       0.00000000       0.00000000      -0.00082228
Si       1.83596444      -1.05999457       3.42699688       0.00000000       0.00000000      -0.00082228
Si       1.83596444       1.05999457       2.64875575      -0.00000000      -0.00000000       0.00082228
Si       1.83596444      -1.05999457      -0.38912057      -0.00000000      -0.00000000       0.00082228
