4
Lattice="1.796768815006047 -3.112094877045796 3.967222201715986e-17 1.796768815006048 3.112094877045796 -3.967222201715959e-17 -3.494721366056425e-31 4.0623811772262126e-17 5.981224581760219" Properties=species:S:1:pos:R:3:forces:R:3 cutoff=-1.0 nneightol=1.2 n_minim_iter=3 energy=-651.9808764163365 stress="-0.13617999607874196 1.9981700573324878e-16 -1.7115872303456384e-16 1.9981700573324878e-16 -0.13617999607874434 -9.918229381587581e-17 -1.7115872303456384e-16 -9.918229381587581e-17 -0.13623129497757136" free_energy=-651.9808764163365 pbc="T T T"
Si       1.79676882       1.03736496       0.38936891       0.00000000       0.00000000      -0.00162985
Si       1.79676882      -1.03736496       3.37998120      -0.00000000      -0.00000000      -0.00162985
Si       1.79676882       1.03736496       2.60124338       0.00000000       0.00000000       0.00162985
Si       1.79676882      -1.03736496      -0.38936891      -0.00000000      -0.00000000       0.00162985
