4
Lattice="1.8772359336623556 -3.251468014897198 1.2698084458444137e-17 1.8772359336623556 3.251468014897198 -1.2698084458444137e-17 -2.8923399178560494e-33 2.399293093775045e-17 6.143623298698048" Properties=species:S:1:pos:R:3:forces:R:3 cutoff=-1.0 nneightol=1.2 n_minim_iter=1 energy=-652.5951130428766 stress="-0.028373652074485084 -2.4977125716656095e-16 1.6004456372727402e-17 -2.4977125716656095e-16 -0.028373652074484952 -3.3568147322804526e-17 1.6004456372727402e-17 -3.3568147322804526e-17 -0.02922167170441222" free_energy=-652.5951130428766 pbc="T T T"
Si       1.87723593       1.08382267       0.38182380      -0.00000000      -0.00000000       0.00153041
Si       1.87723593      -1.08382267       3.45363545       0.00000000       0.00000000       0.00153041
Si       1.87723593       1.08382267       2.68998785      -0.00000000      -0.00000000      -0.00153041
Si       1.87723593      -1.08382267      -0.38182380       0.00000000       0.00000000      -0.00153041
