4
Lattice="4.279949922260316 0.0 0.0 0.0 4.279949922260316 0.0 0.0 0.0 4.279949922260316" Properties=species:S:1:pos:R:3 n_minim_iter=1 stress="0.09320284662124718 -9.887702920707651e-18 -0.0 -9.887702920707651e-18 0.0932028466212472 3.0719061553755954e-18 -0.0 3.0719061553755954e-18 0.09320284662124691" pbc="T T T"
Al       0.00000000       0.00000000       0.00000000
Al       2.13997496       2.13997496       0.00000000
Al       2.13997496       0.00000000       2.13997496
Al       0.00000000       2.13997496       2.13997496
