4
Lattice="3.966384965361551 0.0 0.0 0.0 3.966384965361551 0.0 0.0 0.0 3.966384965361551" Properties=species:S:1:pos:R:3 n_minim_iter=1 stress="0.004251921273707738 2.5328441667614505e-17 -2.75506975728939e-18 2.5328441667614505e-17 0.00425192127370773 1.3900337647743987e-18 -2.75506975728939e-18 1.3900337647743987e-18 0.004251921273707696" pbc="T T T"
Al       0.00000000       0.00000000       0.00000000
Al       1.98319248       1.98319248       0.00000000
Al       1.98319248       0.00000000       1.98319248
Al       0.00000000       1.98319248       1.98319248
