1
Lattice="2.8641180082386417 1.2218450409847356e-16 -1.311963681742087e-51 1.4320590041193209 2.4803989545711516 -1.4314261241496636e-50 6.177533799063369e-50 3.2427377272229274e-49 2.666701092693273" Properties=species:S:1:pos:R:3:forces:R:3 cutoff=-1.0 nneightol=1.2 n_minim_iter=1 energy=-162.5870148659241 stress="0.10284182607809908 8.057978583622945e-18 3.662717538010435e-19 8.057978583622945e-18 0.10284182607809939 -4.5783969225130426e-20 3.662717538010435e-19 -4.5783969225130426e-20 0.1141800445553789" free_energy=-162.5870148659241 pbc="T T T"
Si       0.00000000       0.00000000       0.00000000      -0.00000000       0.00000000       0.00000000
