1
Lattice="2.536719166270034 1.0605489057534419e-16 -1.4184883989533334e-51 1.268359583135017 2.1968632402567305 -2.898915153808262e-50 4.416143189500042e-50 2.1870068683331795e-49 2.379629883992067" Properties=species:S:1:pos:R:3:forces:R:3 cutoff=-1.0 nneightol=1.2 n_minim_iter=1 energy=-162.7767890620586 stress="-0.08421382779496299 3.4337976918847836e-17 -7.885016922105794e-18 3.4337976918847836e-17 -0.08421382779496299 -1.856794307463624e-17 -7.885016922105794e-18 -1.856794307463624e-17 -0.08874659552315818" free_energy=-162.7767890620586 pbc="T T T"
Si       0.00000000       0.00000000       0.00000000      -0.00000000      -0.00000000       0.00000000
