1
Lattice="2.4912399593220194 1.432165792103284e-16 -1.0056260746258296e-50 1.2456199796610095 2.1574770916957804 -5.268029566046064e-51 1.3404211970023466e-49 -1.8304842567107487e-50 2.3441567021361567" Properties=species:S:1:pos:R:3:forces:R:3 cutoff=-1.0 nneightol=1.2 n_minim_iter=1 energy=-162.6423200676408 stress="-0.17647955847517047 -9.841245067534356e-17 -1.573137562015916e-33 -9.841245067534356e-17 -0.17647955847517133 2.7364591289734133e-17 -1.573137562015916e-33 2.7364591289734133e-17 -0.18874034564879166" free_energy=-162.6423200676408 pbc="T T T"
Si       0.00000000       0.00000000       0.00000000       0.00000000      -0.00000000      -0.00000000
