1
Lattice="2.4584676880343443 1.3825373159297978e-16 -1.8190684313246418e-51 1.2292338440171722 2.129095472220938 -1.110277848510164e-50 1.5107831884472723e-49 -1.0656391855530911e-50 2.33412866311752" Properties=species:S:1:pos:R:3:forces:R:3 cutoff=-1.0 nneightol=1.2 n_minim_iter=2 energy=-162.5658657713035 stress="-0.22313854005924944 2.0445996510820244e-17 2.669338433357086e-17 2.0445996510820244e-17 -0.22313854005924968 -5.697191736087929e-17 2.669338433357086e-17 -5.697191736087929e-17 -0.2231175673695265" free_energy=-162.5658657713035 pbc="T T T"
Si       0.00000000       0.00000000       0.00000000      -0.00000000       0.00000000      -0.00000000
