1
Lattice="2.790281890720331 1.52857812627455e-16 -9.107335691035406e-51 1.3951409453601653 2.4164550010834818 -3.8617888138696285e-51 8.961506368157019e-50 -2.5343985886012997e-50 2.6047466823279546" Properties=species:S:1:pos:R:3:forces:R:3 cutoff=-1.0 nneightol=1.2 n_minim_iter=1 energy=-162.7586644677986 stress="0.06921061710789152 -1.2753505848261638e-16 2.0193576800810147e-19 -1.2753505848261638e-16 0.06921061710789139 -6.3357347212541726e-18 2.0193576800810147e-19 -6.3357347212541726e-18 0.07464148296220058" free_energy=-162.7586644677986 pbc="T T T"
Si       0.00000000       0.00000000       0.00000000       0.00000000       0.00000000      -0.00000000
