1
Lattice="2.5405842192636636 1.4605328552039845e-16 -1.0255446193026486e-50 1.2702921096318316 2.2002104743361874 -5.372373998750967e-51 9.809725530673331e-50 -1.9730687625713216e-50 2.3905876680578957" Properties=species:S:1:pos:R:3:forces:R:3 cutoff=-1.0 nneightol=1.2 n_minim_iter=2 energy=-162.7503243125308 stress="-0.10631654339420554 1.4689772550065183e-16 2.4502741850268715e-18 1.4689772550065183e-16 -0.10631654339420542 1.729796212740825e-17 2.4502741850268715e-18 1.729796212740825e-17 -0.10631586229545537" free_energy=-162.7503243125308 pbc="T T T"
Si       0.00000000       0.00000000       0.00000000       0.00000000      -0.00000000      -0.00000000
