2
Lattice="2.8019703760025387 1.4634873778740506e-16 2.8019703760025387 2.8019703760025387 2.8019703760025387 1.829578000999781e-16 -1.569745682664362e-16 2.8019703760025387 2.8019703760025387" Properties=species:S:1:pos:R:3 n_minim_iter=1 energy=-326.2980238531163 free_energy=-326.2980238531163 pbc="T T T"
Si       0.00000000       0.00000000       0.00000000
Si       1.40098519       1.40098519       1.40098519
