2
Lattice="2.8289999999999993 0.0 2.8289999999999993 2.8289999999999993 2.8289999999999993 0.0 0.0 2.8289999999999993 2.8289999999999993" Properties=species:S:1:pos:R:3 n_minim_iter=1 energy=-326.2369113589688 free_energy=-326.2369113589688 pbc="T T T"
Si       0.00000000       0.00000000       0.00000000
Si       1.41450000       1.41450000       1.41450000
2
Lattice="2.7352312604386797 1.4286291031132976e-16 2.7352312604386797 2.7352312604386797 2.7352312604386797 1.7859999465393967e-16 2.8721332264246323e-16 2.7352312604386797 2.7352312604386797" Properties=species:S:1:pos:R:3 n_minim_iter=2 stress="0.003084059167471431 1.3902130217655263e-16 -3.492571598406851e-17 1.3902130217655263e-16 0.0030840591674715485 -5.933980871079601e-19 -3.492571598406851e-17 -5.933980871079601e-19 0.0030840591674715077" pbc="T T T"
Si       0.00000000       0.00000000       0.00000000
Si       1.36761563       1.36761563       1.36761563
