2
Lattice="2.6888624507772696 1.4044103718063199e-16 2.6888624507772696 2.6888624507772696 2.6888624507772696 1.7557229119156073e-16 -1.5421646010189015e-16 2.6888624507772696 2.6888624507772696" Properties=species:S:1:pos:R:3 n_minim_iter=1 stress="-0.011886635459232787 -1.8362087573167335e-16 -1.1198486977216897e-16 -1.8362087573167335e-16 -0.011886635459232782 9.250924024657436e-17 -1.1198486977216897e-16 9.250924024657436e-17 -0.011886635459232804" pbc="T T T"
Si       0.00000000       0.00000000       0.00000000
Si       1.34443123       1.34443123       1.34443123
