2
Lattice="2.640836746395021 1.3793262335945506e-16 2.640836746395021 2.640836746395021 2.640836746395021 1.7243639892900107e-16 -1.514620037995273e-16 2.640836746395021 2.640836746395021" Properties=species:S:1:pos:R:3 n_minim_iter=1 stress="-0.0697946076709389 1.080819498169816e-17 7.365671493943255e-17 1.080819498169816e-17 -0.06979460767093894 5.1239453870909606e-17 7.365671493943255e-17 5.1239453870909606e-17 -0.06979460767093872" pbc="T T T"
Si       0.00000000       0.00000000       0.00000000
Si       1.32041837       1.32041837       1.32041837
