2
Lattice="2.9266632051196297 1.5286152547021475e-16 2.9266632051196297 2.9266632051196297 2.9266632051196297 1.9109975830870574e-16 -1.639602249258406e-16 2.9266632051196297 2.9266632051196297" Properties=species:S:1:pos:R:3 n_minim_iter=1 stress="-0.02166336976271883 6.10525320525945e-17 4.91499698388838e-17 6.10525320525945e-17 -0.021663369762718855 7.916587890979665e-17 4.91499698388838e-17 7.916587890979665e-17 -0.021663369762718918" pbc="T T T"
Si       0.00000000       0.00000000       0.00000000
Si       1.46333160       1.46333160       1.46333160
