2
Lattice="2.823524841325504 1.4747454155061212e-16 2.823524841325504 2.823524841325504 2.823524841325504 1.8436522310187548e-16 -1.581821123994022e-16 2.823524841325504 2.823524841325504" Properties=species:S:1:pos:R:3 n_minim_iter=1 stress="0.05135290607673476 -4.7471846968636857e-17 -2.435244097741761e-17 -4.7471846968636857e-17 0.051352906076734685 5.064354047805725e-17 -2.435244097741761e-17 5.064354047805725e-17 0.05135290607673475" pbc="T T T"
Si       0.00000000       0.00000000       0.00000000
Si       1.41176242       1.41176242       1.41176242
