2
Lattice="2.8656732170701216 1.4967597866887826e-16 2.8656732170701216 2.8656732170701216 2.8656732170701216 1.8711734859544477e-16 -1.605433875728685e-16 2.8656732170701216 2.8656732170701216" Properties=species:S:1:pos:R:3 n_minim_iter=1 stress="0.048331027853187034 -9.886200511563727e-17 2.0043668720091094e-17 -9.886200511563727e-17 0.04833102785318701 5.463030008295505e-18 2.0043668720091094e-17 5.463030008295505e-18 0.04833102785318701" pbc="T T T"
Si       0.00000000       0.00000000       0.00000000
Si       1.43283661       1.43283661       1.43283661
