2
Lattice="2.485122524750667 1.2979956813932425e-16 2.485122524750667 2.485122524750667 2.485122524750667 1.6226886408269208e-16 -1.425312025818705e-16 2.485122524750667 2.485122524750667" Properties=species:S:1:pos:R:3 n_minim_iter=1 stress="-0.24597926962087185 6.76844116885957e-16 -3.0653249756891195e-16 6.76844116885957e-16 -0.2459792696208719 5.027494650392774e-16 -3.0653249756891195e-16 5.027494650392774e-16 -0.24597926962087158" pbc="T T T"
Si       0.00000000       0.00000000       0.00000000
Si       1.24256126       1.24256126       1.24256126
