2
Lattice="3.014030781691246 -9.331763957508186e-16 3.902098207860364e-41 -1.5070153908456223 2.610227224732889 2.6037329970330924e-25 -2.354703953856871e-40 -4.571503766913352e-25 4.5829060060932685" Properties=species:S:1:pos:R:3 n_minim_iter=1 stress="0.08118866950749103 -3.835652586303794e-17 -4.866115173306138e-17 -3.835652586303794e-17 0.08118866950749108 3.318580546766514e-17 -4.866115173306138e-17 3.318580546766514e-17 0.07921530423087451" pbc="T T T"
Ti       0.00000000       0.00000000       0.00000000
Ti       0.00000000       1.74015148       2.29145300
