2
Lattice="2.991537176370461 -9.26212133252838e-16 3.872976986689125e-41 -1.4957685881852298 2.5907471911023885 2.5843014295946527e-25 -2.3371308813762947e-40 -4.537386795686624e-25 4.548703940358069" Properties=species:S:1:pos:R:3 n_minim_iter=1 stress="0.08118866950749103 -3.835652586303794e-17 -4.866115173306138e-17 -3.835652586303794e-17 0.08118866950749108 3.318580546766514e-17 -4.866115173306138e-17 3.318580546766514e-17 0.07921530423087451" pbc="T T T"
Ti       0.00000000       0.00000000       0.00000000
Ti       0.00000000       1.72716479       2.27435197
