2
Lattice="2.751451342352017 -8.790409010927849e-16 4.983933134170018e-41 -1.3757256711760075 2.382826759753641 2.376898302874337e-25 -2.5148325026831486e-40 -4.388547078915784e-25 4.399492987745235" Properties=species:S:1:pos:R:3 n_minim_iter=1 stress="-0.08393365554495258 1.3910205196250988e-16 2.3839898206364473e-19 1.3910205196250988e-16 -0.08393365554495265 4.0860618559369575e-18 2.3839898206364473e-19 4.0860618559369575e-18 -0.0891014112056384" pbc="T T T"
Ti       0.00000000       0.00000000       0.00000000
Ti       0.00000000       1.58855117       2.19974649
