2
Lattice="2.6070917761866546 -8.191000805876659e-16 3.1449483257134324e-41 -1.3035458880933266 2.2578077081751378 2.2521902978515e-25 -2.2583030964158095e-40 -4.20911691706977e-25 4.219615291406025" Properties=species:S:1:pos:R:3 n_minim_iter=2 stress="-0.3399309874788291 -3.6187325306265944e-16 -4.7521979044369195e-18 -3.6187325306265944e-16 -0.33993098747882683 -8.574515920635436e-18 -4.7521979044369195e-18 -8.574515920635436e-18 -0.3328080944300528" pbc="T T T"
Ti      -0.00000000      -0.00000000      -0.00000000
Ti       0.00000000       1.50520514       2.10980765
