2
Lattice="2.928540063173865 -9.313512561956432e-16 4.990132762840752e-41 -1.4642700315869317 2.536190090709052 2.529880066898495e-25 -2.5981213319421378e-40 -4.627091110873131e-25 4.638631995939282" Properties=species:S:1:pos:R:3 n_minim_iter=1 stress="0.04364346344482097 -3.7871343167383504e-17 -4.042930655695347e-18 -3.7871343167383504e-17 0.04364346344482099 4.877653489316022e-18 -4.042930655695347e-18 4.877653489316022e-18 0.05435991900349856" pbc="T T T"
Ti       0.00000000       0.00000000       0.00000000
Ti       0.00000000       1.69079339       2.31931600
