2
Lattice="2.999281494253904 -9.243338980840196e-16 -9.195160164387039e-41 -1.499640747126951 2.5974539671244306 2.590991519203264e-25 -7.6317786050427e-42 -4.92434777181422e-25 4.936630074085461" Properties=species:S:1:pos:R:3 n_minim_iter=2 stress="0.06713970377792174 9.055035090555209e-18 -5.666646201062063e-18 9.055035090555209e-18 0.06713970377792136 -9.609163967643522e-17 -5.666646201062063e-18 -9.609163967643522e-17 0.06645332103125794" pbc="T T T"
Ti       0.00000000       0.00000000       0.00000000
Ti       0.00000000       1.73163598       2.46831504
