22
Lattice="9.453428212344539 0.31066207573308746 -0.0738249518277493 -3.698263812968808 8.705553437946142 0.07382495182777817 -2.9398097881492724 -4.468387100070872 7.801301247111587" Properties=species:S:1:pos:R:3 unique_starting_index=6 config_type=initial n_minim_iter=1 energy=-3582.449576234931 free_energy=-3582.449576234931 pbc="T T T"
Si      -3.61059949       5.30283108       6.00522882
Si       3.03178622       1.41153764       5.82276782
Si       6.27734132       2.44030190       0.01092268
Si      -0.11783214      -0.02708964       3.82301682
Si       6.51752523      -0.81345366       1.90470847
Si      -0.30800274       3.19474180       1.86989737
Si       2.84039217       4.42954325       3.97828442
Si      -3.36919212       2.25290134       7.79037857
Si      -0.23449644       5.51108027       1.92366395
Si       1.70214055       6.24191368       3.16286646
Si       1.72584171       4.19873375       1.96846822
Si       1.69205638       6.30938842       0.80436442
Si       2.00530662      -0.29650593       4.63843478
Si       2.15775848      -2.36083118       5.87763729
Si       2.07075538      -0.27724481       6.99693683
Si       0.14205575      -1.13522051       5.83283302
Si      -0.99915069       1.44860732       0.45413578
Si       2.83041711       3.72737704       6.17968562
Si      -0.75053437      -0.33176121       1.62161562
Si      -4.90345104       3.94077162       7.42099041
Si       2.87758220       4.50810776      -0.00000000
Si       3.25680921      -2.07886251       3.86373815
22
Lattice="9.444646494524829 0.31193180682009264 -0.08569990129365904 -3.6934148502099577 8.698122533219157 0.08569990129368729 -2.947853002896665 -4.458917263898737 7.793215821388945" Properties=species:S:1:pos:R:3 unique_starting_index=6 config_type=initial n_minim_iter=2 stress="-0.0017432503130958422 -0.0001697117967763636 0.0029298223276677 -0.0001697117967763636 -0.001900796787021609 -0.001870142648110488 0.0029298223276677 -0.001870142648110488 -0.0016349218519589232" pbc="T T T"
Si      -3.61399677       5.30277612       6.00796868
Si       3.02170343       1.41586134       5.81372693
Si       6.27181008       2.43941488       0.00482245
Si      -0.12266259      -0.02392437       3.81911651
Si       6.50886715      -0.81003937       1.89378899
Si      -0.30981653       3.19367608       1.87094704
Si       2.83332096       4.42980307       3.97409930
Si      -3.37571117       2.25698059       7.78839337
Si      -0.23583859       5.50829208       1.92644749
Si       1.69751457       6.23983991       3.16249762
Si       1.72239424       4.19733601       1.96774079
Si       1.69036872       6.30539248       0.80651829
Si       1.99733000      -0.29210519       4.63071820
Si       2.14775130      -2.35375262       5.86676833
Si       2.05979817      -0.27098814       6.98669752
Si       0.13419615      -1.12946618       5.82547503
Si      -0.99846707       1.44759320       0.45625635
Si       2.82049063       3.72995525       6.17272207
Si      -0.75205980      -0.33020975       1.62049375
Si      -4.90785297       3.94300366       7.42265937
Si       2.87561582       4.50502717      -0.00000000
Si       3.24839675      -2.07349272       3.85375796
22
Lattice="9.450208614812981 0.31286868736856094 -0.09771890813614224 -3.6949067952805876 8.703562112905876 0.0977189081361704 -2.9600191100526883 -4.45563873610229 7.7974001427075885" Properties=species:S:1:pos:R:3 unique_starting_index=6 config_type=initial n_minim_iter=3 stress="0.0020463278325749913 0.0004340293022937818 2.610831677318659e-05 0.0004340293022937818 0.002449244939438933 -1.666526881430608e-05 2.610831677318659e-05 -1.666526881430608e-05 0.0017692814328625697" pbc="T T T"
Si      -3.62332698       5.31036789       6.02019417
Si       3.01621844       1.42221356       5.81365722
Si       6.27577418       2.44142337      -0.00109158
Si      -0.12783197      -0.02067626       3.82104008
Si       6.51033424      -0.80812475       1.88602401
Si      -0.31266027       3.19712745       1.87492487
Si       2.83034763       4.43613666       3.97636006
Si      -3.38772442       2.26470038       7.79849171
Si      -0.23806683       5.51351494       1.93228773
Si       1.69493826       6.24665836       3.16718597
Si       1.72127856       4.20181900       1.97014082
Si       1.69070569       6.31038105       0.80987077
Si       1.99243326      -0.28829284       4.63021417
Si       2.14126073      -2.35029631       5.86511240
Si       2.05201509      -0.26530368       6.98752937
Si       0.12656607      -1.12531223       5.82725932
Si      -0.99931502       1.44869995       0.45918950
Si       2.81461063       3.73763029       6.17559616
Si      -0.75478867      -0.32903337       1.62180398
Si      -4.92015014       3.95141860       7.43592955
Si       2.87765091       4.50821540      -0.00000000
Si       3.24509475      -2.07138502       3.84984061
22
Lattice="9.443136624483845 0.2903471979761594 -0.10744816394633627 -3.712357551942342 8.6876655213341 0.10744816394636418 -2.9559586868652117 -4.4311949253130996 7.803556604997608" Properties=species:S:1:pos:R:3 unique_starting_index=6 config_type=initial n_minim_iter=4 stress="0.000716030904585623 -0.005030114334621386 -0.0012455661766124645 -0.005030114334621386 -0.003953513534420807 0.000795060644438413 -0.0012455661766124645 0.000795060644438413 0.003926816813538803" pbc="T T T"
Si      -3.63781643       5.30119362       6.03285578
Si       3.00682912       1.41959431       5.81120519
Si       6.26876786       2.41810349      -0.00273674
Si      -0.13430311      -0.01578918       3.82055515
Si       6.50889993      -0.81582178       1.88490324
Si      -0.32827185       3.18866946       1.87814899
Si       2.81704260       4.41835026       3.98300145
Si      -3.40186659       2.27297103       7.80629334
Si      -0.25314107       5.50035596       1.93763324
Si       1.67624151       6.22730252       3.17281218
Si       1.70936860       4.18732738       1.97388142
Si       1.67305010       6.28967348       0.81211274
Si       1.98680856      -0.28895709       4.63074442
Si       2.13973177      -2.34506578       5.86592336
Si       2.04472595      -0.26559266       6.99144386
Si       0.12249612      -1.11777259       5.82967518
Si      -0.99955380       1.44566739       0.46440232
Si       2.79998675       3.72311424       6.18318300
Si      -0.75773817      -0.32396569       1.62037360
Si      -4.93619064       3.95847247       7.44660244
Si       2.86538954       4.48900636      -0.00000000
Si       3.24358897      -2.07042386       3.84805422
22
Lattice="9.430361350033598 0.3053913471738757 -0.10965683875855503 -3.6933331093458275 8.682411508938399 0.10965683875858295 -2.9609450011744247 -4.434901627757271 7.784693696065299" Properties=species:S:1:pos:R:3 unique_starting_index=6 config_type=initial n_minim_iter=5 stress="-0.0026402471316319554 -0.0001773405125892475 -0.0019263957203780274 -0.0001773405125892475 -0.002804875477884272 0.0012296427533493863 -0.0019263957203780274 0.0012296427533493863 -0.0025270479625771297" pbc="T T T"
Si      -3.62400223       5.28767891       6.02102057
Si       3.00616011       1.43160781       5.79008078
Si       6.26755390       2.42547401       0.00030136
Si      -0.13859241      -0.01275737       3.80668118
Si       6.50231688      -0.80003328       1.88495607
Si      -0.33230829       3.18654904       1.87332996
Si       2.82286134       4.42181952       3.97801251
Si      -3.39965636       2.27126632       7.78439233
Si      -0.24544898       5.50142473       1.93383725
Si       1.68297886       6.23080231       3.16690344
Si       1.71429928       4.19049391       1.97105921
Si       1.67881466       6.29345910       0.80966032
Si       1.98216020      -0.28507919       4.61779026
Si       2.13247639      -2.34134538       5.85085644
Si       2.04074642      -0.26247679       6.97503337
Si       0.11830612      -1.11567374       5.81363448
Si      -0.99209836       1.44248649       0.46737259
Si       2.80303763       3.72647835       6.17231587
Si      -0.76095753      -0.32348874       1.61237782
Si      -4.92817662       3.95493503       7.42697794
Si       2.86851412       4.49390143      -0.00000000
Si       3.23470817      -2.06475514       3.83751843
22
Lattice="9.42179476834088 0.31144344655798983 -0.10876205289055556 -3.6842368614199983 8.677189200777724 0.10876205289058341 -2.9604556053856004 -4.43579795721877 7.774216484801744" Properties=species:S:1:pos:R:3 unique_starting_index=6 config_type=initial n_minim_iter=6 stress="-6.648764335392023e-05 0.0013483669884722658 0.0006550307581228552 0.0013483669884722658 0.0011852253702912502 -0.0004181144177321044 0.0006550307581228552 -0.0004181144177321044 -0.0009271675083761838" pbc="T T T"
Si      -3.60968961       5.27395078       6.01274333
Si       3.00665324       1.43646918       5.77152489
Si       6.26668301       2.42604419       0.00560557
Si      -0.14205083      -0.00998015       3.79724485
Si       6.49844161      -0.79238350       1.89392954
Si      -0.34120063       3.18763293       1.87023520
Si       2.82785554       4.41978526       3.97697163
Si      -3.39828311       2.26982009       7.76861091
Si      -0.24480687       5.49921902       1.92876664
Si       1.68859710       6.23017985       3.16517542
Si       1.71339642       4.18703707       1.97263123
Si       1.67984838       6.29800029       0.80856142
Si       1.97971962      -0.28114155       4.60904106
Si       2.13069475      -2.34258792       5.84544984
Si       2.04491970      -0.26052356       6.96565506
Si       0.11604010      -1.11884440       5.80158525
Si      -0.98443684       1.44967760       0.46535589
Si       2.79687748       3.71891284       6.16442754
Si      -0.76473692      -0.33315786       1.60978894
Si      -4.91529388       3.95879337       7.41762264
Si       2.86877895       4.49431633      -0.00000000
Si       3.23066958      -2.06217725       3.83272721
22
Lattice="9.415371216964473 0.3120130067543079 -0.1152805413484474 -3.681015818056734 8.671602494166988 0.11528054134847512 -2.9643488937564935 -4.429782148117116 7.768495519027359" Properties=species:S:1:pos:R:3 unique_starting_index=6 config_type=initial n_minim_iter=7 stress="0.00011158985734519395 -0.00021679080337978706 0.00023986157958404253 -0.00021679080337978706 -8.966089422803292e-05 -0.00015310668001589092 0.00023986157958404253 -0.00015310668001589092 0.0002499701097353326" pbc="T T T"
Si      -3.60075763       5.26625317       6.01217672
Si       3.00161263       1.43815221       5.75333583
Si       6.26494548       2.42372557       0.00816216
Si      -0.14974707      -0.00517052       3.79174095
Si       6.49177355      -0.78966164       1.89987914
Si      -0.35261553       3.19292298       1.87159933
Si       2.82836258       4.41582797       3.97675457
Si      -3.40354798       2.27328370       7.76033335
Si      -0.24949296       5.49951838       1.92775014
Si       1.68747222       6.22652835       3.16928647
Si       1.70595576       4.18210149       1.97436796
Si       1.67957438       6.30079889       0.81217772
Si       1.97298782      -0.27768340       4.59920904
Si       2.12904592      -2.34069661       5.84074537
Si       2.04368025      -0.25357803       6.95631780
Si       0.11080262      -1.12165562       5.79412756
Si      -0.97505288       1.45300929       0.46805719
Si       2.78783106       3.71183501       6.16482388
Si      -0.77124148      -0.33832751       1.60367163
Si      -4.91689491       3.96913692       7.41571887
Si       2.86717770       4.49180775      -0.00000000
Si       3.22551116      -2.05888457       3.82660749
22
Lattice="9.408433731639176 0.3179036428524645 -0.12343853501509003 -3.6727519025815787 8.667789883867071 0.12343853501511781 -2.9718886175911847 -4.426431798500873 7.759478375416983" Properties=species:S:1:pos:R:3 unique_starting_index=6 config_type=initial n_minim_iter=8 stress="0.0005170244250397341 -0.0007289168348374733 0.0004093987970626532 -0.0007289168348374733 -0.00015964201356844274 -0.0002613244302381142 0.0004093987970626532 -0.0002613244302381142 0.0009823011587025453" pbc="T T T"
Si      -3.58134421       5.25653142       6.00826650
Si       2.99676018       1.44004186       5.72358322
Si       6.26410712       2.42831152       0.01415283
Si      -0.16284714       0.00060297       3.78589792
Si       6.48105330      -0.78402651       1.91245662
Si      -0.36888285       3.20597671       1.87465041
Si       2.83290149       4.41180462       3.97358045
Si      -3.40657505       2.27780436       7.74532554
Si      -0.25097148       5.51108674       1.92396852
Si       1.68716771       6.21902283       3.17675703
Si       1.69774587       4.18220736       1.97506301
Si       1.68264362       6.30689907       0.81915493
Si       1.95876840      -0.27776921       4.58272134
Si       2.13262179      -2.33381688       5.83550985
Si       2.04038151      -0.24487544       6.94032344
Si       0.10681542      -1.12570751       5.78441536
Si      -0.95725777       1.45973565       0.47188780
Si       2.77664454       3.70235267       6.16718745
Si      -0.78267248      -0.34911615       1.59229092
Si      -4.91756159       3.98764767       7.41102911
Si       2.86784091       4.49284677      -0.00000000
Si       3.21827256      -2.05426407       3.81801992
22
Lattice="9.401746857767847 0.3327489340001495 -0.13611710887730463 -3.6564711528207368 8.667974650356085 0.1361171088773325 -2.9873725366133526 -4.427125192128694 7.745854475696194" Properties=species:S:1:pos:R:3 unique_starting_index=6 config_type=initial n_minim_iter=9 stress="0.0009896224317512635 -0.0005612631849707911 0.00021942286370946047 -0.0005612631849707911 0.000468591852753713 -0.00014006038916502406 0.00021942286370946047 -0.00014006038916502406 0.0013478837672487645" pbc="T T T"
Si      -3.55391168       5.25273164       6.00223861
Si       2.98893612       1.44190228       5.68573685
Si       6.26622507       2.44604737       0.02108378
Si      -0.18323620       0.00510678       3.78003143
Si       6.46386408      -0.77618818       1.92400051
Si      -0.38308218       3.22875106       1.87973297
Si       2.83968077       4.40954350       3.96582304
Si      -3.40686331       2.28649916       7.72477069
Si      -0.24942681       5.53138028       1.92182294
Si       1.68891931       6.21777919       3.18637382
Si       1.69275076       4.18701432       1.96958125
Si       1.69612412       6.31782972       0.82595175
Si       1.94141898      -0.27739741       4.55948065
Si       2.13489485      -2.32456526       5.82403153
Si       2.02913676      -0.22873932       6.91990272
Si       0.09779470      -1.12890792       5.77627322
Si      -0.93501340       1.46736089       0.47812908
Si       2.76611757       3.69782504       6.16821098
Si      -0.79783117      -0.36126427       1.57764349
Si      -4.91921352       4.01052622       7.40384250
Si       2.87263785       4.50036180      -0.00000000
Si       3.20718716      -2.04718812       3.80486868
22
Lattice="9.40100044524398 0.3441166705467454 -0.14388506893561476 -3.6458457622484115 8.672083621155949 0.14388506893564262 -2.998859768409736 -4.4306840387746815 7.739108967151792" Properties=species:S:1:pos:R:3 unique_starting_index=6 config_type=initial n_minim_iter=10 stress="0.0010781698809361852 -0.0003553628558756058 -6.161070097748904e-05 -0.0003553628558756058 0.0007482802328924699 3.932688968388475e-05 -6.161070097748904e-05 3.932688968388475e-05 0.0013050025017174237" pbc="T T T"
Si      -3.53739155       5.25520883       5.99975522
Si       2.98437709       1.44268147       5.66537664
Si       6.27192129       2.46489077       0.02659617
Si      -0.19968593       0.00401876       3.77862307
Si       6.45425662      -0.77218652       1.92984726
Si      -0.38865233       3.24532876       1.88323881
Si       2.84401124       4.40608252       3.96048589
Si      -3.40365678       2.29604047       7.71251279
Si      -0.24268007       5.54723114       1.91831129
Si       1.69261640       6.21704449       3.18921535
Si       1.69158518       4.19516095       1.96538993
Si       1.70617875       6.32579168       0.83131748
Si       1.92770879      -0.27791212       4.54989362
Si       2.13494470      -2.31533098       5.82079767
Si       2.02063828      -0.21982597       6.90779148
Si       0.09418762      -1.13009414       5.77371904
Si      -0.92264200       1.47188048       0.48394641
Si       2.76378167       3.69779095       6.16946179
Si      -0.80836587      -0.36695626       1.56964718
Si      -4.92118441       4.02420068       7.39904762
Si       2.87757734       4.50810015      -0.00000000
Si       3.20107034      -2.04328368       3.79761195
22
Lattice="9.398403733420132 0.3595902053906741 -0.1508637529452871 -3.6307171885728033 8.676242882076362 0.15086375294531507 -3.0110081485865354 -4.436745594898838 7.728594709222539" Properties=species:S:1:pos:R:3 unique_starting_index=6 config_type=initial n_minim_iter=11 stress="0.00031060526436558887 2.0102720140740627e-05 -0.00022473919977300505 2.0102720140740627e-05 0.0003292669763723024 0.00014345387371290645 -0.00022473919977300505 0.00014345387371290645 0.0002977734994725207" pbc="T T T"
Si      -3.51571149       5.25956842       5.99462404
Si       2.97785215       1.44246419       5.64246912
Si       6.28079079       2.49600065       0.03505385
Si      -0.22310836      -0.00398577       3.77737107
Si       6.44206155      -0.76878449       1.93526183
Si      -0.39084542       3.26492689       1.88483442
Si       2.84699542       4.39503833       3.95122364
Si      -3.39132105       2.31112179       7.69354086
Si      -0.23381944       5.56684766       1.91083556
Si       1.69998799       6.21469877       3.19230114
Si       1.69554462       4.20243824       1.95674610
Si       1.72154997       6.33380743       0.83189551
Si       1.91032916      -0.27827484       4.53629357
Si       2.13685907      -2.30509659       5.81775915
Si       2.00928907      -0.20857025       6.89669919
Si       0.08697313      -1.12950042       5.77184861
Si      -0.90983521       1.47635846       0.49389450
Si       2.76681221       3.69701982       6.16733323
Si      -0.82248962      -0.37059361       1.56126147
Si      -4.91953433       4.03580012       7.38556396
Si       2.88384327       4.51791655      -0.00000000
Si       3.19369779      -2.03857769       3.78886548
22
Lattice="9.395971847365736 0.37581336125130554 -0.15710595891745377 -3.614978063370383 8.680867251625019 0.15710595891748166 -3.0229234279000297 -4.443810773642355 7.71781605627041" Properties=species:S:1:pos:R:3 unique_starting_index=6 config_type=initial n_minim_iter=12 stress="-0.0003585737607950112 0.0005779659827206927 -0.00021055148951894842 0.0005779659827206927 0.0001779623218945999 0.0001343976788126254 -0.00021055148951894842 0.0001343976788126254 -0.0007274967055534325" pbc="T T T"
Si      -3.49877922       5.26506580       5.99237717
Si       2.96991922       1.44589326       5.62491226
Si       6.29382156       2.53009253       0.04307180
Si      -0.24770873      -0.01602177       3.77395150
Si       6.43416464      -0.76537840       1.93579783
Si      -0.38916393       3.28015903       1.88254484
Si       2.84782726       4.38143948       3.94386455
Si      -3.37779937       2.33022946       7.67474425
Si      -0.22268807       5.58169436       1.90248002
Si       1.71038245       6.21545358       3.19090650
Si       1.69890915       4.20928810       1.94756472
Si       1.73851575       6.34332218       0.83274502
Si       1.89472229      -0.27559391       4.52690955
Si       2.13372404      -2.29581433       5.81533604
Si       1.99886129      -0.19624071       6.88507103
Si       0.07985452      -1.13062988       5.77025133
Si      -0.90222952       1.48043435       0.50635004
Si       2.77465285       3.69775520       6.16077253
Si      -0.83703890      -0.37023731       1.55704352
Si      -4.91521556       4.04197409       7.36857197
Si       2.89049689       4.52834031      -0.00000000
Si       3.18652421      -2.03399870       3.78035505
22
Lattice="9.392262968179152 0.38146048155690054 -0.16026989957301677 -3.60829432656859 8.679880633699538 0.16026989957304455 -3.027077795226605 -4.444438684244345 7.711651380007192" Properties=species:S:1:pos:R:3 unique_starting_index=6 config_type=initial n_minim_iter=13 stress="-0.0006744908625214626 0.0004116994870733299 -0.00027685428537981417 0.0004116994870733299 -0.0002923029195560255 0.00017671959200808767 -0.00027685428537981417 0.00017671959200808767 -0.0009372837837597562" pbc="T T T"
Si      -3.49005787       5.26380876       5.99419697
Si       2.96272175       1.44945729       5.61372060
Si       6.30209401       2.54894336       0.04754941
Si      -0.26360665      -0.02672547       3.77095642
Si       6.43256441      -0.76538716       1.93766087
Si      -0.39144660       3.28592600       1.87772431
Si       2.84363222       4.36654538       3.94069496
Si      -3.36833788       2.34504162       7.66410196
Si      -0.21982561       5.58776232       1.89559859
Si       1.71557713       6.21080203       3.19175851
Si       1.69888032       4.20808539       1.94351411
Si       1.74545874       6.34667089       0.83212220
Si       1.88416167      -0.27346834       4.51989286
Si       2.13386849      -2.29129112       5.81605278
Si       1.99482127      -0.18916109       6.87952917
Si       0.07462136      -1.13179030       5.76813726
Si      -0.89947077       1.48502390       0.51643633
Si       2.77909512       3.69184884       6.15446387
Si      -0.84842092      -0.36932252       1.55718751
Si      -4.90968470       4.04479417       7.35548495
Si       2.89198432       4.53067056      -0.00000000
Si       3.18259259      -2.03148910       3.77569074
22
Lattice="9.391451356940616 0.3811965063423227 -0.1605907573101576 -3.6081920642028655 8.67903332140469 0.16059075731018538 -3.0269935771382555 -4.443710404781939 7.711109289846652" Properties=species:S:1:pos:R:3 unique_starting_index=6 config_type=initial n_minim_iter=14 stress="-0.0005668633914765049 7.994856798193124e-05 -0.00016751324788184964 7.994856798193124e-05 -0.0004926457164481096 0.00010692582482850077 -0.00016751324788184964 0.00010692582482850077 -0.0006178955321446022" pbc="T T T"
Si      -3.48829923       5.26177681       5.99997205
Si       2.95745466       1.45294670       5.61082409
Si       6.30806966       2.55682063       0.04732816
Si      -0.26934774      -0.03553452       3.76961567
Si       6.43721962      -0.76823129       1.93969444
Si      -0.39384362       3.28654665       1.87172799
Si       2.83743391       4.35724615       3.94149361
Si      -3.36362440       2.35450659       7.66378112
Si      -0.22034252       5.58794005       1.89301679
Si       1.71711306       6.20840977       3.19228986
Si       1.69654522       4.20594036       1.94227890
Si       1.74743940       6.34747810       0.83293638
Si       1.88142934      -0.27235408       4.51881943
Si       2.13433155      -2.29095688       5.81809249
Si       1.99480377      -0.18629641       6.87817290
Si       0.07374304      -1.13408318       5.76883039
Si      -0.90239657       1.48957441       0.52271203
Si       2.78254310       3.68618298       6.14900720
Si      -0.85492760      -0.36785216       1.56210209
Si      -4.90413886       4.04393713       7.34898801
Si       2.89162965       4.53011492      -0.00000000
Si       3.18222889      -2.03125694       3.77525926
22
Lattice="9.397608176294654 0.37409894867841287 -0.15451368725500753 -3.617222048013083 8.68162969228304 0.15451368725503514 -3.0204345311256304 -4.444729544811692 7.720117774669862" Properties=species:S:1:pos:R:3 unique_starting_index=6 config_type=initial n_minim_iter=15 stress="2.8270565198851214e-05 -0.0006594108303083458 5.170047060965836e-06 -0.0006594108303083458 -0.0005838722154316013 -3.3001064306467975e-06 5.170047060965836e-06 -3.3001064306467975e-06 0.0004491808371235798" pbc="T T T"
Si      -3.48821376       5.25902335       6.01420947
Si       2.95283455       1.45542709       5.61534763
Si       6.31654847       2.56092192       0.04110867
Si      -0.26473394      -0.05116056       3.77368391
Si       6.45413048      -0.77949439       1.95025645
Si      -0.39884807       3.28704216       1.86042199
Si       2.82500365       4.34933196       3.94643386
Si      -3.35691499       2.36290489       7.67900910
Si      -0.22414543       5.58713117       1.89310161
Si       1.71563616       6.20625365       3.19506017
Si       1.69246945       4.20357836       1.94341138
Si       1.74586277       6.34711292       0.83510105
Si       1.88665447      -0.27562060       4.52505760
Si       2.14175798      -2.29576601       5.82701616
Si       2.00169537      -0.18889937       6.88501672
Si       0.07987560      -1.13979370       5.77670639
Si      -0.91420855       1.49619538       0.52840287
Si       2.79144256       3.67825352       6.14449680
Si      -0.85930782      -0.36413745       1.57562097
Si      -4.89563119       4.03758781       7.34622859
Si       2.89019306       4.52786432      -0.00000000
Si       3.18858682      -2.03531529       3.78280204
22
Lattice="9.407222528194827 0.3779261433689765 -0.150141693629071 -3.617798382252909 8.691961730828453 0.1501416936290986 -3.0212683135919804 -4.454161488028411 7.726162670358001" Properties=species:S:1:pos:R:3 unique_starting_index=6 config_type=initial n_minim_iter=16 stress="0.001269118899098872 0.0002611607958854117 0.00014534804149681773 0.0002611607958854117 0.0015115591024405942 -9.277749324866126e-05 0.00014534804149681773 -9.277749324866126e-05 0.001102416623943194" pbc="T T T"
Si      -3.47044154       5.25944985       6.02091651
Si       2.95145708       1.45449977       5.60496860
Si       6.32436908       2.57307020       0.03601542
Si      -0.26001008      -0.06135197       3.77967299
Si       6.46264986      -0.78673898       1.97105237
Si      -0.40735373       3.30424216       1.85538785
Si       2.82197492       4.35405329       3.94648967
Si      -3.35002225       2.36568128       7.69014724
Si      -0.22057046       5.60129102       1.89639878
Si       1.71443815       6.21050488       3.19966541
Si       1.69025157       4.21163812       1.94113365
Si       1.75380747       6.35532597       0.84130705
Si       1.89018116      -0.28434937       4.52649726
Si       2.15226282      -2.29599374       5.82976388
Si       2.00496641      -0.18766722       6.88485561
Si       0.08728621      -1.14784408       5.78502902
Si      -0.91659488       1.50083882       0.52870001
Si       2.79848217       3.68060399       6.14603184
Si      -0.86097338      -0.36619451       1.58013083
Si      -4.89182477       4.03827835       7.34760435
Si       2.89471207       4.53494394      -0.00000000
Si       3.19297711      -2.03811767       3.78801049
22
Lattice="9.406201440853481 0.37656616593745845 -0.14975461142097637 -3.6186020589540315 8.69046297743547 0.1497546114210038 -3.0200296535783826 -4.452940389985445 7.726033706995348" Properties=species:S:1:pos:R:3 unique_starting_index=6 config_type=initial n_minim_iter=17 stress="0.0003002476325213485 8.211510920330159e-05 9.205331080040479e-05 8.211510920330159e-05 0.00037647654622454383 -5.875879257411666e-05 9.205331080040479e-05 -5.875879257411666e-05 0.0002478324969343628" pbc="T T T"
Si      -3.46685857       5.25647022       6.02339931
Si       2.94865730       1.45496773       5.60073236
Si       6.32585927       2.57654546       0.03564480
Si      -0.26229131      -0.06633406       3.78015777
Si       6.46447064      -0.78922040       1.97554673
Si      -0.41112992       3.30595998       1.85238901
Si       2.81783023       4.34824892       3.94587593
Si      -3.34625874       2.36971720       7.69038890
Si      -0.22068863       5.60259454       1.89514047
Si       1.71311707       6.20609655       3.20046636
Si       1.68835175       4.20998306       1.93963377
Si       1.75454758       6.35369779       0.84201795
Si       1.88797743      -0.28618255       4.52556734
Si       2.15473359      -2.29433102       5.83089323
Si       2.00441663      -0.18646030       6.88401576
Si       0.08782350      -1.14904303       5.78639994
Si      -0.91823058       1.50199003       0.53032044
Si       2.79921337       3.67801839       6.14390471
Si      -0.86238785      -0.36539876       1.58212899
Si      -4.88965693       4.03700170       7.34546787
Si       2.89379969       4.53351458      -0.00000000
Si       3.19308589      -2.03818711       3.78813955
22
Lattice="9.404201378648345 0.3720661841108244 -0.14814894434253595 -3.621841721040443 8.6867542478915 0.14814894434256423 -3.0160563479959506 -4.449699954364098 7.726769010853471" Properties=species:S:1:pos:R:3 unique_starting_index=6 config_type=initial n_minim_iter=18 stress="-0.0012550397093082873 -0.00022145826267350597 -0.00013543779560286186 -0.00022145826267350597 -0.0014606233462104287 8.645165794823252e-05 -0.00013543779560286186 8.645165794823252e-05 -0.001113680065718981" pbc="T T T"
Si      -3.46089335       5.24900818       6.02891946
Si       2.94366156       1.45603429       5.59329494
Si       6.32701265       2.58271981       0.03534093
Si      -0.26643571      -0.07637585       3.78324294
Si       6.46951461      -0.79456230       1.98532512
Si      -0.41967620       3.30776081       1.84599849
Si       2.80920024       4.33529369       3.94352606
Si      -3.33717056       2.37660332       7.69142808
Si      -0.22173001       5.60308249       1.89264473
Si       1.71006122       6.19667062       3.20160670
Si       1.68264887       4.20437235       1.93592939
Si       1.75662588       6.35006883       0.84380618
Si       1.88468748      -0.28968240       4.52516231
Si       2.15958793      -2.29182973       5.83412428
Si       2.00422327      -0.18286259       6.88296282
Si       0.08910860      -1.15333761       5.79083962
Si      -0.92340173       1.50112618       0.53016364