22
Lattice="10.009546264217063 0.07874422480913856 -0.6287501117233093 -4.142760537124977 9.112340654326006 0.628750111723318 -3.463376007245286 -4.2572474957234006 8.394844499097596" Properties=species:S:1:pos:R:3 unique_starting_index=6 config_type=initial n_minim_iter=1 energy=-3570.041616999561 free_energy=-3570.041616999561 pbc="T T T"
Si      -3.58803271       5.62622003       7.42118390
Si       2.24117395       1.70146116       5.42281848
Si       6.92163439       3.19862486      -0.33104040
Si      -0.77196770      -0.65607068       4.28148608
Si       7.14591398      -1.42929643       2.34327590
Si      -0.99223578       3.96929002       1.60241070
Si       2.13333016       3.95740516       4.11335842
Si      -3.47617742       3.36771545       8.72588490
Si      -0.84287466       6.04930655       2.41120579
Si       1.33482543       6.57260346       3.96526818
Si       1.70141848       4.06295409       1.89367802
Si       1.93536959       6.55156651       0.75189567
Si       1.93633931      -0.27931466       4.42957632
Si       2.37852935      -2.47492057       5.98363871
Si       1.66441859       0.25655375       7.64294882
Si      -0.49438722      -1.00339956       6.50116647
Si      -1.65236996       1.96158919       1.35284863
Si       3.13246277       3.56161306       5.94661247
Si      -1.55162355       0.08356039       2.44823203
Si      -5.13119609       4.18216792       7.67074598
Si       2.93339286       4.59554244      -0.00000000
Si       3.27308513      -2.08925163       3.88304719
22
Lattice="10.002530583309092 0.18578442438338902 -0.6742247496836097 -4.042715694542904 9.151042767656252 0.6742247496836187 -3.5482219191128896 -4.305651278764592 8.331338500737012" Properties=species:S:1:pos:R:3 unique_starting_index=6 config_type=initial n_minim_iter=2 stress="-0.005431786963027695 -0.0012698786377545563 -0.014624954937812629 -0.0012698786377545563 -0.006610637847256537 0.00933529371307475 -0.014624954937812629 0.00933529371307475 -0.004621203746817531" pbc="T T T"
Si      -3.56419647       5.76381979       7.32100408
Si       2.24929598       1.64602404       5.43128664
Si       6.81581421       3.27490141      -0.41858280
Si      -0.69395287      -0.61203672       4.34821782
Si       7.00034847      -1.38663286       2.22582711
Si      -0.86226204       4.03914087       1.68455916
Si       2.14860900       4.14404629       3.98312067
Si      -3.44728440       3.25544086       8.74992130
Si      -0.72576681       6.13381680       2.28160500
Si       1.46486786       6.53545808       3.91202627
Si       1.59926425       4.13557791       1.93512877
Si       1.99009522       6.71434097       0.87707800
Si       1.76305054      -0.22540191       4.41931223
Si       2.32103434      -2.38152112       6.04973349
Si       1.70417732       0.32631977       7.45426049
Si      -0.47035085      -1.11388680       6.39620973
Si      -1.60117291       1.98657854       1.32016654
Si       3.08694331       3.63556164       5.91281594
Si      -1.55022973       0.02500163       2.41852255
Si      -5.11488532       4.22942561       7.68539670
Si       2.97990744       4.66841360      -0.00000000
Si       3.22715433      -2.05993342       3.82855687
22
Lattice="10.045713159110614 0.23340296514017755 -0.5471875385119993 -4.017703742525535 9.210259847396316 0.5471875385120086 -3.475237412904754 -4.427420737248114 8.342116911246187" Properties=species:S:1:pos:R:3 unique_starting_index=6 config_type=initial n_minim_iter=3 stress="-0.003960739566628129 -0.003777635460883627 -0.01542828691797573 -0.003777635460883627 -0.007467585631250967 0.00984807067654648 -0.01542828691797573 0.00984807067654648 -0.001549423253271549" pbc="T T T"
Si      -3.46564394       5.76799208       7.22402289
Si       2.34380322       1.59380179       5.47749716
Si       6.82312428       3.32586715      -0.37574489
Si      -0.61411313      -0.64344875       4.38025629
Si       7.02935808      -1.39704714       2.31743221
Si      -0.80197336       4.06773745       1.66528155
Si       2.22768180       4.18830633       3.96186062
Si      -3.33114893       3.16175944       8.71786180
Si      -0.65869723       6.17609806       2.19271806
Si       1.56939491       6.53400957       3.87824139
Si       1.61372597       4.16549855       1.93690975
Si       2.03903218       6.79431720       0.88098662
Si       1.79071355      -0.25296965       4.46387551
Si       2.40413278      -2.42465380       6.14939885
Si       1.82910123       0.28261005       7.46113029
Si      -0.37631537      -1.20994163       6.40520715
Si      -1.57504212       1.99096905       1.27732685
Si       3.18245620       3.62870696       5.94325814
Si      -1.52367530      -0.01301852       2.39885877
Si      -5.02390793       4.19242371       7.61197759
Si       3.01400471       4.72183141      -0.00000000
Si       3.28523787      -2.09700888       3.89746468
22
Lattice="10.058361768614878 0.3599313629545618 -0.34295763583838235 -3.9082610669312863 9.275003368575183 0.34295763583839134 -3.3641342932723117 -4.632941428980964 8.284700728862367" Properties=species:S:1:pos:R:3 unique_starting_index=6 config_type=initial n_minim_iter=4 stress="0.016381612956225776 -0.001182732702217433 -0.00359917242347985 -0.001182732702217433 0.015283661191101775 0.0022973972802002554 -0.00359917242347985 0.0022973972802002554 0.01713656709019475" pbc="T T T"
Si      -3.26153452       5.72276462       7.02833550
Si       2.48282383       1.55460717       5.48534545
Si       6.85164054       3.44429536      -0.28542203
Si      -0.51901891      -0.70617693       4.36252291
Si       7.05902823      -1.36644198       2.45639763
Si      -0.70838472       4.09305681       1.59932286
Si       2.36394217       4.23390344       3.92217782
Si      -3.12463098       3.03196475       8.57012275
Si      -0.53574405       6.22785508       2.06994976
Si       1.73590252       6.56669040       3.80244968
Si       1.68428875       4.21346242       1.90635229
Si       2.14470062       6.90306703       0.84731476
Si       1.86135743      -0.29369996       4.48225105
Si       2.51041691      -2.49685889       6.21475096
Si       1.99435802       0.21872172       7.43738596
Si      -0.25141458      -1.33126455       6.37834843
Si      -1.52406216       1.97391467       1.21134178
Si       3.35300704       3.63895759       5.93798982
Si      -1.47507906      -0.05952489       2.34671090
Si      -4.84029477       4.09070789       7.41631658
Si       3.07505035       4.81746737      -0.00000000
Si       3.34711374      -2.13650503       3.97087154
22
Lattice="9.953486829841411 0.41177947806009063 -0.1909301936433748 -3.817077987250649 9.2017051707618 0.19093019364338426 -3.2291419251887192 -4.704013880140058 8.168403307358219" Properties=species:S:1:pos:R:3 unique_starting_index=6 config_type=initial n_minim_iter=5 stress="0.001561010817756158 -2.0990717181757196e-05 0.0009223524119064845 -2.0990717181757196e-05 0.0015415247623364794 -0.000588749210422688 0.0009223524119064845 -0.000588749210422688 0.0015744092296986422" pbc="T T T"
Si      -3.09757578       5.61602449       6.82389835
Si       2.55121712       1.49793917       5.44173842
Si       6.78655017       3.45621738      -0.21545497
Si      -0.44325862      -0.74000459       4.30750581
Si       7.00895008      -1.34748816       2.53573469
Si      -0.64805758       4.05246604       1.53543515
Si       2.42266286       4.19585749       3.86089749
Si      -2.95142058       2.90687127       8.38385827
Si      -0.46321200       6.17733054       1.96502544
Si       1.81256989       6.49178928       3.71412677
Si       1.70502528       4.18121386       1.86523623
Si       2.17428869       6.87300300       0.81248443
Si       1.89613228      -0.32676566       4.45427654
Si       2.56904366      -2.52341261       6.20337787
Si       2.08962365       0.16182975       7.35591887
Si      -0.15440380      -1.39710505       6.30316707
Si      -1.47778493       1.93876210       1.15346320
Si       3.42806649       3.58156454       5.87961390
Si      -1.42374650      -0.08667788       2.28878940
Si      -4.66548805       3.97351332       7.20587030
Si       3.06820442       4.80674233      -0.00000000
Si       3.36217245      -2.14611720       3.98873655
22
Lattice="9.919400372738172 0.2699902673945456 -0.046858670984374254 -3.9313373365370627 9.111091331202628 0.046858670984383434 -3.0335287453826965 -4.665329219563907 8.215960130029387" Properties=species:S:1:pos:R:3 unique_starting_index=6 config_type=initial n_minim_iter=6 stress="-0.006370562404026624 -0.010973404159621369 0.005522820140058394 -0.010973404159621369 -0.01655736830183037 -0.003525285947967851 0.005522820140058394 -0.003525285947967851 0.0006338988954114525" pbc="T T T"
Si      -3.08694719       5.48720563       6.76974365
Si       2.61812442       1.41371887       5.50754066
Si       6.74625047       3.28925041      -0.12681722
Si      -0.38331511      -0.74912353       4.29919631
Si       7.06591544      -1.42536239       2.66156079
Si      -0.68802409       3.95594267       1.49307515
Si       2.43642166       4.05267181       3.91676381
Si      -2.89028843       2.83870609       8.34277734
Si      -0.52060873       6.07850527       1.91842880
Si       1.76493691       6.33056229       3.70933504
Si       1.67180078       4.07324409       1.84556850
Si       2.10110650       6.72179945       0.78239740
Si       1.96555833      -0.39916588       4.50662509
Si       2.69918206      -2.57839690       6.29753133
Si       2.17889813       0.07047508       7.43356273
Si      -0.04273684      -1.43401384       6.37039162
Si      -1.48854473       1.90009584       1.13243846
Si       3.47826280       3.43151094       5.93890527
Si      -1.38537336      -0.06563757       2.27705486
Si      -4.61467651       3.89554530       7.13038033
Si       2.99403152       4.69054080      -0.00000000
Si       3.44293581      -2.19766947       4.08455073
22
Lattice="9.883799513703066 0.45442448450461653 0.013123104798529187 -3.7490571893032523 9.156449346254686 -0.0131231047985227 -3.056308768677488 -4.812498181082053 8.086717790467327" Properties=species:S:1:pos:R:3 unique_starting_index=6 config_type=initial n_minim_iter=7 stress="-0.0069478818488825905 -0.0024507813750933804 0.002180242042206073 -0.0024507813750933804 -0.009222985709350182 -0.0013916760712181621 0.002180242042206073 -0.0013916760712181621 -0.00538351763941225" pbc="T T T"
Si      -2.96314501       5.46739976       6.61484091
Si       2.68623642       1.47273323       5.45251108
Si       6.79433035       3.42112489      -0.07953750
Si      -0.37299600      -0.75656510       4.20038095
Si       7.03238741      -1.30146992       2.64732981
Si      -0.59861172       3.95808825       1.45875377
Si       2.54922651       4.14152204       3.88633683
Si      -2.81369376       2.79066948       8.16625529
Si      -0.39106017       6.15830476       1.85140022
Si       1.89442129       6.40883828       3.64307206
Si       1.73294982       4.14770453       1.79746958
Si       2.23685725       6.84507486       0.77091687
Si       1.95926369      -0.39593017       4.44364572
Si       2.69424229      -2.57446155       6.23531757
Si       2.21078211       0.09834024       7.31580092
Si      -0.02372207      -1.49436831       6.28924821
Si      -1.44682601       1.86863789       1.10783450
Si       3.58361278       3.53080282       5.86175410
Si      -1.36244449      -0.07544499       2.22496368
Si      -4.50127468       3.81833111       6.96576018
Si       3.06737116       4.80543692      -0.00000000
Si       3.41374537      -2.17903684       4.04992045
22
Lattice="9.881514700855769 0.4932817000007694 0.0916922085379593 -3.712849694810148 9.170736435125178 -0.09169220853795435 -3.0070429127773135 -4.881343990574573 8.063884972287736" Properties=species:S:1:pos:R:3 unique_starting_index=6 config_type=initial n_minim_iter=8 stress="-0.0060696869791843295 -0.0024251284130883477 0.002227414749125079 -0.0024251284130883477 -0.00832097673959318 -0.0014217870066844985 0.002227414749125079 -0.0014217870066844985 -0.004521697391496927" pbc="T T T"
Si      -2.91344369       5.44504564       6.52376636
Si       2.75646992       1.45593023       5.47715860
Si       6.79742323       3.42143880      -0.03492179
Si      -0.32845251      -0.74988711       4.17511001
Si       7.03455778      -1.27482736       2.67841858
Si      -0.55433982       3.93919980       1.44842640
Si       2.61971878       4.16903538       3.88877496
Si      -2.76544532       2.72476123       8.09880676
Si      -0.33791974       6.18254498       1.77860955
Si       1.96332313       6.38149451       3.61132142
Si       1.72599808       4.15880388       1.78482612
Si       2.27841594       6.88668304       0.78274854
Si       1.95471848      -0.41379054       4.45256355
Si       2.74312231      -2.58490064       6.28527542
Si       2.28029188       0.08470809       7.28113642
Si       0.03853828      -1.56484670       6.27905885
Si      -1.42819341       1.83896892       1.08840243
Si       3.65848339       3.53818630       5.87059024
Si      -1.33800320      -0.07327063       2.19329473
Si      -4.45055730       3.76818202       6.88379033
Si       3.08433250       4.83200907      -0.00000000
Si       3.43723589      -2.19403114       4.07778859
22
Lattice="9.891199239615265 0.581360461121587 0.13641881298892478 -3.6370349507442774 9.21660344978483 -0.13641881298892108 -3.0120917620271617 -4.972381770941549 8.024657950168004" Properties=species:S:1:pos:R:3 unique_starting_index=6 config_type=initial n_minim_iter=9 stress="0.004778543861883934 0.005765902020621673 0.0048162468551731985 0.005765902020621673 0.010131133072618932 -0.003074271283495021 0.0048162468551731985 -0.003074271283495021 0.0010980944828212665" pbc="T T T"
Si      -2.85642684       5.44113473       6.45120687
Si       2.81258384       1.48188886       5.47172051
Si       6.83235951       3.48341529      -0.00170308
Si      -0.31422441      -0.74898531       4.13978071
Si       7.03911442      -1.21595906       2.68935625
Si      -0.51112637       3.94409977       1.43703226
Si       2.69499693       4.22522868       3.88487724
Si      -2.72898698       2.69150564       8.02636103
Si      -0.26550003       6.22820994       1.73194064
Si       2.04648524       6.42504076       3.57484742
Si       1.75392620       4.20772111       1.77922854
Si       2.33836330       6.97019483       0.78552711
Si       1.95415575      -0.41106219       4.44981052
Si       2.74900409      -2.59102421       6.29271731
Si       2.32575380       0.08320559       7.23913083
Si       0.06610175      -1.60995723       6.24542941
Si      -1.40973945       1.84321593       1.06277491
Si       3.71006355       3.58349615       5.84463328
Si      -1.32366973      -0.09844627       2.18002466
Si      -4.38370856       3.74153803       6.82546423
Si       3.12708214       4.89898196      -0.00000000
Si       3.43955374      -2.19551065       4.08053838
22
Lattice="9.915254093590585 0.5485464498998152 0.08611212985303597 -3.676926489198013 9.224607229643794 -0.08611212985303464 -3.0465777528003506 -4.932909433168797 8.062589581974667" Properties=species:S:1:pos:R:3 unique_starting_index=6 config_type=initial n_minim_iter=10 stress="0.0030149804690087906 0.0020630265468592817 -0.0026707160551142283 0.0020630265468592817 0.004930124638418521 0.0017047518371654858 -0.0026707160551142283 0.0017047518371654858 0.0016981251921300965" pbc="T T T"
Si      -2.93112627       5.46743424       6.50280648
Si       2.80284188       1.49202987       5.49852952
Si       6.84113672       3.43397051      -0.01350906
Si      -0.33471204      -0.70952512       4.14371040
Si       7.04198324      -1.21386768       2.65017219
Si      -0.53019915       3.93489209       1.47367096
Si       2.68909237       4.23792083       3.91887917
Si      -2.81201735       2.71812230       8.07609864
Si      -0.27787241       6.21561755       1.74837577
Si       2.02608780       6.42363156       3.57850104
Si       1.72479695       4.22274188       1.81138477
Si       2.29704196       6.96522458       0.81816248
Si       1.92697920      -0.39068471       4.48408854
Si       2.70830511      -2.56807588       6.31421381
Si       2.30415651       0.08310473       7.24442710
Si       0.05750429      -1.59058267       6.25120481
Si      -1.42668849       1.84832421       1.07720835
Si       3.67449694       3.59444978       5.86552980
Si      -1.33324606      -0.08662307       2.19705977
Si      -4.44631678       3.77579114       6.89926909
Si       3.11916380       4.88657684      -0.00000000
Si       3.43433817      -2.19218149       4.07435085
22
Lattice="10.001052396635773 0.5214680086547101 0.2240800161087892 -3.737610582811741 9.291030354893804 -0.2240800161087895 -2.9428394336529613 -5.026814615126324 8.149479779152337" Properties=species:S:1:pos:R:3 unique_starting_index=6 config_type=initial n_minim_iter=11 stress="0.017110670978023122 -0.009118476107165116 -0.004382462088670395 -0.009118476107165116 0.008645827722796144 0.0027973809805289375 -0.004382462088670395 0.0027973809805289375 0.022931110692463008" pbc="T T T"
Si      -2.96665078       5.40472630       6.40689007
Si       3.00821347       1.47400996       5.63270195
Si       6.87895476       3.32652121       0.11669636
Si      -0.27782874      -0.63483719       4.14091068
Si       7.12870999      -1.15615508       2.74085784
Si      -0.52906793       3.84878633       1.51850969
Si       2.86174199       4.26640136       4.00856909
Si      -2.82166325       2.61328214       8.03278342
Si      -0.15097569       6.12851847       1.64279962
Si       2.14296007       6.41050521       3.42467452
Si       1.71836538       4.34436923       1.95105051
Si       2.15113027       6.99621526       0.88902467
Si       1.96960605      -0.38410698       4.72480525
Si       2.67961433      -2.58354919       6.50668015
Si       2.49743626      -0.13010248       7.26045511
Si       0.27427284      -1.63911448       6.19842926
Si      -1.41290237       1.82608314       1.04216264
Si       3.77990480       3.56829553       5.97600723
Si      -1.29760950      -0.09592912       2.17347254
Si      -4.42924057       3.75144996       6.88323712
Si       3.13172091       4.90624919      -0.00000000
Si       3.52910648      -2.25267330       4.18677989
22
Lattice="10.010020914224581 0.5486914040319806 0.26675647563985455 -3.7166934182323934 9.310626777770658 -0.2667564756398534 -2.921809580853424 -5.073186349741531 8.142392093936316" Properties=species:S:1:pos:R:3 unique_starting_index=6 config_type=initial n_minim_iter=12 stress="0.010870734865603917 -0.009487758785547303 -0.004904300855153764 -0.009487758785547303 0.0020630799439707716 0.0031304772653870765 -0.004904300855153764 0.0031304772653870765 0.016926892513515878" pbc="T T T"
Si      -2.95471822       5.38138824       6.34378054
Si       3.07750810       1.47844780       5.65276333
Si       6.88640288       3.31685118       0.15985290
Si      -0.26106113      -0.60767625       4.12234195
Si       7.13355952      -1.11058113       2.75638523
Si      -0.51331358       3.82300878       1.53185507
Si       2.93023449       4.29349376       4.02005014
Si      -2.81254041       2.56959499       7.98253918
Si      -0.07413188       6.09731382       1.60562087
Si       2.19609082       6.42464167       3.34311211
Si       1.72994090       4.40985964       1.99468007
Si       2.11118723       7.01472842       0.91450422
Si       1.98108950      -0.37633462       4.79927998
Si       2.63998739      -2.57335719       6.53677122
Si       2.55207522      -0.20491032       7.22788787
Si       0.34983248      -1.64741406       6.14771202
Si      -1.39918255       1.81345942       1.02487351
Si       3.81800046       3.58079289       5.98727634
Si      -1.28128279      -0.10248448       2.15511575
Si      -4.40452021       3.73180446       6.85076211
Si       3.14666375       4.92965910      -0.00000000
Si       3.54410567      -2.26224747       4.20457428
22
Lattice="9.979782060722087 0.5882429634194121 0.20904493003159028 -3.668087000324259 9.29985040318256 -0.2090449300315901 -2.9796393847278027 -5.056522571233896 8.095622778383083" Properties=species:S:1:pos:R:3 unique_starting_index=6 config_type=initial n_minim_iter=13 stress="0.004914374951825149 -0.00574826261997502 -0.010849314617015353 -0.00574826261997502 -0.00042183929013023594 0.006925254742051692 -0.010849314617015353 0.006925254742051692 0.008583566371796912" pbc="T T T"
Si      -2.93438174       5.40820330       6.35362225
Si       3.02092493       1.49501918       5.59233752
Si       6.86123510       3.37945111       0.11144907
Si      -0.28082783      -0.62134421       4.13046850
Si       7.08434444      -1.09871289       2.71233018
Si      -0.50677628       3.85863202       1.53295559
Si       2.88669679       4.31524884       3.96515427
Si      -2.80299271       2.58978587       7.98417371
Si      -0.06598039       6.09124783       1.64689106
Si       2.18006235       6.47623508       3.33297731
Si       1.75310906       4.42719909       1.98937906
Si       2.11945221       7.01782423       0.90430479
Si       1.97680589      -0.35248783       4.76264546
Si       2.57322349      -2.55185347       6.44873171
Si       2.49357378      -0.17944638       7.19131799
Si       0.29797629      -1.60243533       6.10624372
Si      -1.39040654       1.81564231       1.03273139
Si       3.78163118       3.61647285       5.94672997
Si      -1.29143691      -0.10378770       2.14889280
Si      -4.41545844       3.74657120       6.85384645
Si       3.15584753       4.94404669      -0.00000000
Si       3.50007134      -2.23413980       4.15233385
22
Lattice="9.907902035945972 0.6390542682084888 0.29897922695606544 -3.591735770872022 9.25604382357041 -0.298979226956065 -2.906067886511768 -5.108413564913411 8.007695172679956" Properties=species:S:1:pos:R:3 unique_starting_index=6 config_type=initial n_minim_iter=14 stress="0.00016654211281861886 -0.00019340983537711678 -0.001056347752511969 -0.00019340983537711678 -1.3003671067988986e-05 0.0006742801311021622 -0.001056347752511969 0.0006742801311021622 0.0002899983184703544" pbc="T T T"
Si      -2.80229808       5.34609421       6.23323192
Si       3.04045489       1.46528075       5.53751886
Si       6.82894155       3.43358275       0.14674682
Si      -0.24773959      -0.67105374       4.09888689
Si       7.05083915      -1.09459824       2.76915553
Si      -0.46879920       3.85659236       1.47548402
Si       2.90571963       4.27944681       3.90880828
Si      -2.66672483       2.53139325       7.86094835
Si      -0.02245568       6.06897577       1.62599954
Si       2.19964429       6.46808412       3.28430626
Si       1.80030724       4.41518854       1.93347766
Si       2.16282725       6.98187950       0.85805844
Si       2.03473972      -0.39004866       4.72338891
Si       2.60826843      -2.57364216       6.38169562
Si       2.51627990      -0.20712724       7.14963673
Si       0.34078236      -1.61657172       6.07421751
Si      -1.35953204       1.80204853       0.99488920
Si       3.82500330       3.58760344       5.89214106
Si      -1.26231187      -0.12849239       2.11555411
Si      -4.29086468       3.67315523       6.71382674
Si       3.15808313       4.94754905      -0.00000000
Si       3.50091707      -2.23467964       4.15333720
22
Lattice="9.89262116880174 0.6467154858979264 0.31331093851583164 -3.5783531414908487 9.245408768892098 -0.3133109385158304 -2.8930383321031448 -5.114637741209133 7.990692600676004" Properties=species:S:1:pos:R:3 unique_starting_index=6 config_type=initial n_minim_iter=15 stress="-0.0025322922910724546 0.002355268030381163 0.002824864553283848 0.002355268030381163 -0.0003458551642002794 -0.0018031467732176518 0.002824864553283848 -0.0018031467732176518 -0.0040356903635577895" pbc="T T T"
Si      -2.78730760       5.33533899       6.20526267
Si       3.04928792       1.45873636       5.53342806
Si       6.81555638       3.43519515       0.15201136
Si      -0.23790222      -0.67249429       4.09403444
Si       7.03893288      -1.08790447       2.77057548
Si      -0.45845382       3.84880217       1.47211899
Si       2.91140259       4.27856532       3.89665815
Si      -2.64659736       2.51370686       7.83868123
Si       0.00865110       6.07173910       1.63456409
Si       2.18026845       6.45364727       3.25957263
Si       1.80211988       4.43435778       1.91369747
Si       2.16838356       6.95382106       0.86684444
Si       2.04283184      -0.41992590       4.73111996
Si       2.61070800      -2.55048743       6.35612850
Si       2.50151967      -0.22012463       7.12384815
Si       0.37043628      -1.61308117       6.07699512
Si      -1.35191303       1.79531137       0.98485539
Si       3.82852680       3.58513545       5.88518557
Si      -1.25300437      -0.13255964       2.10550703
Si      -4.27377118       3.66037038       6.69252627
Si       3.15713401       4.94606213      -0.00000000
Si       3.49979142      -2.23396112       4.15200177
22
Lattice="9.89062231886476 0.6013039398163661 0.27121589487197834 -3.6187022671976274 9.224476688888267 -0.2712158948719768 -2.9073469517074386 -5.058816931062685 8.013441164973113" Properties=species:S:1:pos:R:3 unique_starting_index=6 config_type=initial n_minim_iter=16 stress="-0.0020251936218312868 0.0011070593874805106 0.0031307332523481932 0.0011070593874805106 -0.0009974907382464242 -0.0019983866324541784 0.0031307332523481932 -0.0019983866324541784 -0.002731844405940209" pbc="T T T"
Si      -2.83399502       5.35246095       6.25800647
Si       3.00858081       1.45071200       5.53989900
Si       6.80152547       3.40114359       0.12405880
Si      -0.25149203      -0.66749951       4.11028864
Si       7.03248526      -1.11779710       2.74475805
Si      -0.47792485       3.84855156       1.48421879
Si       2.86499806       4.25781871       3.90315252
Si      -2.68588530       2.54246462       7.88938236
Si      -0.02156377       6.08413416       1.67921165
Si       2.10341178       6.41622246       3.29171035
Si       1.77881356       4.42102971       1.89109263
Si       2.15788120       6.89535477       0.87931863
Si       2.02693487      -0.44957463       4.72173081
Si       2.62036332      -2.51685458       6.33422951
Si       2.43860070      -0.19844530       7.13412253
Si       0.35385074      -1.58401177       6.12234852
Si      -1.36636364       1.80013353       0.99470604
Si       3.78216983       3.57244010       5.89315893
Si      -1.25931129      -0.12413201       2.12028223
Si      -4.31797102       3.68418186       6.74751923
Si       3.13596003       4.91289032      -0.00000000
Si       3.49163768      -2.22875649       4.14232853
22
Lattice="9.912405321291127 0.5362459374311225 0.18754866706993092 -3.6868843241820963 9.21684452180204 -0.18754866706992784 -2.9546719116692106 -4.9774551741281945 8.06680651468896" Properties=species:S:1:pos:R:3 unique_starting_index=6 config_type=initial n_minim_iter=17 stress="0.0019769982648983686 -0.0015119793739509662 -0.0010001709019408758 -0.0015119793739509662 0.0005734009691204442 0.000638421736859062 -0.0010001709019408758 0.000638421736859062 0.002942114070367374" pbc="T T T"
Si      -2.92876075       5.40016543       6.35616259
Si       2.95342505       1.44755066       5.56177850
Si       6.78981945       3.35021957       0.07554413
Si      -0.27783804      -0.64344003       4.14612181
Si       7.02729729      -1.15285352       2.69257667
Si      -0.51026343       3.85640801       1.52309526
Si       2.80418937       4.25272252       3.92068470
Si      -2.77447261       2.59176854       7.99126238
Si      -0.05884410       6.09643617       1.74360325
Si       2.00794904       6.38634476       3.32975358
Si       1.73699253       4.42427762       1.89027122
Si       2.12280836       6.83888192       0.91631778
Si       1.99270065      -0.46738163       4.73705293
Si       2.59989257      -2.46412870       6.32320326
Si       2.35481812      -0.17267247       7.15048873
Si       0.32707916      -1.53921647       6.17653529
Si      -1.39145242       1.81054006       1.01181053
Si       3.70540683       3.57589321       5.91977736
Si      -1.27118559      -0.11094453       2.14702915
Si      -4.41347597       3.73953591       6.86744731
Si       3.11276050       4.87654523      -0.00000000
Si       3.47886670      -2.22060461       4.12717759
22
Lattice="9.898656007044474 0.5361892294556349 0.18337865563180278 -3.6811470709837852 9.204349291360543 -0.18337865563179875 -2.954180853862636 -4.968935553376724 8.055247501845143" Properties=species:S:1:pos:R:3 unique_starting_index=6 config_type=initial n_minim_iter=18 stress="0.0020208962251952894 0.0008358173031102923 -0.00045856669307952773 0.0008358173031102923 0.0027968002663620053 0.00029270892013824113 -0.00045856669307952773 0.00029270892013824113 0.0014873835827185513" pbc="T T T"
Si      -2.92400032       5.39857231       6.35020154
Si       2.94404483       1.44325959       5.55273867
Si       6.77743110       3.34922715       0.06806212
Si      -0.27501592      -0.64517444       4.14447117
Si       7.01409604      -1.15470558       2.68588748
Si      -0.50748439       3.85607963       1.52166730
Si       2.79390701       4.25051980       3.91077633
Si      -2.76966603       2.58863345       7.98718537
Si      -0.05707093       6.10123804       1.74847616
Si       1.99313843       6.37219872       3.33084257
Si       1.73051877       4.41870419       1.87316665
Si       2.13361582       6.82402295       0.91877587
Si       1.98659602      -0.47825174       4.72440492
Si       2.60399264      -2.45197906       6.30677133
Si       2.33728118      -0.16060579       7.13647163
Si       0.32524039      -1.53891540       6.18208085
Si      -1.39209832       1.80665926       1.00498012
Si       3.69407539       3.57858623       5.90976195
Si      -1.26348110      -0.11156932       2.14548554