14
Lattice="22.6693953285995 0.5986884948674378 -3.7725763899484775e-17 0.07698681761252855 3.6319607399585396 -2.2867738633940573e-16 8.069256595888608e-20 3.3382843535053033e-15 52.95325125308234" Properties=species:S:1:pos:R:3 unique_starting_index=0 config_type=initial n_minim_iter=3 energy=-2256.1803254346974 free_energy=-2256.1803254346974 pbc="T T T"
Si       6.07973621       1.09730996      40.94233273
Si       5.29345487       1.01801465      14.46570711
Si      16.66664594       3.13333927      12.01091852
Si      17.45292728       3.21263458      38.48754415
Si      19.37893824       1.46564066      18.50592827
Si      14.66364817       1.24837245      44.98255390
Si       3.36744391       2.76500857      34.44732298
Si       8.08273398       2.98227678       7.97069735
Si       9.05738289       1.14458177      20.79890795
Si       2.31580818       0.97074284      47.27553358
Si      13.68899925       3.08606746      32.15434330
Si      20.43057397       3.25990639       5.67771768
Si      11.33469766       0.29934425       0.00000000
Si       0.03849341       1.81598037      26.47662563
