20
Lattice="5.522396335575923 -3.369592002367348e-16 -1.524842834739317e-14 2.8287021163964415e-16 4.635936395582915 -1.0710941073299021e-13 6.353477240463205e-14 5.31623448831264e-13 23.00985952883287" Properties=species:S:1:pos:R:3 unique_starting_index=4 config_type=initial n_minim_iter=1 energy=-3269.6237208701737 free_energy=-3269.6237208701737 pbc="T T T"
Si       2.14109675       3.39596420      13.97157867
Si       2.14109675       1.23997219       9.03828086
Si       2.98349785       1.19700465      12.57939819
Si       2.98349785       3.43893175      10.43046133
Si       3.38129959       1.07799601      20.54321062
Si       3.38129959       3.55794039       2.46664891
Si       2.53889849       3.51497284      21.93539110
Si       2.53889849       1.12096355       1.07446843
Si       2.88361406       3.54890729       5.10135881
Si       2.88361406       1.08702910      17.90850072
Si       2.94904248       3.40139649      19.24418944
Si       2.94904248       1.23453991       3.76567009
Si       2.63878228       1.23093910       6.40357095
Si       2.63878228       3.40499730      16.60628858
Si       2.57335386       1.08342829      15.27059986
Si       2.57335386       3.55250811       7.73925967
Si       4.82771630       3.37907769      22.21234546
Si       4.82771630       1.25685871       0.79751407
Si       0.69468004       3.57482691      10.70741570
Si       0.69468004       1.06110949      12.30244383
20
Lattice="5.5238540153281255 -3.3704814325595763e-16 -1.5252453289448507e-14 2.834387624585186e-16 4.645254327713781 -1.0701416755437298e-13 6.360899065817356e-14 5.337613688569316e-13 23.036738535774646" Properties=species:S:1:pos:R:3 unique_starting_index=4 config_type=initial n_minim_iter=2 stress="-0.00172544493678461 -2.0552000547953815e-16 2.8961558003148074e-16 -2.0552000547953815e-16 0.004668367938762466 3.192908469867168e-17 2.8961558003148074e-16 3.192908469867168e-17 0.005052557373619814" pbc="T T T"
Si       2.14186859       3.40283871      13.98750571
Si       2.14186859       1.24241562       9.04923283
Si       2.98415087       1.19935921      12.59417388
Si       2.98415087       3.44589512      10.44256465
Si       3.38198542       1.08021154      20.56760209
Si       3.38198542       3.56504278       2.46913644
Si       2.53970315       3.52198637      21.96093392
Si       2.53970315       1.12326796       1.07580461
Si       2.88413329       3.55606114       5.10720571
Si       2.88413329       1.08919319      17.92953283
Si       2.95024650       3.40831971      19.26690245
Si       2.95024650       1.23693462       3.76983609
Si       2.63972073       1.23343398       6.41116356
Si       2.63972073       3.41182035      16.62557498
Si       2.57360752       1.08569255      15.28820535
Si       2.57360752       3.55956178       7.74853318
Si       4.82879202       3.38595260      22.23823501
Si       4.82879202       1.25930173       0.79850353
Si       0.69506199       3.58192889      10.71986574
Si       0.69506199       1.06332544      12.31687279
20
Lattice="5.633136919913774 -3.437162412864258e-16 -1.5554204999921254e-14 2.8516883428914444e-16 4.673608331198529 -1.074966850570024e-13 6.264657598116672e-14 5.265975744899758e-13 22.688188825304405" Properties=species:S:1:pos:R:3 unique_starting_index=4 config_type=initial n_minim_iter=3 stress="0.01096529542419603 -2.5835839676294405e-17 -1.899584758933301e-16 -2.5835839676294405e-17 0.02446300948543046 -7.512839134646187e-16 -1.899584758933301e-16 -7.512839134646187e-16 -0.03192931338126425" pbc="T T T"
Si       2.20361118       3.42791165      13.74570513
Si       2.20361118       1.24569668       8.94248369
Si       3.03145641       1.20198134      12.41129918
Si       3.03145641       3.47162699      10.27688964
Si       3.42952574       1.09110748      20.28657810
Si       3.42952574       3.58250085       2.40161072
Si       2.60168051       3.53878551      21.62098405
Si       2.60168051       1.13482282       1.06720477
Si       2.91879555       3.57934046       5.02311905
Si       2.91879555       1.09426787      17.66506977
Si       3.04586233       3.43658195      18.98974145
Si       3.04586233       1.23702638       3.69844738
Si       2.71434137       1.24253630       6.32097536
Si       2.71434137       3.43107204      16.36721347
Si       2.58727459       1.09977779      15.04254179
Si       2.58727459       3.57383055       7.64564703
Si       4.90740191       3.41402244      21.89693475
Si       4.90740191       1.25958590       0.79125408
Si       0.72573501       3.59639006      10.55284034
Si       0.72573501       1.07721827      12.13534849
20
Lattice="5.70763455852893 -3.482618521411848e-16 -1.5759907712194008e-14 2.834537196596128e-16 4.645499460039676 -1.0653673293615425e-13 6.278273768333678e-14 5.292553204821378e-13 22.737501375291757" Properties=species:S:1:pos:R:3 unique_starting_index=4 config_type=initial n_minim_iter=4 stress="0.01962566482679609 4.217104869376266e-17 -2.6554869963495963e-16 4.217104869376266e-17 -0.0025314767732607935 1.2664205321703312e-15 -2.6554869963495963e-16 1.2664205321703312e-15 0.012549684936886867" pbc="T T T"
Si       2.25214353       3.41155767      13.74496478
Si       2.25214353       1.23394179       8.99253660
Si       3.05944784       1.19001569      12.44519280
Si       3.05944784       3.45548377      10.29230858
Si       3.45549103       1.08880794      20.36128728
Si       3.45549103       3.55669152       2.37621409
Si       2.64818672       3.51276542      21.66105927
Si       2.64818672       1.13273404       1.07644211
Si       2.93540356       3.55894044       5.02689145
Si       2.93540356       1.08655902      17.71060992
Si       3.12374271       3.42288725      19.04594081
Si       3.12374271       1.22261221       3.69156057
Si       2.77223100       1.23619071       6.34185923
Si       2.77223100       3.40930875      16.39564214
Si       2.58389184       1.10013752      15.06031126
Si       2.58389184       3.54536194       7.67719012
Si       4.95475073       3.40096523      21.93929506
Si       4.95475073       1.24453423       0.79820632
Si       0.75288382       3.56728396      10.57054437
Si       0.75288382       1.07821550      12.16695701
20
Lattice="5.436397850775893 -3.317118440349993e-16 -1.5010969524488504e-14 2.8473401493444537e-16 4.666482112922324 -1.0810025810751811e-13 6.150981969869603e-14 5.133649041231001e-13 22.276499267157615" Properties=species:S:1:pos:R:3 unique_starting_index=4 config_type=initial n_minim_iter=5 stress="-0.009068792873027235 9.288624340427316e-17 -1.1339365962817493e-15 9.288624340427316e-17 0.0032681108701964664 -1.587354071025041e-16 -1.1339365962817493e-15 -1.587354071025041e-16 -0.0012553367379817227" pbc="T T T"
Si       2.18874678       3.43773829      13.39252142
Si       2.18874678       1.22874382       8.88397784
Si       2.88234400       1.18267473      12.20414991
Si       2.88234400       3.48380738      10.07234936
Si       3.24765107       1.10449723      20.02222748
Si       3.24765107       3.56198488       2.25427179
Si       2.55405385       3.51591579      21.21059899
Si       2.55405385       1.15056632       1.06590028
Si       2.75308675       3.57178543       4.90889226
Si       2.75308675       1.09469668      17.36760701
Si       3.05876608       3.44987656      18.69322566
Si       3.05876608       1.21660555       3.58327360
Si       2.68331110       1.23854438       6.22935738
Si       2.68331110       3.42793774      16.04714189
Si       2.37763177       1.11663550      14.72152324
Si       2.37763177       3.54984661       7.55497603
Si       4.67281167       3.43611435      21.47697833
Si       4.67281167       1.23036776       0.79952093
Si       0.76358618       3.56360882      10.33872870
Si       0.76358618       1.10287330      11.93777057
20
Lattice="5.424944574380645 -3.310130012465188e-16 -1.4979344763453372e-14 2.8485069678153764e-16 4.668394402019509 -1.0879217993681823e-13 6.133786316730793e-14 5.087112705991252e-13 22.214223201901984" Properties=species:S:1:pos:R:3 unique_starting_index=4 config_type=initial n_minim_iter=6 stress="-0.060564796234661246 1.9646481478719204e-16 -8.643514483198203e-16 1.9646481478719204e-16 0.0009549916371815348 -1.2556776862235199e-15 -8.643514483198203e-16 -1.2556776862235199e-15 -0.005149402677876297" pbc="T T T"
Si       2.18925990       3.44077149      13.34516284
Si       2.18925990       1.22762291       8.86906036
Si       2.87003036       1.18102132      12.17004776
Si       2.87003036       3.48737308      10.04417544
Si       3.23568468       1.10657429      19.97617196
Si       3.23568468       3.56182011       2.23805124
Si       2.55491422       3.51521852      21.15128705
Si       2.55491422       1.15317588       1.06293616
Si       2.74340280       3.57195358       4.89264622
Si       2.74340280       1.09644082      17.32157698
Si       3.06304609       3.45222646      18.64530939
Si       3.06304609       1.21616794       3.56891381
Si       2.68154177       1.23775638       6.21446538
Si       2.68154177       3.43063802      15.99975782
Si       2.36189848       1.11802926      14.67602541
Si       2.36189848       3.55036514       7.53819779
Si       4.65354436       3.44036488      21.41413797
Si       4.65354436       1.22802952       0.80008523
Si       0.77140021       3.56222672      10.30702637
Si       0.77140021       1.10616768      11.90719683
20
Lattice="5.547867125698873 -3.3851334748505473e-16 -1.531875823582228e-14 2.8513413822996584e-16 4.673039700367348 -1.0927999898904207e-13 6.072653705716717e-14 5.016372000093088e-13 21.99282431451708" Properties=species:S:1:pos:R:3 unique_starting_index=4 config_type=initial n_minim_iter=7 stress="-0.02093618806433167 2.86367748141071e-16 -2.001689992530847e-15 2.86367748141071e-16 -0.0004302834048099832 -1.5094456052625606e-15 -2.001689992530847e-15 -1.5094456052625606e-15 -0.006144186125445476" pbc="T T T"
Si       2.25445298       3.45033103      13.17740273
Si       2.25445298       1.22270867       8.81542158
Si       2.92096210       1.17363414      12.04283715
Si       2.92096210       3.49940556       9.94998716
Si       3.29341414       1.11381118      19.81183374
Si       3.29341414       3.55922852       2.18099057
Si       2.62690503       3.51015399      20.94639932
Si       2.62690503       1.16288571       1.04642499
Si       2.80254774       3.56399341       4.83554301
Si       2.80254774       1.10904629      17.15728130
Si       3.16593648       3.45261516      18.47265555
Si       3.16593648       1.22042454       3.52016877
Si       2.74531939       1.22747356       6.16086914
Si       2.74531939       3.44556614      15.83195517
Si       2.38193065       1.11609531      14.51658092
Si       2.38193065       3.55694439       7.47624339
Si       4.72999192       3.45519796      21.18660338
Si       4.72999192       1.21784174       0.80622094
Si       0.81787520       3.55436159      10.19019122
Si       0.81787520       1.11867811      11.80263310
20
Lattice="5.870405137446509 -3.581935992960851e-16 -1.6209349468790288e-14 2.852547255038326e-16 4.675015995179472 -1.0932194574549766e-13 5.904423859622602e-14 4.873876586171134e-13 21.3835602877979" Properties=species:S:1:pos:R:3 unique_starting_index=4 config_type=initial n_minim_iter=8 stress="0.013486255842133973 1.2303902407403174e-16 -8.134811509026891e-16 1.2303902407403174e-16 -0.02319099340124095 -1.4188624725046905e-15 -8.134811509026891e-16 -1.4188624725046905e-15 -0.03088169007795506" pbc="T T T"
Si       2.35425104       3.47138997      12.75474130
Si       2.35425104       1.20362603       8.62881898
Si       3.08836014       1.13838176      11.62049009
Si       3.08836014       3.53663424       9.76307019
Si       3.51615410       1.13388197      19.32059913
Si       3.51615410       3.54113403       2.06296116
Si       2.78204499       3.47588976      20.45485034
Si       2.78204499       1.19912624       0.92870995
Si       3.07433881       3.53618094       4.66278918
Si       3.07433881       1.13883505      16.72077111
Si       3.36752042       3.45749815      17.98967743
Si       3.36752042       1.21751785       3.39388286
Si       2.79606633       1.19867295       6.02899096
Si       2.79606633       3.47634305      15.35456933
Si       2.50288472       1.11999015      14.08566301
Si       2.50288472       3.55502585       7.29789728
Si       4.89757536       3.49150772      20.54879789
Si       4.89757536       1.18350828       0.83476239
Si       0.97282978       3.52101628       9.85701775
Si       0.97282978       1.15399972      11.52654254
20
Lattice="6.068589437696252 -3.7028617998998403e-16 -1.675657551312032e-14 2.8582147496403047e-16 4.684304404992894 -1.0993057323280046e-13 5.816928048752014e-14 4.780518279363495e-13 21.066683994503546" Properties=species:S:1:pos:R:3 unique_starting_index=4 config_type=initial n_minim_iter=9 stress="0.032288766185827524 2.090942802999631e-16 -1.0218576287384653e-15 2.090942802999631e-16 0.0020524635584472156 -3.1892033844311007e-15 -1.0218576287384653e-15 -3.1892033844311007e-15 -0.0418640294822182" pbc="T T T"
Si       2.39917205       3.48856693      12.52571867
Si       2.39917205       1.19573747       8.54096533
Si       3.19706627       1.12047856      11.37799302
Si       3.19706627       3.56382584       9.68869097
Si       3.66941739       1.14641473      19.07430732
Si       3.66941739       3.53788967       1.99237667
Si       2.87152317       3.46263077      20.22203297
Si       2.87152317       1.22167364       0.84465102
Si       3.22460197       3.53727184       4.59627192
Si       3.22460197       1.14703256      16.47041208
Si       3.49518107       3.48151508      17.74790327
Si       3.49518107       1.20278933       3.31878072
Si       2.84398747       1.19511964       5.93707008
Si       2.84398747       3.48918477      15.12961391
Si       2.57340837       1.13936288      13.85212272
Si       2.57340837       3.54494153       7.21456128
Si       4.98589768       3.51993189      20.21482929
Si       4.98589768       1.16437251       0.85185470
Si       1.08269175       3.50652472       9.68148729
Si       1.08269175       1.17777969      11.38519670
20
Lattice="6.0954753437386575 -3.7192667314678974e-16 -1.6830812816444763e-14 2.8537696970180986e-16 4.677019445183157 -1.0948155072312629e-13 5.849053044739097e-14 4.821942212707436e-13 21.18302841773037" Properties=species:S:1:pos:R:3 unique_starting_index=4 config_type=initial n_minim_iter=10 stress="0.03987209866912177 2.0543227151625594e-16 -6.941884957730365e-16 2.0543227151625594e-16 0.02650510974279089 -2.0051786542647464e-15 -6.941884957730365e-16 -2.0051786542647464e-15 0.016123402812970974" pbc="T T T"
Si       2.38074480       3.48403686      12.60365165
Si       2.38074480       1.19298258       8.57937677
Si       3.22241010       1.11935692      11.40521032
Si       3.22241010       3.55766252       9.77781809
Si       3.71473054       1.14552714      19.17089098
Si       3.71473054       3.53149231       2.01213744
Si       2.87306524       3.45786665      20.36933230
Si       2.87306524       1.21915280       0.81369611
Si       3.24343803       3.53101482       4.63549324
Si       3.24343803       1.14600462      16.54753517
Si       3.50050750       3.48264377      17.84417781
Si       3.50050750       1.19437567       3.33885061
Si       2.85203731       1.19250510       5.95602096
Si       2.85203731       3.48451434      15.22700745
Si       2.59496784       1.14413405      13.93036482
Si       2.59496784       3.53288540       7.25266360
Si       4.98163720       3.51367249      20.32227698
Si       4.98163720       1.16334695       0.86075144
Si       1.11383815       3.50185667       9.73076277
Si       1.11383815       1.17516277      11.45226565
20
Lattice="6.128852969372746 -3.739632705505305e-16 -1.692297504131157e-14 2.8421017355803e-16 4.657896920128931 -1.0942368021920663e-13 5.815470478190534e-14 4.774649220694e-13 21.061405232557576" Properties=species:S:1:pos:R:3 unique_starting_index=4 config_type=initial n_minim_iter=11 stress="0.03439792681097837 1.7301884173392437e-16 -1.1965443910734578e-16 1.7301884173392437e-16 -0.02621302643404299 -2.4851839233580093e-15 -1.1965443910734578e-16 -2.4851839233580093e-15 -0.0170063233745616" pbc="T T T"
Si       2.35660308       3.47371305      12.53601805
Si       2.35660308       1.18418387       8.52538718
Si       3.25953375       1.12074432      11.26849202
Si       3.25953375       3.53715260       9.79291321
Si       3.77224989       1.14476459      19.05608980
Si       3.77224989       3.51313233       2.00531543
Si       2.86931922       3.44969278      20.32361583
Si       2.86931922       1.20820414       0.73778941
Si       3.24436638       3.51280056       4.60740360
Si       3.24436638       1.14509636      16.45400163
Si       3.52257532       3.48089141      17.76429544
Si       3.52257532       1.17700551       3.29710980
Si       2.88448659       1.18385210       5.92329902
Si       2.88448659       3.47404482      15.13810622
Si       2.60627765       1.15194295      13.82781241
Si       2.60627765       3.50595397       7.23359282
Si       4.95348867       3.49801695      20.19786416
Si       4.95348867       1.15987997       0.86354107
Si       1.17536430       3.48882843       9.66716154
Si       1.17536430       1.16906849      11.39424369
20
Lattice="6.059266342416478 -3.697173141320608e-16 -1.673083260339073e-14 2.848177745567082e-16 4.667854842412181 -1.0958029248678553e-13 5.83441809583861e-14 4.794238355922435e-13 21.130026241806835" Properties=species:S:1:pos:R:3 unique_starting_index=4 config_type=initial n_minim_iter=12 stress="0.02974255912344441 2.2697683597286007e-16 2.2440872725188393e-16 2.2697683597286007e-16 0.008466085028560055 -3.3301382010754013e-15 2.2440872725188393e-16 -3.3301382010754013e-15 0.008599973211849746" pbc="T T T"
Si       2.32683633       3.48215565      12.58737063
Si       2.32683633       1.18569919       8.54265561
Si       3.23262021       1.14575547      11.28957811
Si       3.23262021       3.52209937       9.84044813
Si       3.73243001       1.14822823      19.10766873
Si       3.73243001       3.51962661       2.02235751
Si       2.82664613       3.47968289      20.40546125
Si       2.82664613       1.18817195       0.72456499
Si       3.17780750       3.51809615       4.62024143
Si       3.17780750       1.14975869      16.50978482
Si       3.48112268       3.48717172      17.81639820
Si       3.48112268       1.18068312       3.31362804
Si       2.88145884       1.18416873       5.94477169
Si       2.88145884       3.48368612      15.18525455
Si       2.57814366       1.15324430      13.87864116
Si       2.57814366       3.51461055       7.25138508
Si       4.88557353       3.49743140      20.27171226
Si       4.88557353       1.17042344       0.85831398
Si       1.17369281       3.50435086       9.70669914
Si       1.17369281       1.16350398      11.42332710
20
Lattice="5.980353813481563 -3.6490232059976276e-16 -1.6512939505890325e-14 2.847289057606953e-16 4.666398379098158 -1.0919923426541915e-13 5.843050915725688e-14 4.818860664192524e-13 21.16129100681785" Properties=species:S:1:pos:R:3 unique_starting_index=4 config_type=initial n_minim_iter=13 stress="0.018831889027009496 1.6770834068903117e-16 -9.415073161024795e-16 1.6770834068903117e-16 0.001863218779831464 -2.212062791152316e-15 -9.415073161024795e-16 -2.212062791152316e-15 0.008833913215452916" pbc="T T T"
Si       2.30635811       3.48334554      12.60526299
Si       2.30635811       1.18305284       8.55602802
Si       3.19970002       1.16838076      11.30019147
Si       3.19970002       3.49801762       9.86109954
Si       3.67399571       1.15014635      19.13667352
Si       3.67399571       3.51625203       2.02461749
Si       2.78065379       3.50157995      20.44174504
Si       2.78065379       1.16481843       0.71954596
Si       3.12501663       3.51499991       4.61689681
Si       3.12501663       1.15139847      16.54439420
Si       3.43272995       3.48712270      17.83907620
Si       3.43272995       1.17927568       3.32221481
Si       2.85533718       1.18180072       5.96374870
Si       2.85533718       3.48459766      15.19754231
Si       2.54762386       1.15392351      13.90286031
Si       2.54762386       3.51247486       7.25843069
Si       4.80934712       3.48936661      20.30910566
Si       4.80934712       1.17703177       0.85218534
Si       1.17100669       3.51023096       9.72846016
Si       1.17100669       1.15616742      11.43283085
20
Lattice="5.88853087041252 -3.592995743316958e-16 -1.6259398201907497e-14 2.8487960048676138e-16 4.6688681024427945 -1.0917501809766146e-13 5.848418832948063e-14 4.827406755023817e-13 21.180731545688232" Properties=species:S:1:pos:R:3 unique_starting_index=4 config_type=initial n_minim_iter=14 stress="-0.00029078497568026053 -2.5964978081946093e-17 -3.050497654418632e-16 -2.5964978081946093e-17 -0.001580054780984936 -2.538872000941607e-15 -3.050497654418632e-16 -2.538872000941607e-15 0.0032868363704095693" pbc="T T T"
Si       2.29330388       3.48788907      12.61126028
Si       2.29330388       1.18097903       8.56947126
Si       3.15906859       1.18346163      11.32026640
Si       3.15906859       3.48540647       9.86046514
Si       3.59522699       1.15345502      19.15983703
Si       3.59522699       3.51541308       2.02089451
Si       2.72946228       3.51789568      20.45083092
Si       2.72946228       1.15097242       0.72990063
Si       3.07750714       3.51325239       4.62011999
Si       3.07750714       1.15561571      16.56061156
Si       3.37120274       3.48898242      17.85435704
Si       3.37120274       1.17988569       3.32637450
Si       2.81102373       1.17881834       5.97024579
Si       2.81102373       3.49004976      15.21048576
Si       2.51732813       1.15454837      13.91674028
Si       2.51732813       3.51431974       7.26399127
Si       4.73180753       3.48567138      20.33535780
Si       4.73180753       1.18319672       0.84537375
Si       1.15672334       3.51763078       9.74499202
Si       1.15672334       1.15123733      11.43573952
20
Lattice="5.898596603913252 -3.5991375363069887e-16 -1.62871916826213e-14 2.850367431194002e-16 4.671443499992536 -1.0969616400415684e-13 5.837781084235369e-14 4.795434214107009e-13 21.14220569687766" Properties=species:S:1:pos:R:3 unique_starting_index=4 config_type=initial n_minim_iter=15 stress="-0.0021443362333141668 4.3855487246304926e-17 -4.192594109369727e-17 4.3855487246304926e-17 -0.003015682568985852 -3.8139266323098335e-15 -4.192594109369727e-17 -3.8139266323098335e-15 -0.008324173905504923" pbc="T T T"
Si       2.30159387       3.49247973      12.58219458
Si       2.30159387       1.17896377       8.56001111
Si       3.17010319       1.17854220      11.29602227
Si       3.17010319       3.49290130       9.84618342
Si       3.59700273       1.15675798      19.13111396
Si       3.59700273       3.51468552       2.01109174
Si       2.72849342       3.51426395      20.41728627
Si       2.72849342       1.15717955       0.72491943
Si       3.09467530       3.51197902       4.61248732
Si       3.09467530       1.15946448      16.52971838
Si       3.37251407       3.49490880      17.82690900
Si       3.37251407       1.17653470       3.31529670
Si       2.80392131       1.17625727       5.95861553
Si       2.80392131       3.49518623      15.18359016
Si       2.52608254       1.15918705      13.88639955
Si       2.52608254       3.51225645       7.25580615
Si       4.72422944       3.49122594      20.29317668
Si       4.72422944       1.18021756       0.84902901
Si       1.17436716       3.51593931       9.72207384
Si       1.17436716       1.15550419      11.42013186
20
Lattice="5.896860592011593 -3.5980782766188226e-16 -1.6282398210459745e-14 2.850152411357625e-16 4.67109110576901 -1.0725059336765473e-13 5.845875882713956e-14 4.92333094911949e-13 21.17152195454963" Properties=species:S:1:pos:R:3 unique_starting_index=4 config_type=initial n_minim_iter=16 stress="-0.0027253607306787905 3.4529984022407704e-17 2.39115974815405e-16 3.4529984022407704e-17 -0.0010772578854117189 1.322800614658549e-15 2.39115974815405e-16 1.322800614658549e-15 0.0005600063648857714" pbc="T T T"
Si       2.31195048       3.49563028      12.59976125
Si       2.31195048       1.17546083       8.57176070
Si       3.17971562       1.16731022      11.31842178
Si       3.17971562       3.50378088       9.85310018
Si       3.58491011       1.16008473      19.15752168
Si       3.58491011       3.51100638       2.01400028
Si       2.71714497       3.50285578      20.43886116
Si       2.71714497       1.16823533       0.73266080
Si       3.10550492       3.50955030       4.62324469
Si       3.10550492       1.16154081      16.54827727
Si       3.35728494       3.49973098      17.85564699
Si       3.35728494       1.17136013       3.31587497
Si       2.79135567       1.17400474       5.96251629
Si       2.79135567       3.49708636      15.20900566
Si       2.53957565       1.16418542      13.90163594
Si       2.53957565       3.50690568       7.26988601
Si       4.70785058       3.49635568      20.31504914
Si       4.70785058       1.17473543       0.85647281
Si       1.18901002       3.51028098       9.72928816
Si       1.18901002       1.16081013      11.44223379
20
Lattice="5.88050509727796 -3.588098669777755e-16 -1.62372374551675e-14 2.853311196708411e-16 4.676268012834664 -1.052766121371408e-13 5.846757995337963e-14 5.028052769981752e-13 21.1747166283934" Properties=species:S:1:pos:R:3 unique_starting_index=4 config_type=initial n_minim_iter=17 stress="-0.009141073308160426 6.590570527275627e-17 -1.6504251979849293e-15 6.590570527275627e-17 0.0034887034330116002 5.137701568692515e-15 -1.6504251979849293e-15 5.137701568692515e-15 -0.005357151627118655" pbc="T T T"
Si       2.33176850       3.51110574      12.60092944
Si       2.33176850       1.16516227       8.57378719
Si       3.20865748       1.15751938      11.31604534
Si       3.20865748       3.51874864       9.85867129
Si       3.54873660       1.17297174      19.16114550
Si       3.54873660       3.50329628       2.01357113
Si       2.67184762       3.49565338      20.44602961
Si       2.67184762       1.18061463       0.72868702
Si       3.09257017       3.50283222       4.62521806
Si       3.09257017       1.17343579      16.54949857
Si       3.32468555       3.50740290      17.86850187
Si       3.32468555       1.16886511       3.30621476
Si       2.78793493       1.16469821       5.96214026
Si       2.78793493       3.51156980      15.21257637
Si       2.55581955       1.16926890      13.89357308
Si       2.55581955       3.50699912       7.28114355
Si       4.64548578       3.51345434      20.30344566
Si       4.64548578       1.16281367       0.87127097
Si       1.23501932       3.50094768       9.71608734
Si       1.23501932       1.17532034      11.45862929
20
Lattice="5.848373044063065 -3.5684927047304133e-16 -1.614851450206331e-14 2.8529130805509283e-16 4.675615543571892 -1.0421492138795774e-13 5.870940809266195e-14 5.099654021934267e-13 21.262297512126402" Properties=species:S:1:pos:R:3 unique_starting_index=4 config_type=initial n_minim_iter=18 stress="-0.010496643130539681 3.1196924309666034e-17 -1.658998490603694e-15 3.1196924309666034e-17 0.006411440911349986 7.337077406044088e-15 -1.658998490603694e-15 7.337077406044088e-15 0.010319858740080394" pbc="T T T"
Si       2.36779222       3.52015110      12.65676751
Si       2.36779222       1.15546445       8.60553000
Si       3.24555229       1.15403461      11.37339924
Si       3.24555229       3.52158093       9.88889828
Si       3.48058083       1.18234333      19.23667876
Si       3.48058083       3.49327222       2.02561875
Si       2.60282075       3.49184238      20.52004703
Si       2.60282075       1.18377316       0.74225048
Si       3.04558506       3.50277804       4.63775337
Si       3.04558506       1.17283750      16.62454414
Si       3.27737922       3.51832256      17.93939525
Si       3.27737922       1.15729299       3.32290227
Si       2.80278798       1.16497027       5.99339538
Si       2.80278798       3.51064527      15.26890213
Si       2.57099382       1.18051478      13.95405102
Si       2.57099382       3.49510076       7.30824649
Si       4.57712908       3.52436141      20.37579755
Si       4.57712908       1.15125413       0.88649996
Si       1.27124397       3.48906190       9.74464879
Si       1.27124397       1.18655364      11.51764872
20
Lattice="5.847926113595419 -3.56822000186049e-16 -1.614728043865949e-14 2.8493120272181453e-16 4.669713807184941 -1.0274637905228545e-13 5.879125653563413e-14 5.172100677577164e-13 21.291939881242467" Properties=species:S:1:pos:R:3 unique_starting_index=4 config_type=initial n_minim_iter=19 stress="-0.005999958636931569 -6.730727038161746e-18 -2.5227337766863262e-15 -6.730727038161746e-18 -0.008388542290285145 1.0057520149818261e-14 -2.5227337766863262e-15 1.0057520149818261e-14 0.00717496410746042" pbc="T T T"
Si       2.42706360       3.52071241      12.66835077
Si       2.42706360       1.14900140       8.62358911
Si       3.31809522       1.15986958      11.38975079
Si       3.31809522       3.50984423       9.90218910
Si       3.42086252       1.18585550      19.26955905
Si       3.42086252       3.48385830       2.02238083
Si       2.52983089       3.49472648      20.54815904
Si       2.52983089       1.17498733       0.74378085
Si       3.01916615       3.48327773       4.64451370
Si       3.01916615       1.18643608      16.64742618
Si       3.24061446       3.50983295      17.96679220
Si       3.24061446       1.15988086       3.32514768
Si       2.82875997       1.14842083       6.00145624
Si       2.82875997       3.52129298      15.29048364
Si       2.60731165       1.17497605      13.97111762