20
Lattice="12.952430721698434 -7.353384380777725e-19 1.2050862837925596e-17 5.012501502079991e-20 3.707870433410451 1.1871266014962229e-14 2.45922353613388e-17 -4.541801247122695e-14 16.930242946264972" Properties=species:S:1:pos:R:3 unique_starting_index=4 config_type=initial n_minim_iter=21 energy=-3393.660831337728 free_energy=-3393.660831337728 pbc="T T T"
Si       6.48010098       1.85356130       9.54511379
Si       6.48010098       1.85430913       7.38512916
Si       6.47347740       1.85584673       9.54923806
Si       6.47347740       1.85202371       7.38100489
Si       6.47232975      -0.00037391      15.85025063
Si       6.47232975       3.70824435       1.07999232
Si       6.47895333       3.70978194      15.84612636
Si       6.47895333      -0.00191151       1.08411659
Si       6.47808924       3.70927945       3.28802784
Si       6.47808924      -0.00140901      13.64221510
Si       6.47689660       3.70738446      13.63745383
Si       6.47689660       0.00048598       3.29278912
Si       6.47434148       1.85534423       5.17709363
Si       6.47434148       1.85252620      11.75314932
Si       6.47553412       1.85344924      11.75791059
Si       6.47553412       1.85442119       5.17233235
Si      12.76250393       1.85690994      16.67475907
Si      12.76250393       1.85096049       0.25548388
Si       0.18992679       3.70489571       8.20963760
Si       0.18992679       0.00297473       8.72060535
