8
Lattice="4.049436243877861 0.0 0.0 0.0 5.55337718444732 -1.8489873923898735e-31 0.0 8.191068105587824e-33 7.159626652660699" Properties=species:S:1:pos:R:3 unique_starting_index=2 config_type=initial n_minim_iter=10 energy=-1373.7168506057537 free_energy=-1373.7168506057537 pbc="T T T"
Si       2.02473144       2.77692733       4.61861522
Si       2.02470481       2.77692733       2.54101143
Si       2.02471901       2.77670453       2.54098486
Si       2.02471723       2.77670453       4.61864180
Si       4.04942293       2.77644986       1.03880189
Si       0.00001331       2.77644986       6.12082476
Si       4.04943535       2.77667266       6.12079818
Si       0.00000089       2.77667266       1.03882847
