1
Lattice="2.9020380764542972 -4.4010733875288845e-17 -1.8378187566844747e-58 1.4510190382271486 2.513238696959148 -7.59021260001291e-57 1.9506661039868394e-58 7.076716529892545e-56 2.728541047708638" Properties=species:S:1:pos:R:3:forces:R:3 cutoff=-1.0 nneightol=1.2 n_minim_iter=1 energy=-3.805824462349666 stress="0.17056540532369985 -4.033480735940176e-33 -5.82734435897152e-61 -4.033480735940176e-33 0.17056540532369957 3.1983822627684517e-57 -5.82734435897152e-61 3.1983822627684517e-57 0.1429396821104244" free_energy=-3.805824462349666 pbc="T T T"
Si       0.00000000       0.00000000       0.00000000       0.00000000      -0.00000000       0.00000000
1
Lattice="2.894450615891346 -3.80452721624824e-17 -3.5421950275454024e-58 1.447225307945673 2.5066677633614196 -7.075977174881962e-57 3.521562075390119e-59 7.127568602106407e-56 2.7428648937047195" Properties=species:S:1:pos:R:3:forces:R:3 cutoff=-1.0 nneightol=1.2 n_minim_iter=2 energy=-3.807537037132496 stress="0.15789380634300096 2.2315306302640872e-17 -1.8132601150153078e-59 2.2315306302640872e-17 0.1578938063430009 3.534134446125182e-57 -1.8132601150153078e-59 3.534134446125182e-57 0.152647066707948" free_energy=-3.807537037132496 pbc="T T T"
Si       0.00000000       0.00000000       0.00000000      -0.00000000       0.00000000       0.00000000
