1
Lattice="2.676663192932143 -3.6441950401011174e-17 -3.8485954806296876e-52 1.3383315964660718 2.3180583224540037 8.830786486633007e-52 5.641313861769777e-52 1.669558673199112e-52 2.259738931148216" Properties=species:S:1:pos:R:3:forces:R:3 cutoff=-1.0 nneightol=1.2 n_minim_iter=2 energy=-2.875732771471869 stress="-0.6036486377262291 -1.400555413712116e-16 4.948959059053414e-18 -1.400555413712116e-16 -0.6036486377262287 9.897918118106825e-19 4.948959059053414e-18 9.897918118106825e-19 -0.6074277216766969" free_energy=-2.875732771471869 pbc="T T T"
Si       0.00000000       0.00000000       0.00000000      -0.00000000       0.00000000      -0.00000000
