1
Lattice="2.6475667233251823 -3.604581086987358e-17 -3.806759607619097e-52 1.3237833616625914 2.2928600406139337 8.73479207415244e-52 5.579990375962621e-52 1.6514098589142034e-52 2.235174605945315" Properties=species:S:1:pos:R:3:forces:R:3 cutoff=-1.0 nneightol=1.2 n_minim_iter=2 energy=-2.875732771471869 stress="-0.6036486377262291 -1.400555413712116e-16 4.948959059053414e-18 -1.400555413712116e-16 -0.6036486377262287 9.897918118106825e-19 4.948959059053414e-18 9.897918118106825e-19 -0.6074277216766969" free_energy=-2.875732771471869 pbc="T T T"
Si       0.00000000       0.00000000       0.00000000      -0.00000000       0.00000000      -0.00000000
