8
Lattice="5.357910367481343 -2.1510972779211355e-16 1.0075348048129239e-48 -2.6789551837406713 4.640086489438859 -3.009127238830294e-48 -8.20804918531201e-49 2.356781779206896e-48 4.364910434527939" Properties=species:S:1:pos:R:3:tags:I:1 spacegroup="P 1" unit_cell=conventional n_minim_iter=1 energy=-9782.83177332992 free_energy=-9782.83177332992 pbc="T T T"
Ti       2.67895519       3.10088021       1.09122761        0
Ti      -1.34595942       3.87048567       3.27368282        1
Ti       1.34595943       3.87048567       3.27368282        2
Ti       1.33299576       0.76961010       1.09122761        3
Ti       4.02491461       0.76961010       1.09122761        4
Ti       0.00000000       1.53921556       3.27368282        5
Al       0.00000000       3.09339564       1.09122761        6
Al       2.67895519       1.54670014       3.27368282        7
8
Lattice="5.3668191172816435 -2.1260527226470484e-16 1.00201024997076e-48 -2.6834095586408218 4.64780169308188 -3.005565121791987e-48 -8.21248577695472e-49 2.3858452644845748e-48 4.350431235793754" Properties=species:S:1:pos:R:3:tags:I:1 spacegroup="P 1" unit_cell=conventional n_minim_iter=2 stress="-0.19075619232333957 2.3225011880698548e-17 1.2640491239435454e-16 2.3225011880698548e-17 -0.19075619232333918 1.8102307325749394e-16 1.2640491239435454e-16 1.8102307325749394e-16 -0.19096607435846044" pbc="T T T"
Ti       2.68340956       3.10577585       1.08760781        0
Ti      -1.34797197       3.87679110       3.26282342        1
Ti       1.34797198       3.87679110       3.26282342        2
Ti       1.33543759       0.77101990       1.08760781        3
Ti       4.03138154       0.77101990       1.08760781        4
Ti       0.00000000       1.54203515       3.26282342        5
Al       0.00000000       3.09853911       1.08760781        6
Al       2.68340956       1.54927188       3.26282342        7
8
Lattice="5.366928538624461 -2.1116125513821103e-16 1.662519428022064e-49 -2.6834642693122306 4.647896454744476 -7.904002961394829e-50 -1.399183715326437e-49 1.5998334453281206e-48 4.350253843763443" Properties=species:S:1:pos:R:3:tags:I:1 spacegroup="P 1" unit_cell=conventional n_minim_iter=3 stress="-0.1906889384587608 2.132306802345654e-16 5.846185932240362e-18 2.132306802345654e-16 -0.19068893845876103 1.4889717271785118e-17 5.846185932240362e-18 1.4889717271785118e-17 -0.19070059469876097" pbc="T T T"
Ti       2.68346427       3.10361492       1.08756346        0
Ti      -1.34607320       3.87575802       3.26269038        1
Ti       1.34607321       3.87575802       3.26269038        2
Ti       1.33739107       0.77214774       1.08756346        3
Ti       4.02953748       0.77214774       1.08756346        4
Ti       0.00000000       1.54429083       3.26269038        5
Al       0.00000000       3.09860229       1.08756346        6
Al       2.68346427       1.54930347       3.26269038        7
