8
Lattice="5.740497526453605 -3.896965419874983e-16 9.924964958588438e-49 -2.870248763226802 4.971416688270554 -5.03383785062902e-49 -8.076942954779476e-49 6.70523606641393e-51 4.671620630065451" Properties=species:S:1:pos:R:3:tags:I:1 spacegroup="P 1" unit_cell=conventional n_minim_iter=1 energy=-9783.825580139332 free_energy=-9783.825580139332 pbc="T T T"
Ti       2.87024877       3.35461568       1.16790516        0
Ti      -1.47005370       4.16301867       3.50371547        1
Ti       1.47005371       4.16301867       3.50371547        2
Ti       1.40019506       0.80840797       1.16790516        3
Ti       4.34030248       0.80840797       1.16790516        4
Ti       0.00000000       1.61681096       3.50371547        5
Al       0.00000000       3.31428277       1.16790516        6
Al       2.87024877       1.65714387       3.50371547        7
8
Lattice="5.768607710042564 -2.862858132667485e-16 1.1050668183333266e-48 -2.8843038550212814 4.995760821363638 -5.520463962716849e-49 -8.037345633013272e-49 3.0220152772330736e-50 4.626202338009851" Properties=species:S:1:pos:R:3:tags:I:1 spacegroup="P 1" unit_cell=conventional n_minim_iter=2 stress="0.039286323314038626 -3.77469470683328e-17 -7.264080808341995e-17 -3.77469470683328e-17 0.0392863233140386 1.0733721571912698e-17 -7.264080808341995e-17 1.0733721571912698e-17 0.03918432216539543" pbc="T T T"
Ti       2.88430386       3.37124695       1.15655058        0
Ti      -1.47742924       4.18350638       3.46965175        1
Ti       1.47742925       4.18350638       3.46965175        2
Ti       1.40687462       0.81226444       1.15655058        3
Ti       4.36173310       0.81226444       1.15655058        4
Ti       0.00000001       1.62452388       3.46965175        5
Al       0.00000001       3.33051221       1.15655058        6
Al       2.88430386       1.66525861       3.46965175        7
8
Lattice="5.767967123024943 -3.3036268454271584e-16 -7.845814397460985e-52 -2.883983561512471 4.995206056733044 -1.5256259419274034e-48 -1.0665237320834822e-48 6.463227284548406e-50 4.627229961661941" Properties=species:S:1:pos:R:3:tags:I:1 spacegroup="P 1" unit_cell=conventional n_minim_iter=3 stress="0.03930900307048715 -2.687515102533635e-16 -8.948338444822532e-17 -2.687515102533635e-16 0.039309003070487736 -6.708059354242089e-17 -8.948338444822532e-17 -6.708059354242089e-17 0.039570250221737414" pbc="T T T"
Ti       2.88398357       3.37246985       1.15680749        0
Ti      -1.47864845       4.18384045       3.47042247        1
Ti       1.47864846       4.18384045       3.47042247        2
Ti       1.40533511       0.81137560       1.15680749        3
Ti       4.36263202       0.81137560       1.15680749        4
Ti       0.00000001       1.62274621       3.47042247        5
Al       0.00000001       3.33014237       1.15680749        6
Al       2.88398357       1.66507369       3.47042247        7
