8
Lattice="6.218765647786698 -4.648679004994127e-16 -2.6010537525671522e-48 -3.1093828238933487 5.385609031165271 1.934163145601309e-48 1.935998156137148e-48 -5.4458416444192626e-49 4.628708197853077" Properties=species:S:1:pos:R:3:tags:I:1 spacegroup="P 1" unit_cell=conventional n_minim_iter=1 stress="0.08325885855321329 1.4665331997890122e-17 3.8059342396538714e-17 1.4665331997890122e-17 0.08325885855321295 5.920973500493543e-17 3.8059342396538714e-17 5.920973500493543e-17 0.07070059687769349" pbc="T T T"
Ti       3.10938283       3.61689911       1.15717705        0
Ti      -1.57763043       4.50125677       3.47153115        1
Ti       1.57763044       4.50125677       3.47153115        2
Ti       1.53175239       0.88436304       1.15717705        3
Ti       4.68701326       0.88436304       1.15717705        4
Ti       0.00000001       1.76872070       3.47153115        5
Al       0.00000001       3.59041141       1.15717705        6
Al       3.10938283       1.79520840       3.47153115        7
