8
Lattice="5.3153202599975184 -2.0913073268724863e-16 1.6465326741000418e-49 -2.6576601299987592 4.603202374407958 -7.827998225322008e-50 -1.3857291924068241e-49 1.5844494785752567e-48 4.308421888884384" Properties=species:S:1:pos:R:3:tags:I:1 spacegroup="P 1" unit_cell=conventional n_minim_iter=3 stress="-0.1906889384587608 2.132306802345654e-16 5.846185932240362e-18 2.132306802345654e-16 -0.19068893845876103 1.4889717271785118e-17 5.846185932240362e-18 1.4889717271785118e-17 -0.19070059469876097" pbc="T T T"
Ti       2.65766013       3.07377063       1.07710547        0
Ti      -1.33312939       3.83848880       3.23131641        1
Ti       1.33312940       3.83848880       3.23131641        2
Ti       1.32453074       0.76472279       1.07710547        3
Ti       3.99078953       0.76472279       1.07710547        4
Ti       0.00000000       1.52944096       3.23131641        5
Al       0.00000000       3.06880619       1.07710547        6
Al       2.65766013       1.53440540       3.23131641        7
