8
Lattice="5.366928538624461 -2.1116125513821103e-16 1.662519428022064e-49 -2.6834642693122306 4.647896454744476 -7.904002961394829e-50 -1.399183715326437e-49 1.5998334453281206e-48 4.350253843763443" Properties=species:S:1:pos:R:3:tags:I:1 spacegroup="P 1" unit_cell=conventional n_minim_iter=3 stress="-0.1906889384587608 2.132306802345654e-16 5.846185932240362e-18 2.132306802345654e-16 -0.19068893845876103 1.4889717271785118e-17 5.846185932240362e-18 1.4889717271785118e-17 -0.19070059469876097" pbc="T T T"
Ti       2.68346427       3.10361492       1.08756346        0
Ti      -1.34607320       3.87575802       3.26269038        1
Ti       1.34607321       3.87575802       3.26269038        2
Ti       1.33739107       0.77214774       1.08756346        3
Ti       4.02953748       0.77214774       1.08756346        4
Ti       0.00000000       1.54429083       3.26269038        5
Al       0.00000000       3.09860229       1.08756346        6
Al       2.68346427       1.54930347       3.26269038        7
