8
Lattice="5.51798227512044 -3.0947096389513315e-16 1.1358550861948626e-48 -2.7589911375602196 4.7787128278865545 -2.855480794465824e-48 -2.7863761708887266e-49 -3.509892645383134e-48 4.585663526489724" Properties=species:S:1:pos:R:3:tags:I:1 spacegroup="P 1" unit_cell=conventional n_minim_iter=3 stress="-0.02594332942503881 2.457154291280207e-16 -1.6257071907050662e-17 2.457154291280207e-16 -0.02594332942503866 7.26236403339096e-17 -1.6257071907050662e-17 7.26236403339096e-17 -0.025892599888644507" pbc="T T T"
Ti       2.75899114       3.21084793       1.14641588        0
Ti      -1.40117616       3.99478277       3.43924764        1
Ti       1.40117617       3.99478277       3.43924764        2
Ti       1.35781498       0.78393962       1.14641588        3
Ti       4.16016731       0.78393962       1.14641588        4
Ti       0.00000000       1.56787446       3.43924764        5
Al       0.00000000       3.18581333       1.14641588        6
Al       2.75899114       1.59290906       3.43924764        7
