8
Lattice="5.1128408231815605 -2.419807252726767e-16 2.4517176158048996e-48 -2.5564204115907803 4.427850038381375 2.233587657685415e-48 -2.1060776673461878e-48 -3.307236651203675e-48 4.245563392013775" Properties=species:S:1:pos:R:3:tags:I:1 spacegroup="P 1" unit_cell=conventional n_minim_iter=3 stress="-0.43710286797241604 -1.326178374572294e-16 1.1766762966302564e-16 -1.326178374572294e-16 -0.43710286797241554 -1.268929460263314e-16 1.1766762966302564e-16 -1.268929460263314e-16 -0.436801092601106" pbc="T T T"
Ti       2.55642042       2.96395438       1.06139085        0
Ti      -1.28864574       3.69590443       3.18417254        1
Ti       1.28864575       3.69590443       3.18417254        2
Ti       1.26777467       0.73195448       1.06139085        3
Ti       3.84506616       0.73195448       1.06139085        4
Ti       0.00000000       1.46390452       3.18417254        5
Al       0.00000000       2.95190446       1.06139085        6
Al       2.55642042       1.47595444       3.18417254        7
