8
Lattice="5.195938147219892 -1.7292857190728787e-16 2.5810537474966014e-48 -2.597969073609946 4.499814431985077 2.197019537213892e-48 1.4443513344113985e-48 -9.767132633299353e-49 4.243460984744501" Properties=species:S:1:pos:R:3:tags:I:1 spacegroup="P 1" unit_cell=conventional n_minim_iter=3 stress="-0.35201805689601967 3.065910513555872e-16 9.494928691459483e-17 3.065910513555872e-16 -0.35201805689601884 -2.306760289647429e-16 9.494928691459483e-17 -2.306760289647429e-16 -0.3519883645210943" pbc="T T T"
Ti       2.59796908       3.00628920       1.06086524        0
Ti      -1.30453438       3.75305407       3.18259574        1
Ti       1.30453439       3.75305407       3.18259574        2
Ti       1.29343470       0.74676937       1.06086524        3
Ti       3.90250346       0.74676937       1.06086524        4
Ti       0.00000000       1.49353424       3.18259574        5
Al       0.00000000       2.99988079       1.06086524        6
Al       2.59796908       1.49994265       3.18259574        7
