12
Lattice="5.226311208888032 -9.71220393674038e-05 1.6035393549861835e-06 -9.774753868704736e-05 5.226277555359304 -8.696764742779758e-05 1.6399726746367922e-05 -0.00011196076479915873 6.2540269549439325" Properties=species:S:1:pos:R:3:forces:R:3 cutoff=-1.0 nneightol=1.2 n_minim_iter=1 energy=-1951.666009438141 stress="-0.2159802248663732 -1.3199858221798844e-05 2.700023423446044e-06 -1.3199858221798844e-05 -0.2159859439088949 -2.879051132014009e-05 2.700023423446044e-06 -2.879051132014009e-05 -0.21813138736876625" free_energy=-1951.666009438141 pbc="T T T"
Si       0.44743589       0.44749070       0.00000485       0.01015763       0.00833540      -0.00080756
Si      -0.44748481      -0.44746359       3.12699097      -0.00825527      -0.01144196       0.00126047
Si       2.16567721       3.06043281       4.69047915      -0.01101288       0.01206909      -0.00066998
Si       3.06057839       2.16558675       1.56347145       0.01032335      -0.00986258       0.00049696
Si       0.74822726       3.46917763       0.12923424       0.04256845      -0.02332795       0.18470074
Si       0.85607558       1.86481635       1.69271123      -0.02472670      -0.04245576       0.18677240
Si       1.75701763       4.47789568       2.99760908       0.02280493      -0.04289018      -0.18316980
Si       1.86487899       0.85603800       4.56127112      -0.04309413      -0.02675115      -0.18609146
Si       3.36135101       4.37010477       1.43422052       0.04316334       0.02473543      -0.18753799
Si       3.46925809       0.74822444      -0.12925737      -0.02492131       0.04216875      -0.18585580
Si       4.37012367       3.36124125       4.81973424       0.02597496       0.04345828       0.18525040
Si       4.47800219       1.75685355       3.25622498      -0.04298239       0.02596264       0.18565164
12
Lattice="5.2171496613989445 7.110215514301295e-05 -3.2857747314159185e-05 7.047848416229673e-05 5.217188886084347 0.00028024101353785565 -2.4869013013223307e-05 0.00032801843978425883 6.275923358046833" Properties=species:S:1:pos:R:3:forces:R:3 cutoff=-1.0 nneightol=1.2 n_minim_iter=2 energy=-1951.66957510523 stress="-0.21695703400305089 6.333430299990777e-06 -7.915504636663324e-06 6.333430299990777e-06 -0.21693312937864917 8.522403003448767e-05 -7.915504636663324e-06 8.522403003448767e-05 -0.2131586291643582" free_energy=-1951.66957510523 pbc="T T T"
Si       0.44681080       0.44684576       0.00002182       0.06683542       0.06636134       0.00097080
Si      -0.44685313      -0.44664311       3.13792864      -0.06579751      -0.06632100      -0.00053877
Si       2.16179129       3.05568221       4.70709265      -0.06657231       0.06580424       0.00110984
Si       3.05541984       2.16188844       1.56908465       0.06594760      -0.06635003      -0.00139339
Si       0.74763337       3.46284530       0.13257352       0.05742273      -0.07631331       0.15267848
Si       0.85427106       1.86111465       1.70144067      -0.07767038      -0.05921232       0.15463647
Si       1.75438707       4.46976395       3.00578160       0.07699017      -0.05548167      -0.15347892
Si       1.86099283       0.85454834       4.57462103      -0.05774969      -0.07898439      -0.15608399
Si       3.35620531       4.36306654       1.43683864       0.05762555       0.07662360      -0.15392241
Si       3.46284615       0.74762688      -0.13234451      -0.07803276       0.05885690      -0.15420758
Si       4.36290972       3.35649534       4.83947224       0.07810579       0.05605506       0.15408249
Si       4.46957447       1.75454171       3.27038108      -0.05710460       0.07896158       0.15614698
12
Lattice="5.2077334552646946 0.0012135969108649323 0.00011044325919602647 0.0012129519521462122 5.207064678083676 -0.0012962356456182637 0.00014651478404585936 -0.0015578569928065926 6.299496169800566" Properties=species:S:1:pos:R:3:forces:R:3 cutoff=-1.0 nneightol=1.2 n_minim_iter=3 energy=-1951.695210186768 stress="-0.20621323352393173 0.0001297024279183009 3.337666603505502e-05 0.0001297024279183009 -0.20647332107195132 -0.0003788505555250116 3.337666603505502e-05 -0.0003788505555250116 -0.2001755446949999" free_energy=-1951.695210186768 pbc="T T T"
Si       0.45164837       0.45135961      -0.00014315       0.07665808       0.08403863      -0.00389954
Si      -0.45129645      -0.45249346       3.14996636      -0.08612262      -0.07808631      -0.00032701
Si       2.15305179       3.05453273       4.72389260      -0.06769355       0.07020547      -0.00358708
Si       3.05592937       2.15241700       1.57438368       0.07180261      -0.07198145       0.00663946
Si       0.75612395       3.44841886       0.16572082       0.12077107       0.00612536      -0.01379817
Si       0.84508997       1.84799198       1.74136166       0.02151538      -0.11403236      -0.03006926
Si       1.76008174       4.45158465       2.98224168      -0.00871616      -0.13036723       0.01220375
Si       1.84877580       0.84349592       4.55752440      -0.12038962       0.03196445       0.03766174
Si       3.36031232       4.36293800       1.40688686       0.12055874      -0.01585508       0.02962246
Si       3.44861876       0.75609774      -0.16689635       0.01922318       0.11450087       0.02170188
Si       4.36418383       3.35858381       4.89058883      -0.02609289       0.12894874      -0.02231983
Si       4.45287191       1.75945419       3.31627642      -0.12151422      -0.02546109      -0.03382842
12
Lattice="5.213852633910058 -0.0001922053390365537 -0.00040280028115337785 -0.00019276947739744598 5.216720951943367 0.004475874772619106 -0.0004674708256579049 0.0053488015282258244 6.2804599099991805" Properties=species:S:1:pos:R:3:forces:R:3 cutoff=-1.0 nneightol=1.2 n_minim_iter=4 energy=-1951.6989633127139 stress="-0.20476641536633006 -1.2239906277022909e-05 -0.00011668157439053407 -1.2239906277022909e-05 -0.20365174614798673 0.001310079407395776 -0.00011668157439053407 0.001310079407395776 -0.20290316501187686" free_energy=-1951.6989633127139 pbc="T T T"
Si       0.45292508       0.45301789       0.00023620       0.02837989       0.03139703       0.02236640
Si      -0.45298648      -0.45067046       3.14001260      -0.03348304      -0.00231900      -0.01530574
Si       2.15353853       3.06561397       4.71271975      -0.03031276       0.00342714       0.01667105
Si       3.05959176       2.15651100       1.57182232       0.02926907      -0.03025126      -0.02455035
Si       0.75819778       3.45492546       0.17116572       0.10403420       0.07033961      -0.02175477
Si       0.84574603       1.85107715       1.74005244       0.05459522      -0.12319936      -0.02080199
Si       1.76047451       4.46034598       2.97579591      -0.05142881      -0.07697343       0.00762761
Si       1.84814031       0.85001069       4.54264663      -0.09885435       0.06309012      -0.01105304
Si       3.36508468       4.37141748       1.40512208       0.09694831      -0.07332661       0.02927008
Si       3.45278259       0.75841230      -0.16799096       0.05810333       0.12551870       0.02177545
Si       4.36754933       3.37127435       4.88118084      -0.06109939       0.07450527      -0.01604348
Si       4.45515158       1.76477753       3.30967144      -0.09615167      -0.06220820       0.01179879
12
Lattice="5.224126508993044 -0.0008818117463171852 0.00040811847878462773 -0.0008825440081762503 5.218350918969644 -0.0046231002338383165 0.0005027582143406125 -0.005539747291815268 6.266151268510879" Properties=species:S:1:pos:R:3:forces:R:3 cutoff=-1.0 nneightol=1.2 n_minim_iter=5 energy=-1951.7009147462754 stress="-0.20136960280048571 -8.601809478061425e-05 0.00012073841269211661 -8.601809478061425e-05 -0.20359206358938697 -0.0013469242502973714 0.00012073841269211661 -0.0013469242502973714 -0.2044028517535551" free_energy=-1951.7009147462754 pbc="T T T"
Si       0.45465112       0.45406245      -0.00028955      -0.03160512      -0.01671469      -0.02581813
Si      -0.45433903      -0.45684075       3.13343019       0.02912407      -0.00286251       0.00794639
Si       2.15725533       3.05871845       4.69711891       0.02763066       0.00876235      -0.01208945
Si       3.06644515       2.15318831       1.56476487      -0.02335387       0.01183817       0.02957482
Si       0.76191745       3.45634179       0.16689595       0.07164902       0.06474819       0.00908430
Si       0.84811500       1.84573249       1.73491164       0.09176360      -0.04694963       0.01304743
Si       1.76325472       4.45389946       2.95936169      -0.09157211      -0.10056975      -0.01047981
Si       1.84976880       0.84299152       4.52893068      -0.07235645       0.08319666       0.03089554
Si       3.37394056       4.36908217       1.39299061       0.07391780      -0.06252262      -0.00823641
Si       3.46015362       0.76130718      -0.17035876       0.09368601       0.04868935      -0.01520622
Si       4.37569478       3.36571210       4.86688232      -0.09001971       0.09785709       0.01428801
Si       4.46162475       1.75822149       3.30196725      -0.07886389      -0.08547261      -0.03300648
12
Lattice="5.219797803713042 -0.0003035678394095618 0.00017849837116604652 -0.0003040173917946884 5.229243004606068 -0.00215123540344953 0.00022801640358274014 -0.002582156961218092 6.258280967361949" Properties=species:S:1:pos:R:3:forces:R:3 cutoff=-1.0 nneightol=1.2 n_minim_iter=6 energy=-1951.7031697890723 stress="-0.20253509991700694 -3.680297681982009e-05 5.3195128866248816e-05 -3.680297681982009e-05 -0.19892764229478943 -0.0006166139334875693 5.3195128866248816e-05 -0.0006166139334875693 -0.20364656494810607" free_energy=-1951.7031697890723 pbc="T T T"
Si       0.45528863       0.45630588      -0.00016957      -0.02135274      -0.06693222       0.00552175
Si      -0.45525843      -0.45746217       3.12920327       0.02395851       0.05343172       0.02373069
Si       2.15460488       3.06872183       4.69261297       0.01957169      -0.05087231      -0.02441860
Si       3.06513240       2.15753115       1.56379334      -0.01869871       0.06326940      -0.00456156
Si       0.76614396       3.46505619       0.17196512       0.03478337       0.08392754       0.03405337
Si       0.84911245       1.84612294       1.73723955       0.05625144      -0.02666019      -0.01046981
Si       1.76069509       4.46022684       2.95377790      -0.05989985      -0.04894966       0.01894889
Si       1.84370795       0.84871899       4.52010668      -0.03692667       0.08549672      -0.02020061
Si       3.37598714       4.37784330       1.38966989       0.03773835      -0.08026300      -0.03947812
Si       3.45900703       0.76763516      -0.17366959       0.05666591       0.02577748       0.01207861
Si       4.37057549       3.38002601       4.86595703      -0.05354213       0.04949461      -0.01346437
Si       4.45349842       1.76235134       3.30191409      -0.03854918      -0.08772011       0.01825977
12
Lattice="5.226214988691689 8.503863794779212e-05 -0.0003656016329833241 8.438515590295034e-05 5.224477132357958 0.0040261709873898694 -0.00042292708201975934 0.004810096859560393 6.256301091274036" Properties=species:S:1:pos:R:3:forces:R:3 cutoff=-1.0 nneightol=1.2 n_minim_iter=7 energy=-1951.7043095740785 stress="-0.19953042478840488 -2.578873762437734e-06 -0.00010291235551274848 -2.578873762437734e-06 -0.20018236786055701 0.0011525938358145464 -0.00010291235551274848 0.0011525938358145464 -0.20249126657421143" free_energy=-1951.7043095740785 pbc="T T T"
Si       0.45650032       0.45641091       0.00029526      -0.04798616      -0.03517604       0.01180606
Si      -0.45686738      -0.45389222       3.12783077       0.05351883       0.04828242      -0.01575025
Si       2.15635820       3.07217015       4.69438094       0.04641760      -0.04817341       0.02037432
Si       3.06957951       2.15714945       1.56558572      -0.05090455       0.03269242      -0.01585316
Si       0.77028432       3.46327664       0.17848421       0.01729091       0.05983296      -0.01552810
Si       0.85121134       1.84373664       1.74102841       0.05257022      -0.03740010       0.01478224
Si       1.76183561       4.45665545       2.95559504      -0.05968114       0.00971331      -0.00898359
Si       1.84262447       0.85473472       4.51719796      -0.01645148       0.03555266      -0.02466030
Si       3.38326606       4.37461214       1.39157420       0.01591536      -0.05614529       0.00715888
Si       3.46446358       0.76983188      -0.17534897       0.05331476       0.03547132      -0.00815638
Si       4.37456538       3.38610770       4.87026061      -0.05314642      -0.00715507       0.01113559
Si       4.45577227       1.76366284       3.30477362      -0.01085792      -0.03749518       0.02367468
12
Lattice="5.22322236842926 -0.000101566248721891 -9.357987086504702e-05 -0.00010217952539934806 5.223759501359696 0.001107965478821174 -9.748588466040315e-05 0.0013181199423045326 6.2607421242195676" Properties=species:S:1:pos:R:3:forces:R:3 cutoff=-1.0 nneightol=1.2 n_minim_iter=8 energy=-1951.7051778417515 stress="-0.20008467529118357 -1.8016130943532552e-05 -2.458002543604276e-05 -1.8016130943532552e-05 -0.19987221948966447 0.00031394716299615755 -2.458002543604276e-05 0.00031394716299615755 -0.20065873984225038" free_energy=-1951.7051778417515 pbc="T T T"
Si       0.45611400       0.45626447       0.00009626      -0.02661680      -0.02957766       0.00419948
Si      -0.45628535      -0.45546631       3.13023928       0.03072829       0.02959212      -0.00155327
Si       2.15537497       3.06895017       4.69617205       0.02505757      -0.02859790       0.00355952
Si       3.06769376       2.15593376       1.56560247      -0.02714245       0.02685952      -0.00568906
Si       0.77157311       3.46384282       0.17772677       0.00276896       0.02056005      -0.00194608
Si       0.85189314       1.84056760       1.74239978       0.01307000      -0.00904752       0.00553409
Si       1.75962915       4.45257807       2.95422198      -0.01779113       0.00474983       0.00104423
Si       1.83992139       0.85310383       4.51887578      -0.00321839       0.00856765      -0.01218964
Si       3.38310386       4.37197544       1.38922152       0.00327170      -0.01752980      -0.00428243
Si       3.46359030       0.77158976      -0.17680358       0.01300441       0.00802006      -0.00225507
Si       4.37104352       3.38454796       4.87315446      -0.01156744      -0.00338742       0.00223333
Si       4.45151042       1.76033363       3.30750473      -0.00156473      -0.01020892       0.01134489
12
Lattice="5.22284738539118 0.0001371396180557328 -4.447413217882117e-05 0.00013651606172115232 5.22293594058088 -8.405319279749309e-05 -3.875710085823433e-05 -0.00010826624436260572 6.262178621817598" Properties=species:S:1:pos:R:3:forces:R:3 cutoff=-1.0 nneightol=1.2 n_minim_iter=9 energy=-1951.7053087870818 stress="-0.2002727483262314 9.335576752016529e-06 -1.0072314487000573e-05 9.335576752016529e-06 -0.20023065744944474 -2.507939622827727e-05 -1.0072314487000573e-05 -2.507939622827727e-05 -0.20005929198603759" free_energy=-1951.7053087870818 pbc="T T T"
Si       0.45565543       0.45571853       0.00000416      -0.01554999      -0.01790844      -0.00084637
Si      -0.45572789      -0.45569940       3.13107127       0.01749636       0.01503658       0.00154628
Si       2.15583130       3.06708175       4.69657985       0.01611249      -0.01574520      -0.00068856
Si       3.06713470       2.15582784       1.56547525      -0.01693315       0.01792219       0.00024649
Si       0.77203535       3.46379338       0.17690021       0.00080283      -0.00064798       0.00177044
Si       0.85236255       1.83951829       1.74240711      -0.00176376      -0.00096682       0.00323298
Si       1.75922481       4.45096957       2.95400790       0.00080823      -0.00091331      -0.00019641
Si       1.83949523       0.85237231       4.51969457      -0.00173584      -0.00330891      -0.00272319
Si       3.38345646       4.37067684       1.38854895       0.00126232       0.00116696      -0.00391690
Si       3.46379981       0.77204656      -0.17695881      -0.00256755       0.00032618      -0.00242913
Si       4.37053362       3.38344270       4.87350252       0.00290166       0.00174786       0.00111588
Si       4.45094373       1.75912982       3.30792820      -0.00083361       0.00329089       0.00288849
12
Lattice="5.224166032032202 -0.00011648147430897733 0.0005997288135368745 -0.00011712509189675091 5.223659672610752 -0.000861925420673489 0.0007321166498262166 -0.0010391499463473623 6.259730821090297" Properties=species:S:1:pos:R:3:forces:R:3 cutoff=-1.0 nneightol=1.2 n_minim_iter=10 energy=-1951.7054015460824 stress="-0.20032597978002228 -6.981851780830233e-06 0.0001731125585021692 -6.981851780830233e-06 -0.20051084245554004 -0.0002444918035838747 0.0001731125585021692 -0.0002444918035838747 -0.19967981651992187" free_energy=-1951.7054015460824 pbc="T T T"
Si       0.45446829       0.45434401      -0.00004042      -0.00457690      -0.00066965      -0.00111453
Si      -0.45399200      -0.45498022       3.12993158      -0.00136364       0.00090342      -0.00112546
Si       2.15809751       3.06545326       4.69455100       0.00434409      -0.00017503      -0.00502379
Si       3.06663628       2.15712387       1.56490391      -0.00023566       0.00174977       0.00689995
Si       0.77254622       3.46473248       0.17645553      -0.00008831      -0.02162887       0.00336450
Si       0.85311422       1.83894876       1.74180670      -0.01524954       0.00234042      -0.00443465
Si       1.75928588       4.45065613       2.95242453       0.01869757      -0.00901112      -0.00051916
Si       1.83994975       0.85196734       4.51779403       0.00094431      -0.01274091       0.00739331
Si       3.38477273       4.37046220       1.38751958       0.00480310       0.01983467       0.00194061
Si       3.46498082       0.77248296      -0.17673806      -0.01671377      -0.00132668      -0.00257429
Si       4.37174666       3.38344625       4.87171858       0.01629138       0.00694621       0.00266486
Si       4.45193270       1.75840276       3.30715075      -0.00685263       0.01377777      -0.00747135
12
Lattice="5.225146997545419 -5.5752138477991685e-05 -0.0010941511477893394 -5.6365594654153196e-05 5.224776794615588 -0.0007083404618650011 -0.001294846413617826 -0.000855465921765469 6.257217596108579" Properties=species:S:1:pos:R:3:forces:R:3 cutoff=-1.0 nneightol=1.2 n_minim_iter=11 energy=-1951.705455789496 stress="-0.20021191861169813 -4.0005806763267646e-07 -0.00030677414060907424 -4.0005806763267646e-07 -0.2003454993474673 -0.00020047866219654033 -0.00030677414060907424 -0.00020047866219654033 -0.19981865168145888" free_energy=-1951.705455789496 pbc="T T T"
Si       0.45402229       0.45391275      -0.00015550       0.00081281       0.00070696      -0.00720292
Si      -0.45457912      -0.45447821       3.12879068       0.00094678       0.00046136       0.00532878
Si       2.15754830       3.06576454       4.69202243      -0.00068148      -0.00055521       0.00262901
Si       3.06622473       2.15819615       1.56338116      -0.00318694       0.00031713      -0.00120096
Si       0.77280624       3.46539410       0.17644799       0.01082354      -0.01973722       0.00138041
Si       0.85264224       1.83923317       1.74108546      -0.01620021       0.00045281       0.00082998
Si       1.75879790       4.45154008       2.95062362       0.01991233      -0.00922249      -0.00675804
Si       1.83870643       0.85218571       4.51518813      -0.00984853      -0.01037879       0.00857425
Si       3.38521474       4.37157565       1.38577422      -0.00257891       0.01689735       0.00270158
Si       3.46557654       0.77284955      -0.17802404      -0.01160792       0.00176629       0.00625272
Si       4.37115872       3.38453424       4.86868445       0.01078067       0.00849960      -0.00560094
Si       4.45150735       1.75904788       3.30464813       0.00082787       0.01079222      -0.00693388
12
Lattice="5.227234054291022 0.00012784600850700286 0.00041628875479816474 0.00012721619677907823 5.227432938710468 0.0004806268004884854 0.000512641206809896 0.0005671952060974324 6.251540886090437" Properties=species:S:1:pos:R:3:forces:R:3 cutoff=-1.0 nneightol=1.2 n_minim_iter=12 energy=-1951.7055215606397 stress="-0.19989736317440243 1.5050329544638707e-05 0.00012003266114080111 1.5050329544638707e-05 -0.19981647536345348 0.00013693468264753823 0.00012003266114080111 0.00013693468264753823 -0.2002805963086209" free_energy=-1951.7055215606397 pbc="T T T"
Si       0.45323574       0.45317776       0.00003269      -0.00351918       0.00030388       0.00490037
Si      -0.45289581      -0.45301437       3.12574889      -0.00115321       0.00578664      -0.00469844
Si       2.16084078       3.06747979       4.68909461       0.00432723      -0.00631538       0.00031362
Si       3.06698704       2.16074222       1.56334492      -0.00136401       0.00140086      -0.00090104
Si       0.77368723       3.46672842       0.17784528       0.00637524      -0.00490348      -0.00381884
Si       0.85308696       1.84027344       1.74070024      -0.00371164      -0.01077908      -0.00842569
Si       1.76102335       4.45413141       2.94888092       0.00561085      -0.00631824       0.00334374
Si       1.84039162       0.85329211       4.51135018      -0.00540414      -0.00145886       0.00256738
Si       3.38742790       4.37469224       1.38599581       0.01044465       0.00361778       0.00758827
Si       3.46649378       0.77367633      -0.17719575      -0.00467683       0.01076504       0.00387806
Si       4.37487500       3.38789958       4.86679889       0.00319546       0.00547501      -0.00189395
Si       4.45395966       1.76127737       3.30382189      -0.01012442       0.00242581      -0.00285348
12
Lattice="5.226186330284953 -0.00039531223334046445 -0.0007345344898196811 -0.0003959259058212587 5.226021209942692 -0.00036484450571355027 -0.0008644947670529375 -0.00044448653405447297 6.254483356136307" Properties=species:S:1:pos:R:3:forces:R:3 cutoff=-1.0 nneightol=1.2 n_minim_iter=13 energy=-1951.705568941329 stress="-0.20004774988267948 -3.9485311190484574e-05 -0.00020618899765340853 -3.9485311190484574e-05 -0.20010556502830928 -0.00010440209894530786 -0.00020618899765340853 -0.00010440209894530786 -0.1999288441132857" free_energy=-1951.705568941329 pbc="T T T"
Si       0.45294204       0.45294648      -0.00007920       0.00150083      -0.00080208      -0.00482167
Si      -0.45339451      -0.45315138       3.12732147       0.00228116      -0.00142125       0.00441080
Si       2.15926117       3.06544977       4.69033691      -0.00381110       0.00371531       0.00171952
Si       3.06567372       2.15972148       1.56304686       0.00051943      -0.00205880      -0.00132176
Si       0.77354341       3.46552835       0.17696692       0.00991034      -0.01219065      -0.00354245
Si       0.85226205       1.83898381       1.74067356      -0.01356694      -0.00305925      -0.00003274
Si       1.75973099       4.45186425       2.94936505       0.01218527      -0.00772327       0.00142832
Si       1.83856832       0.85215037       4.51322569      -0.00948237      -0.01249172       0.00573806
Si       3.38643742       4.37305579       1.38553974       0.00134971       0.01333179       0.00184865
Si       3.46567171       0.77357968      -0.17787911      -0.00964131       0.00431051       0.00705704
Si       4.37262946       3.38615190       4.86734163       0.01104985       0.00759886      -0.00662244
Si       4.45173602       1.75984880       3.30381869      -0.00229486       0.01079054      -0.00586134
12
Lattice="5.224693759501938 0.0020595887333002233 0.00046930291058932064 0.002058944973240536 5.224836573761008 0.00011967289241943989 0.0005760209430496342 0.00013542476247270887 6.2576894466427575" Properties=species:S:1:pos:R:3:forces:R:3 cutoff=-1.0 nneightol=1.2 n_minim_iter=14 energy=-1951.7058835433688 stress="-0.19998643960274687 0.00017581732470659724 0.0001310143085232005 0.00017581732470659724 -0.1999390790719 2.4190097878702346e-05 0.0001310143085232005 2.4190097878702346e-05 -0.20005817712874582" free_energy=-1951.7058835433688 pbc="T T T"
Si       0.44804058       0.44866704       0.00022781       0.01135102      -0.00745670      -0.00315775
Si      -0.44841875      -0.44764161       3.12849136       0.00856694      -0.02285981       0.00795397
Si       2.16596389       3.06113072       4.69362656       0.00023377       0.01002552      -0.00479580
Si       3.06162664       2.16520694       1.56468025      -0.00540115       0.01124461       0.00290552
Si       0.77959921       3.46012678       0.17677900      -0.00474299       0.01506401      -0.01482093
Si       0.84866028       1.83484260       1.74036545       0.00437377      -0.00952921       0.00688538
Si       1.76703395       4.44728287       2.95214630      -0.01752328       0.00575044       0.02848326
Si       1.83517554       0.84940717       4.51747969      -0.00698191      -0.02106009      -0.00560947
Si       3.39210097       4.37854642       1.38902935       0.01259265      -0.00794248      -0.01077881
Si       3.46071458       0.77955785      -0.17568431      -0.00885522      -0.00146840      -0.00438799
Si       4.37826392       3.39227117       4.87018911       0.00970544       0.00563226      -0.00996505
Si       4.44759480       1.76569229       3.30521682      -0.00331905       0.02259985       0.00728766
12
Lattice="5.223540830989287 -0.001534360511735251 -0.00010285971703343402 -0.0015349744014734178 5.223524183773181 1.4317686832847438e-05 -0.00010858314081964756 9.404593913376575e-06 6.260642712315593" Properties=species:S:1:pos:R:3:forces:R:3 cutoff=-1.0 nneightol=1.2 n_minim_iter=15 energy=-1951.7059817039844 stress="-0.20004189125451652 -0.0001629945336806852 -2.985131298967584e-05 -0.0001629945336806852 -0.20005495384027744 -2.0076213791114613e-06 -2.985131298967584e-05 -2.0076213791114613e-06 -0.19998009281090412" free_energy=-1951.7059817039844 pbc="T T T"
Si       0.44646207       0.44672490       0.00008601      -0.00081423      -0.00955708      -0.00316512
Si      -0.44678725      -0.44631817       3.13019654       0.01013055      -0.00346018       0.00456609
Si       2.16430595       3.05753307       4.69547906      -0.00935939       0.01234982      -0.00063137
Si       3.05774816       2.16415042       1.56506657       0.00471003      -0.00249964       0.00066661
Si       0.77840023       3.45752662       0.17584745       0.00153457       0.00902101      -0.00856080
Si       0.84564563       1.83215769       1.74060259      -0.00216279      -0.00066851       0.00670493
Si       1.76439888       4.44357546       2.95434843      -0.00875379      -0.00008185       0.01133511
Si       1.83208986       0.84601561       4.51990102      -0.00143776      -0.01253213      -0.00339126
Si       3.38983488       4.37640209       1.38961446       0.00018974      -0.00059881      -0.00553346
Si       3.45782991       0.77837277      -0.17560473      -0.00043365       0.00169322      -0.00053858
Si       4.37602261       3.38985953       4.87112689       0.00829948       0.00000672      -0.00262954
Si       4.44358972       1.76399146       3.30578522      -0.00190275       0.00632744       0.00117739
12
Lattice="5.22339152211717 -0.00023574278625693558 -0.00010163190074872304 -0.00023636519196627663 5.223366054999258 -2.6810507923856975e-05 -0.00010714319890086147 -3.9797862878152216e-05 6.261010679164298" Properties=species:S:1:pos:R:3:forces:R:3 cutoff=-1.0 nneightol=1.2 n_minim_iter=16 energy=-1951.7060049701852 stress="-0.2000281396811438 -2.1043277055706747e-05 -2.839820135907576e-05 -2.1043277055706747e-05 -0.2000437858121765 -1.14082976617797e-05 -2.839820135907576e-05 -1.14082976617797e-05 -0.1999900386961185" free_energy=-1951.7060049701852 pbc="T T T"
Si       0.44641241       0.44646865       0.00002254       0.00081774      -0.00138800      -0.00141698
Si      -0.44651596      -0.44640178       3.13048525       0.00117889      -0.00162980       0.00138726
Si       2.16506595       3.05796880       4.69570356      -0.00247124       0.00243990       0.00017098
Si       3.05805102       2.16503560       1.56516132       0.00027958       0.00043630       0.00032029
Si       0.77946928       3.45760843       0.17558850       0.00059050       0.00099195      -0.00176623
Si       0.84586746       1.83201942       1.74075827      -0.00028147       0.00024421       0.00162978
Si       1.76545127       4.44365348       2.95482846      -0.00016546      -0.00038207       0.00112740
Si       1.83196594       0.84594554       4.52014647      -0.00051782      -0.00248560       0.00029557
Si       3.39111174       4.37725796       1.38959303      -0.00087938      -0.00092326      -0.00008658
Si       3.45768368       0.77945400      -0.17558375      -0.00087956       0.00036320      -0.00124403
Si       4.37709406       3.39106104       4.87124567       0.00231299       0.00027572      -0.00089908
Si       4.44363679       1.76540132       3.30595654       0.00001524       0.00205745       0.00048161
