12
Lattice="5.9362840550175875 0.0007737439165488681 0.0005013758452740257 0.000772375518739845 5.937174625849675 -1.2149756198106312e-05 0.000650436072127454 -2.686870746505014e-05 7.3483386673666375" Properties=species:S:1:pos:R:3:forces:R:3 cutoff=-1.0 nneightol=1.2 n_minim_iter=7 energy=-1954.925301535043 stress="0.053419774268362245 6.745167483782576e-05 6.442153495903863e-05 6.745167483782576e-05 0.05356339849440324 -2.1688416212423975e-06 6.442153495903863e-05 -2.1688416212423975e-06 0.05394113173320162" free_energy=-1954.925301535043 pbc="T T T"
Si       0.47365094       0.47371719       0.00003537      -0.00407524      -0.00502589       0.00071770
Si      -0.47331391      -0.47372348       3.67413033       0.00365411       0.00463092       0.00001007
Si       2.49548954       3.44254480       5.51146267       0.00529820      -0.00622282      -0.00076112
Si       3.44220763       2.49537872       1.83736915      -0.00492621       0.00591705       0.00002770
Si       0.73222951       3.96346451      -0.18666597      -0.00791063      -0.00123200       0.00163918
Si       0.99507819       2.23687704       1.65044728      -0.00217833       0.00645574       0.00037178
Si       1.97452480       5.20557954       3.86103236       0.00236091       0.00684739      -0.00014514
Si       2.23705043       0.99505894       5.69816919       0.00744267      -0.00110274      -0.00181128
Si       3.70068324       4.94285744       2.02410901      -0.00545112       0.00125481      -0.00135396
Si       3.96288793       0.73235423       0.18704390      -0.00208154      -0.00675052      -0.00087059
Si       4.94259482       3.70104537       5.32494531       0.00194595      -0.00620892       0.00103946
Si       5.20512599       1.97446664       3.48789154       0.00592124       0.00143697       0.00113621
