65
Lattice="10.98275468370914 0.0 0.0 0.0 10.98275468370914 0.0 0.0 0.0 10.98275468370914" Properties=species:S:1:pos:R:3:forces:R:3 cutoff=-1.0 nneightol=1.2 Zs=14 interstitial_position="mean 1 3 4 5 7 18" interstitial_constraint="plane atoms 4 5 7" bulk_struct_test=bulk_Si_diamond supercell_a1_in_bulk_lattice_coords="2 2 -2" n_minim_iter=0 pbc="T T T"
Si      -0.05730579      -0.02898078      -0.05730579      -0.00402400       0.00275176      -0.00402400
Si       2.76357935       2.72779799      -0.12085406       0.00212976      -0.00212976       0.00101569
Si       2.75089815      -0.03285604       2.75089815      -0.00008084       0.00192364      -0.00008084
Si      -0.12085406       2.72779799       2.76357935       0.00101569      -0.00212976       0.00212976
Si       1.35495365       1.25199027       1.35495365      -0.00212976       0.00101569      -0.00212976
Si       4.23938707       4.13642368       1.35495365      -0.00101569       0.00212976      -0.00212976
Si       4.08127323       1.41010411       4.08127323       0.00390521      -0.00390521       0.00390521
Si       1.35495365       4.13642368       4.23938707      -0.00212976       0.00212976      -0.00101569
Si       0.02011991      -0.02458462       5.51596196      -0.00152968       0.00078470      -0.00078470
Si       2.75089815       2.74047918       5.52423337      -0.00008084       0.00008084      -0.00192364
Si       2.74591324      -0.00913099       8.23209284      -0.00145019       0.00052310      -0.00026218
Si      -0.00471082       2.74762448       8.22370813      -0.00024374       0.00484280       0.00002163
Si       1.37478014       1.36813351       6.87757956       0.00484280      -0.00024374      -0.00002163
Si       4.12324383       4.11659719       6.87757956       0.00024374      -0.00484280      -0.00002163
Si       4.17583880       1.31553854       9.58092957       0.00402400      -0.00402400       0.00275176
Si       1.36763485       4.12374249       9.57705431       0.00008084      -0.00008084       0.00192364
Si       0.03725977       5.45411756       0.03725977      -0.00390521       0.00390521      -0.00390521
Si       2.74375286       8.25042389      -0.00471082      -0.00484280      -0.00002163      -0.00024374
Si       2.76357935       5.61223140       2.76357935       0.00212976      -0.00101569       0.00212976
Si      -0.00471082       8.25042389       2.74375286      -0.00024374      -0.00002163      -0.00484280
Si       1.36763485       6.89707771       1.36763485       0.00008084      -0.00192364       0.00008084
Si       4.12324383       9.59655246       1.37478014       0.00024374       0.00002163       0.00484280
Si       4.17583880       6.89320245       4.17583880       0.00402400      -0.00275176       0.00402400
Si       1.37478014       9.59655246       4.12324383       0.00484280       0.00002163       0.00024374
Si      -0.05730579       5.54868313       5.52035812      -0.00402400       0.00402400      -0.00275176
Si       2.74591324       8.24203918       5.50050833      -0.00145019       0.00026218      -0.00052310
Si       2.74375286       5.49608816       8.22370813      -0.00484280       0.00024374       0.00002163
Si      -0.00114070       8.22291207       8.25121995      -0.00308694       0.00224615      -0.00224615
Si       1.37261977       6.87335266       6.86919485       0.00145019      -0.00052310       0.00026218
Si       4.11967370       9.62406428       6.85006774       0.00308694      -0.00224615       0.00224615
Si       4.09841310       6.88880629       9.58532573       0.00152968      -0.00078470       0.00078470
Si       1.37261977       9.60493717       9.60077936       0.00145019      -0.00026218       0.00052310
Si       5.51596196      -0.02458462       0.02011991      -0.00078470       0.00078470      -0.00152968
Si       8.22370813       2.74762448      -0.00471082       0.00002163       0.00484280      -0.00024374
Si       8.23209284      -0.00913099       2.74591324      -0.00026218       0.00052310      -0.00145019
Si       5.52423337       2.74047918       2.75089815      -0.00192364       0.00008084      -0.00008084
Si       6.87757956       1.36813351       1.37478014      -0.00002163      -0.00024374       0.00484280
Si       9.57705431       4.12374249       1.36763485       0.00192364      -0.00008084       0.00008084
Si       9.58092957       1.31553854       4.17583880       0.00275176      -0.00402400       0.00402400
Si       6.87757956       4.11659719       4.12324383      -0.00002163      -0.00484280       0.00024374
Si       5.46082339       0.03055395       5.46082339       0.00161380      -0.00161380       0.00161380
Si       8.23209284       2.74546410       5.50050833      -0.00026218       0.00145019      -0.00052310
Si       8.22476670       0.00009532       8.22476670      -0.00145098      -0.00052037      -0.00145097
Si       5.50050833       2.74546410       8.23209284      -0.00052310       0.00145019      -0.00026218
Si       6.85006774       1.37170364       6.85006774       0.00224615      -0.00308694       0.00224615
Si       9.60077936       4.11875757       6.86919485       0.00052310      -0.00145019       0.00026218
Si       9.58532573       1.39296424       9.58532573       0.00078470      -0.00152968       0.00078470
Si       6.86919485       4.11875757       9.60077936       0.00026218      -0.00145019       0.00052310
Si       5.52035812       5.54868313      -0.05730579      -0.00275176       0.00402400      -0.00402400
Si       8.25121995       8.22291207      -0.00114070      -0.00224615       0.00224615      -0.00308694
Si       8.22370813       5.49608816       2.74375286       0.00002163       0.00024374      -0.00484280
Si       5.50050833       8.24203918       2.74591324      -0.00052310       0.00026218      -0.00145019
Si       6.86919485       6.87335266       1.37261977       0.00026218      -0.00052310       0.00145019
Si       9.60077936       9.60493717       1.37261977       0.00052310      -0.00026218       0.00145019
Si       9.58532573       6.88880629       4.09841310       0.00078470      -0.00078470       0.00152968
Si       6.85006774       9.62406428       4.11967370       0.00224615      -0.00224615       0.00308694
Si       5.51596196       5.47125743       5.51596196      -0.00078470       0.00152968      -0.00078470
Si       8.22476670       8.24936532       5.49128201      -0.00145098       0.00145097       0.00052037
Si       8.25121995       5.49251804       8.25121995      -0.00224615       0.00308694      -0.00224615
Si       5.49128201       8.24936532       8.22476670       0.00052037       0.00145097      -0.00145097
Si       6.87652098       6.86412635       6.87652098       0.00145097       0.00052037       0.00145097
Si       9.61000567       9.59761104       6.87652098      -0.00052037      -0.00145097       0.00145097
Si       9.64046430       6.83366772       9.64046430      -0.00161380       0.00161380      -0.00161380
Si       6.87652098       9.59761104       9.61000567       0.00145097      -0.00145097      -0.00052037
Si       2.05926650       3.43211084       2.05926650       0.00000000      -0.00000000       0.00000000
