2
Lattice="3.165730814945473 0.0 0.0 0.0 3.165730814945473 0.0 0.0 0.0 3.165730814945473" Properties=species:S:1:pos:R:3 Minim_Constant_Volume=F n_minim_iter=1 stress="-0.00033541842143173026 2.712270833107388e-18 -1.3897501307240132e-18 2.712270833107388e-18 -0.0003354184214317443 -1.3669364162521596e-18 -1.3897501307240132e-18 -1.3669364162521596e-18 -0.0003354184214317443" pbc="T T T"
Ti       0.00000000       0.00000000       0.00000000
Ti       1.58286541       1.58286541       1.58286541
