2
Lattice="3.165730814945473 0.0 0.0 0.0 3.165730814945473 0.0 0.0 0.0 3.165730814945473" Properties=species:S:1:pos:R:3 Minim_Constant_Volume=F n_minim_iter=1 stress="-0.0003317397906595821 7.110803237343735e-17 -5.2449350291595365e-17 7.110803237343735e-17 -0.0003317397906611498 -1.2668766705825016e-16 -5.2449350291595365e-17 -1.2668766705825016e-16 -0.00033173979065913414" pbc="T T T"
Ti       0.00000000       0.00000000       0.00000000
Ti       1.58286541       1.58286541       1.58286541
