8
Lattice="5.614282401090397 2.33213804078179e-16 2.3264860591801024e-48 -2.8071412005451983 4.862111183364178 -2.1749216282527703e-48 -1.3603758214347115e-48 -4.0957760908262687e-48 4.590022007729434" Properties=species:S:1:pos:R:3:tags:I:1 spacegroup="P 1" unit_cell=conventional n_minim_iter=7 stress="-0.0003329598839175862 5.402043810741358e-17 1.7121689964075572e-18 5.402043810741358e-17 -0.00033295988391786975 -1.1880871347299878e-16 1.7121689964075572e-18 -1.1880871347299878e-16 0.0004641532942762617" pbc="T T T"
Ti       2.80714121       3.27023853       1.14750550        0
Ti      -1.42853483       4.06617729       3.44251650        1
Ti       1.42853484       4.06617729       3.44251650        2
Ti       1.37860637       0.79594362       1.14750550        3
Ti       4.23567604       0.79594362       1.14750550        4
Ti       0.00000000       1.59188238       3.44251650        5
Al       0.00000000       3.24141232       1.14750550        6
Al       2.80714121       1.62070859       3.44251650        7
