4
Lattice="5.0026754823149515 -0.08856712067053207 8.352589850152316e-13 2.067152214542738 4.556477569145941 2.642524723285704e-12 -3.5349138484293303 -2.2339552242390783 2.7474414018312565" Properties=species:S:1:pos:R:3:tags:I:1 spacegroup="P 1" unit_cell=conventional n_minim_iter=3 stress="-0.0008120899948572568 0.0004234919167854145 -1.1938117209147812e-16 0.0004234919167854145 -0.0012145715610724916 2.759842441341513e-16 -1.1938117209147812e-16 2.759842441341513e-16 -0.0014822052349033423" pbc="T T T"
Ti       0.00000000       0.00000000       0.00000000        0
Al       3.53491385       2.23395522       0.00000000        1
Al       2.50133774      -0.04428356       1.37372070        2
Al       1.03357611       2.27823878       1.37372070        3
