4
Lattice="4.0 0.0 0.0 0.0 4.0 0.0 0.0 0.0 4.0" Properties=species:S:1:pos:R:3 n_minim_iter=1 stress="0.006495572251394133 -2.74641533040036e-18 1.7242351926972072e-18 -2.74641533040036e-18 0.006495572251394133 8.963018454910333e-18 1.7242351926972072e-18 8.963018454910333e-18 0.006495572251393911" pbc="T T T"
Al       0.00000000       0.00000000       0.00000000
Al       2.00000000       2.00000000       0.00000000
Al       2.00000000       0.00000000       2.00000000
Al       0.00000000       2.00000000       2.00000000
