2
Lattice="2.8587862301628286 -9.09167738607401e-16 4.871274601458841e-41 -1.4293931150814134 2.4757814993101572 2.469621771666865e-25 -1.5517199283204858e-40 -4.516880106853298e-25 4.528146103766192" Properties=species:S:1:pos:R:3 n_minim_iter=1 stress="0.0024094008506189337 4.832581846038216e-17 -1.9544420410879225e-19 4.832581846038216e-17 0.0024094008506189545 -2.7007616471971334e-18 -1.9544420410879225e-19 -2.7007616471971334e-18 0.005994976844620961" pbc="T T T"
Ti       0.00000000       0.00000000       0.00000000
Ti       0.00000000       1.65052100       2.26407305
