2
Lattice="4.563199890071871 1.449793609198013e-16 9.555255274469982e-15 1.4497936092018224e-16 4.563199890071871 -1.5230058308265783e-14 2.2815999450359326 2.2815999450359405 1.445822013813623" Properties=species:S:1:pos:R:3:forces:R:3 cutoff=-1.0 nneightol=1.2 n_minim_iter=1 energy=-7.634060874000311 stress="-0.30950530732397036 -1.0599543649634647e-16 4.738284261898832e-16 -1.0599543649634647e-16 -0.30950530732397025 2.2943646560419383e-16 4.738284261898832e-16 2.2943646560419383e-16 -0.3667209942262793" free_energy=-7.634060874000311 pbc="T T T"
Si      -0.00000000      -1.14079997      -0.36145550      -0.00000000      -0.00000000       0.00000000
Si      -0.00000000       1.14079997       0.36145550       0.00000000       0.00000000      -0.00000000
2
Lattice="4.481212106513566 1.7991822640746516e-16 9.413814624405319e-15 1.7991822640783923e-16 4.481212106513565 -1.489720061907803e-14 2.24060605325678 2.2406060532567875 1.4992112017359909" Properties=species:S:1:pos:R:3:forces:R:3 cutoff=-1.0 nneightol=1.2 n_minim_iter=2 energy=-7.664965759799161 stress="-0.25116962999004505 -4.3796706786965945e-17 1.395210194765766e-16 -4.3796706786965945e-17 -0.25116962999004655 -1.2932152355405076e-15 1.395210194765766e-16 -1.2932152355405076e-15 -0.24970761932248506" free_energy=-7.664965759799161 pbc="T T T"
Si      -0.00000000      -1.12030303      -0.37480280      -0.00000000      -0.00000000       0.00000000
Si      -0.00000000       1.12030303       0.37480280       0.00000000       0.00000000       0.00000000
