2
Lattice="5.242420409620395 7.821173904499966e-17 1.0788398933636349e-14 7.82117390453716e-17 5.242420409620395 -1.7796660999104077e-14 2.621210204810194 2.6212102048102017 1.408427828952945" Properties=species:S:1:pos:R:3:forces:R:3 cutoff=-1.0 nneightol=1.2 n_minim_iter=1 energy=-7.808626577842997 stress="0.18719116529051957 3.1104702853024105e-17 -2.1325967521261118e-16 3.1104702853024105e-17 0.18719116529051963 2.325491112924754e-16 -2.1325967521261118e-16 2.325491112924754e-16 0.20162032510938827" free_energy=-7.808626577842997 pbc="T T T"
Si      -0.00000000      -1.31060510      -0.35210696       0.00000000      -0.00000000      -0.00000000
Si      -0.00000000       1.31060510       0.35210696      -0.00000000       0.00000000      -0.00000000
