2
Lattice="4.767142142237766 1.4993337306134323e-16 9.918519895753259e-15 1.4993337306160855e-16 4.767142142237766 -1.6017375406047458e-14 2.38357107111888 2.383571071118887 1.4004618941430123" Properties=species:S:1:pos:R:3:forces:R:3 cutoff=-1.0 nneightol=1.2 n_minim_iter=1 energy=-8.03346064157384 stress="-0.19669267278572386 3.1660497702698385e-17 6.323984691331353e-16 3.1660497702698385e-17 -0.19669267278572403 -4.687577796003956e-16 6.323984691331353e-16 -4.687577796003956e-16 -0.23238383910373223" free_energy=-8.03346064157384 pbc="T T T"
Si      -0.00000000      -1.19178553      -0.35011547       0.00000000       0.00000000       0.00000000
Si      -0.00000000       1.19178554       0.35011547      -0.00000000      -0.00000000      -0.00000000
2
Lattice="4.715321693249589 1.8006127558981787e-16 9.858652235568828e-15 1.8006127559008014e-16 4.715321693249589 -1.5851245728586287e-14 2.357660846624791 2.357660846624799 1.431412632152524" Properties=species:S:1:pos:R:3:forces:R:3 cutoff=-1.0 nneightol=1.2 n_minim_iter=2 energy=-8.045873997336336 stress="-0.17702881483363977 2.187114742380577e-17 -3.9072998364279794e-16 2.187114742380577e-17 -0.1770288148336386 -3.069242884406712e-16 -3.9072998364279794e-16 -3.069242884406712e-16 -0.17701327710091763" free_energy=-8.045873997336336 pbc="T T T"
Si      -0.00000000      -1.17883042      -0.35785316      -0.00000000       0.00000000      -0.00000000
Si      -0.00000000       1.17883042       0.35785316       0.00000000      -0.00000000       0.00000000
