2
Lattice="4.324106221476699 1.7904377495406705e-16 9.120095854905823e-15 1.7904377495448793e-16 4.324106221476696 -1.4287661316704366e-14 2.1620531107383467 2.1620531107383543 1.518123166199289" Properties=species:S:1:pos:R:3:forces:R:3 cutoff=-1.0 nneightol=1.2 n_minim_iter=2 energy=-7.430671085573391 stress="-0.2999552585619278 1.1805252295276651e-18 -2.5179381752275735e-16 1.1805252295276651e-18 -0.2999552585619281 -8.913914147064288e-17 -2.5179381752275735e-16 -8.913914147064288e-17 -0.2993630519325432" free_energy=-7.430671085573391 pbc="T T T"
Si      -0.00000000      -1.08102655      -0.37953079      -0.00000000       0.00000000      -0.00000000
Si      -0.00000000       1.08102656       0.37953079       0.00000000      -0.00000000       0.00000000
