2
Lattice="4.967742925376537 1.0846226149003262e-16 1.028090468137485e-14 1.0846226149010141e-16 4.967742925376537 -1.6834883830461568e-14 2.4838714626882656 2.4838714626882736 1.394207901087776" Properties=species:S:1:pos:R:3:forces:R:3 cutoff=-1.0 nneightol=1.2 n_minim_iter=1 energy=-8.273801333995143 stress="-0.0014528345485897794 -8.101888802275633e-19 1.1394946313957752e-15 -8.101888802275633e-19 -0.0014528345485879867 -2.4444604489850403e-15 1.1394946313957752e-15 -2.4444604489850403e-15 -0.0008891448653568556" free_energy=-8.273801333995143 pbc="T T T"
Si      -0.00000000      -1.24193573      -0.34855198       0.00000000       0.00000000       0.00000000
Si      -0.00000000       1.24193573       0.34855198      -0.00000000      -0.00000000       0.00000000
