2
Lattice="5.127442800192677 6.509031243160035e-17 1.0927650102539445e-14 6.509031243174387e-17 5.127442800192677 -1.793391662489961e-14 2.5637214000963344 2.5637214000963433 1.4068655087474105" Properties=species:S:1:pos:R:3:forces:R:3 cutoff=-1.0 nneightol=1.2 n_minim_iter=2 energy=-8.189234940073334 stress="0.09471678417191638 -5.4139874528910696e-17 6.21608947717455e-16 -5.4139874528910696e-17 0.0947167841719165 1.3944229699054996e-16 6.21608947717455e-16 1.3944229699054996e-16 0.10322614852560393" free_energy=-8.189234940073334 pbc="T T T"
Si      -0.00000000      -1.28186070      -0.35171638       0.00000000       0.00000000      -0.00000000
Si      -0.00000000       1.28186070       0.35171638      -0.00000000      -0.00000000       0.00000000
