2
Lattice="5.2032964111742155 7.762804759758075e-17 1.0707885493252633e-14 7.762804759787773e-17 5.2032964111742155 -1.7663845146335313e-14 2.6016482055871046 2.601648205587113 1.3979167817865654" Properties=species:S:1:pos:R:3:forces:R:3 cutoff=-1.0 nneightol=1.2 n_minim_iter=2 energy=-7.962900824066627 stress="0.16363085615672074 1.7023076917301585e-17 2.34653885076633e-16 1.7023076917301585e-17 0.1636308561567209 1.2790701676904904e-16 2.34653885076633e-16 1.2790701676904904e-16 0.16932651396714976" free_energy=-7.962900824066627 pbc="T T T"
Si      -0.00000000      -1.30082410      -0.34947920       0.00000000      -0.00000000      -0.00000000
Si      -0.00000000       1.30082410       0.34947920      -0.00000000       0.00000000      -0.00000000
