2
Lattice="5.470137220336606 1.0457988662206851e-16 1.1020104485612477e-14 1.045798866227544e-16 5.470137220336606 -1.8011192979647345e-14 2.7350686101683004 2.735068610168308 1.4373394243610706" Properties=species:S:1:pos:R:3:forces:R:3 cutoff=-1.0 nneightol=1.2 n_minim_iter=1 energy=-7.051848276286115 stress="0.23859753031242428 6.357972775011479e-18 2.6305876552016507e-16 6.357972775011479e-18 0.23859753031242434 2.4474815919968508e-17 2.6305876552016507e-16 2.4474815919968508e-17 0.2492306758109597" free_energy=-7.051848276286115 pbc="T T T"
Si      -0.00000000      -1.36753430      -0.35933486      -0.00000000       0.00000000       0.00000000
Si      -0.00000000       1.36753431       0.35933486       0.00000000      -0.00000000      -0.00000000
