2
Lattice="4.907508318892543 1.1261011311958753e-16 1.0141726246983177e-14 1.1261011311972343e-16 4.907508318892543 -1.6656304325096267e-14 2.4537541594462686 2.4537541594462757 1.39292679720789" Properties=species:S:1:pos:R:3:forces:R:3 cutoff=-1.0 nneightol=1.2 n_minim_iter=2 energy=-8.247490915559663 stress="-0.06068440400699318 -7.396113244912131e-17 -8.507478695716777e-17 -7.396113244912131e-17 -0.060684404006993306 -4.577892957482921e-16 -8.507478695716777e-17 -4.577892957482921e-16 -0.07075498275699411" free_energy=-8.247490915559663 pbc="T T T"
Si      -0.00000000      -1.22687708      -0.34823170       0.00000000       0.00000000      -0.00000000
Si      -0.00000000       1.22687708       0.34823170      -0.00000000      -0.00000000       0.00000000
