4
Lattice="4.906075342849791 -0.0019961554781352917 8.586079447322952e-13 2.1038831902188737 4.432071161011501 2.5887795063081386e-12 -3.5049792665347925 -2.2150375027679976 2.6226529425083926" Properties=species:S:1:pos:R:3:tags:I:1 spacegroup="P 1" unit_cell=conventional n_minim_iter=1 energy=-1924.471943141803 free_energy=-1924.471943141803 pbc="T T T"
Ti       0.00000000       0.00000000       0.00000000        0
Al       3.50497927       2.21503750       0.00000000        1
Al       2.45303767      -0.00099808       1.31132647        2
Al       1.05194160       2.21603558       1.31132647        3
4
Lattice="4.94913162196509 0.04869367602278174 8.916419841898405e-13 2.168146476019385 4.449203944993321 2.6086204765192595e-12 -3.5586390489926942 -2.2489488105093574 2.602804689620861" Properties=species:S:1:pos:R:3:tags:I:1 spacegroup="P 1" unit_cell=conventional n_minim_iter=2 stress="-0.030671390761636233 0.00043761835889725775 2.975552888900469e-17 0.00043761835889725775 -0.03108729792659764 6.5083906461263384e-18 2.975552888900469e-17 6.5083906461263384e-18 -0.03136385907094155" pbc="T T T"
Ti       0.00000000       0.00000000       0.00000000        0
Al       3.55863905       2.24894881       0.00000000        1
Al       2.47456581       0.02434684       1.30140234        2
Al       1.08407324       2.22460197       1.30140234        3
