4
Lattice="4.583226377129858 0.05563119215403042 8.310109399118472e-13 2.0173660806195235 4.115737230475871 2.4221825788046216e-12 -3.300296228875111 -2.085684211316157 2.401463101090371" Properties=species:S:1:pos:R:3:tags:I:1 spacegroup="P 1" unit_cell=conventional n_minim_iter=1 energy=-1923.1222200413063 free_energy=-1923.1222200413063 pbc="T T T"
Ti       0.00000000       0.00000000       0.00000000        0
Al       3.30029623       2.08568421       0.00000000        1
Al       2.29161319       0.02781560       1.20073155        2
Al       1.00868304       2.05786862       1.20073155        3
4
Lattice="4.561436907500544 0.030130774269776672 8.144885624264719e-13 1.9849818239050072 4.10700154412352 2.4121862395386265e-12 -3.273209365703197 -2.0685661591978595 2.4113790697359287" Properties=species:S:1:pos:R:3:tags:I:1 spacegroup="P 1" unit_cell=conventional n_minim_iter=2 stress="-0.30537096000361486 7.378385860748239e-05 -3.0623112054707414e-16 7.378385860748239e-05 -0.30544108328530206 8.101834438913628e-16 -3.0623112054707414e-16 8.101834438913628e-16 -0.3054877123810724" pbc="T T T"
Ti       0.00000000       0.00000000       0.00000000        0
Al       3.27320937       2.06856616       0.00000000        1
Al       2.28071845       0.01506539       1.20568953        2
Al       0.99249091       2.05350077       1.20568953        3
