4
Lattice="4.905331699938346 0.04826273593553042 8.878613731721888e-13 2.148958332755878 4.4098283937336005 2.588723046897928e-12 -3.527145016347566 -2.2290455648358596 2.5797698117545513" Properties=species:S:1:pos:R:3:tags:I:1 spacegroup="P 1" unit_cell=conventional n_minim_iter=1 energy=-1924.4261666416076 free_energy=-1924.4261666416076 pbc="T T T"
Ti       0.00000000       0.00000000       0.00000000        0
Al       3.52714502       2.22904556       0.00000000        1
Al       2.45266585       0.02413137       1.28988491        2
Al       1.07447917       2.20491420       1.28988491        3
