4
Lattice="5.031926630283904 -0.002047361119974413 8.869491630149941e-13 2.1578522774417013 4.545763231074352 2.6570887534773437e-12 -3.594889453863277 -2.2718579349785353 2.689929579380384" Properties=species:S:1:pos:R:3:tags:I:1 spacegroup="P 1" unit_cell=conventional n_minim_iter=1 stress="0.01838928689681458 -0.0021242789852546577 -1.489654279011082e-15 -0.0021242789852546577 0.02040817580396655 -9.35187900408349e-16 -1.489654279011082e-15 -9.35187900408349e-16 0.021750653821912855" pbc="T T T"
Ti       0.00000000       0.00000000       0.00000000        0
Al       3.59488945       2.27185793       0.00000000        1
Al       2.51596332      -0.00102368       1.34496479        2
Al       1.07892614       2.27288162       1.34496479        3
