4
Lattice="4.850034686935088 0.08778342448779156 8.963681277481493e-13 2.1609203363676244 4.342921331772106 2.5596358959202174e-12 -3.505477511651799 -2.2153523781312114 2.5168201465540303" Properties=species:S:1:pos:R:3:tags:I:1 spacegroup="P 1" unit_cell=conventional n_minim_iter=2 stress="-0.06804476566473544 0.003067518975376764 2.2900240701900497e-15 0.003067518975376764 -0.07096009838461557 1.695443448394538e-15 2.2900240701900497e-15 1.695443448394538e-15 -0.07289867463691693" pbc="T T T"
Ti       0.00000000       0.00000000       0.00000000        0
Al       3.50547751       2.21535238       0.00000000        1
Al       2.42501734       0.04389171       1.25841007        2
Al       1.08046017       2.17146067       1.25841007        3
