4
Lattice="4.8607353069521695 0.047823959504082164 8.797894593573228e-13 2.1294212665224763 4.369736825603557 2.5651878983302417e-12 -3.495078286737773 -2.2087803925551017 2.5563160607390336" Properties=species:S:1:pos:R:3:tags:I:1 spacegroup="P 1" unit_cell=conventional n_minim_iter=1 stress="-0.04872767328734565 -0.0034629395934880347 -2.5453791681713748e-15 -0.0034629395934880347 -0.04543653762203929 -1.86131223144878e-15 -2.5453791681713748e-15 -1.86131223144878e-15 -0.043248067880540385" pbc="T T T"
Ti       0.00000000       0.00000000       0.00000000        0
Al       3.49507829       2.20878039       0.00000000        1
Al       2.43036765       0.02391198       1.27815803        2
Al       1.06471063       2.18486841       1.27815803        3
