4
Lattice="4.755835340775457 0.08607845911657754 8.785553010380452e-13 2.118950062765827 4.258571347435355 2.5109118442166517e-12 -3.4373927017710746 -2.1723249032772056 2.4679374420972082" Properties=species:S:1:pos:R:3:tags:I:1 spacegroup="P 1" unit_cell=conventional n_minim_iter=1 stress="-0.08825631879443886 0.0015549517150534407 1.4245068943212139e-15 0.0015549517150534407 -0.0897341259894789 8.741254029341212e-16 1.4245068943212139e-15 8.741254029341212e-16 -0.0907168069418931" pbc="T T T"
Ti       0.00000000       0.00000000       0.00000000        0
Al       3.43739270       2.17232490       0.00000000        1
Al       2.37791767       0.04303923       1.23396872        2
Al       1.05947503       2.12928567       1.23396872        3
