2
Lattice="4.5318927864568535 3.849604259303024e-18 -7.024718600932753e-17 3.849604259303021e-18 4.5318927864568535 1.8544621440570543e-16 2.2659463932284267 2.2659463932284267 1.2323587731821144" Properties=species:S:1:pos:R:3:forces:R:3 cutoff=-1.0 nneightol=1.2 n_minim_iter=1 energy=-325.3977980471046 stress="-0.15832713003159457 -3.4535177235395444e-16 4.24618004881534e-16 -3.4535177235395444e-16 -0.1583271300315949 -6.105594756706643e-17 4.24618004881534e-16 -6.105594756706643e-17 -0.1537371680819653" free_energy=-325.3977980471046 pbc="T T T"
Si      -0.00000000      -1.13297320      -0.30808969      -0.00000000       0.00000000      -0.00000000
Si      -0.00000000       1.13297320       0.30808969       0.00000000      -0.00000000       0.00000000
