4
Lattice="3.8091496407452636 -1.0445076747217832e-16 1.1752481292621964e-17 -1.0445076747217832e-16 3.8091496407452636 -7.603713800166257e-17 1.1752481292621964e-17 -7.603713800166257e-17 3.809149640745265" Properties=species:S:1:pos:R:3:forces:R:3 n_minim_iter=1 energy=-650.3030670817126 stress="-0.02681221667107499 2.6196152508685197e-17 2.0605390590926264e-17 2.6196152508685197e-17 -0.026812216671074973 9.050844629115412e-17 2.0605390590926264e-17 9.050844629115412e-17 -0.026812216671074682" free_energy=-650.3030670817126 pbc="T T T"
Si      -0.00000000      -0.00000000      -0.00000000      -0.00000000      -0.00000000      -0.00000000
Si       1.90457482       1.90457482      -0.00000000       0.00000000       0.00000000      -0.00000000
Si       1.90457482      -0.00000000       1.90457482       0.00000000      -0.00000000       0.00000000
Si      -0.00000000       1.90457482       1.90457482      -0.00000000       0.00000000       0.00000000
