4
Lattice="3.7411145151324616 -1.025851749500812e-16 1.1542570520817995e-17 -1.025851749500812e-16 3.7411145151324616 -7.467904059854534e-17 1.1542570520817995e-17 -7.467904059854534e-17 3.741114515132463" Properties=species:S:1:pos:R:3:forces:R:3 n_minim_iter=1 energy=-650.2520021652604 stress="-0.043752604318951414 5.147127404501093e-17 1.197853479575767e-16 5.147127404501093e-17 -0.043752604318951414 -1.3790214114525617e-16 1.197853479575767e-16 -1.3790214114525617e-16 -0.043752604318951796" free_energy=-650.2520021652604 pbc="T T T"
Si      -0.00000000      -0.00000000      -0.00000000      -0.00000000      -0.00000000      -0.00000000
Si       1.87055726       1.87055726      -0.00000000       0.00000000       0.00000000      -0.00000000
Si       1.87055726      -0.00000000       1.87055726       0.00000000      -0.00000000       0.00000000
Si      -0.00000000       1.87055726       1.87055726      -0.00000000       0.00000000       0.00000000
