1
Lattice="2.689031854766185 6.010669238944215e-17 9.191643314072047e-50 1.3445159273830924 2.3287698978131033 -3.568322524618335e-49 -6.456776812186044e-50 9.328660878034114e-49 2.5059303146824896" Properties=species:S:1:pos:R:3 cutoff=-1.0 nneightol=1.2 n_minim_iter=1 energy=-162.8293360271338 free_energy=-162.8293360271338 pbc="T T T"
Si       0.00000000       0.00000000       0.00000000
