1
Lattice="2.8536455027663474 6.378622555894036e-17 9.754325356816865e-50 1.426822751383174 2.471329498790874 -3.786763443039384e-49 -1.5229418170014417e-48 8.349428064427298e-48 2.659335091201938" Properties=species:S:1:pos:R:3 cutoff=-1.0 nneightol=1.2 n_minim_iter=1 stress="0.07413932166119847 1.6575419259397706e-16 1.774969519796822e-17 1.6575419259397706e-16 0.07413932166119792 2.331417266605766e-20 1.774969519796822e-17 2.331417266605766e-20 0.08710707037463931" pbc="T T T"
Si       0.00000000       0.00000000       0.00000000
