1
Lattice="2.598574881328932 5.808474926250002e-17 8.882443468175085e-50 1.299287440664466 2.250431860866988 -3.4482868860472134e-49 -3.935005651657041e-49 2.5768943145669854e-48 2.421632736909634" Properties=species:S:1:pos:R:3 cutoff=-1.0 nneightol=1.2 n_minim_iter=1 stress="-0.02727461960898113 4.895577223035909e-16 -7.836198829753477e-17 4.895577223035909e-16 -0.027274619608979422 3.7347530879507316e-17 -7.836198829753477e-17 3.7347530879507316e-17 -0.03241802720536975" pbc="T T T"
Si       0.00000000       0.00000000       0.00000000
