1
Lattice="2.666989618662908 5.961399242284013e-17 9.116298586657689e-50 1.3334948093314538 2.3096807613914514 -3.539072663765677e-49 1.0587253250057606e-49 6.5459825566394925e-50 2.4853889783808447" Properties=species:S:1:pos:R:3 cutoff=-1.0 nneightol=1.2 n_minim_iter=2 stress="0.006784611579563446 1.374576231788975e-16 -1.4346419534073807e-17 1.374576231788975e-16 0.0067846115795624435 3.080698697363867e-17 -1.4346419534073807e-17 3.080698697363867e-17 0.007419844866483011" pbc="T T T"
Si       0.00000000       0.00000000       0.00000000
