2
Lattice="2.95770346033664 1.0246898737532349e-16 2.95770346033664 2.95770346033664 2.95770346033664 -2.788461217500876e-18 3.645254496644721e-17 2.95770346033664 2.95770346033664" Properties=species:S:1:pos:R:3 n_minim_iter=1 energy=-325.833732516981 free_energy=-325.833732516981 pbc="T T T"
Si       0.00000000       0.00000000       0.00000000
Si       1.47885173       1.47885173       1.47885173
