2
Lattice="2.876629336792261 9.966019215520065e-17 2.876629336792261 2.876629336792261 2.876629336792261 -2.7120262224859786e-18 3.545333792160696e-17 2.876629336792261 2.876629336792261" Properties=species:S:1:pos:R:3 n_minim_iter=1 energy=-326.1138429095784 free_energy=-326.1138429095784 pbc="T T T"
Si       0.00000000       0.00000000       0.00000000
Si       1.43831467       1.43831467       1.43831467
