2
Lattice="2.745688670927284 9.512378151858198e-17 2.745688670927284 2.745688670927284 2.745688670927284 -2.5885780900228707e-18 3.3839545134605796e-17 2.745688670927284 2.745688670927284" Properties=species:S:1:pos:R:3 n_minim_iter=1 stress="0.00884471857770103 -3.6830788099879607e-16 -2.4561515158665267e-16 -3.6830788099879607e-16 0.008844718577701497 -4.357924723195749e-18 -2.4561515158665267e-16 -4.357924723195749e-18 0.00884471857770723" pbc="T T T"
Si       0.00000000       0.00000000       0.00000000
Si       1.37284434       1.37284434       1.37284434
