2
Lattice="2.876629336792261 9.966019215520065e-17 2.876629336792261 2.876629336792261 2.876629336792261 -2.7120262224859786e-18 3.545333792160696e-17 2.876629336792261 2.876629336792261" Properties=species:S:1:pos:R:3 n_minim_iter=1 stress="0.060327020022309025 1.0249868098954539e-16 -8.664836949631671e-17 1.0249868098954539e-16 0.06032702002230893 -2.976943560912143e-16 -8.664836949631671e-17 -2.976943560912143e-16 0.060327020022309406" pbc="T T T"
Si       0.00000000       0.00000000       0.00000000
Si       1.43831467       1.43831467       1.43831467
