12
Lattice="6.013801018683272 -3.646463036404993e-63 2.0517383707070088e-48 2.6881214913651213e-63 6.013801018683272 2.8089718660480652e-15 -2.545981372251758e-48 -3.4856247503297738e-15 7.462464799895626" Properties=species:S:1:pos:R:3:forces:R:3 cutoff=-1.0 nneightol=1.2 n_minim_iter=1 energy=-1953.629548758864 stress="0.08648587980108785 1.774021590026016e-18 -3.775500386635494e-17 1.774021590026016e-18 0.0864858798010878 3.0124767523662815e-17 -3.775500386635494e-17 3.0124767523662815e-17 0.08527803647270328" free_energy=-1953.629548758864 pbc="T T T"
Si       0.44487105       0.44487105       0.00000000       0.01159640       0.01159640      -0.00000000
Si      -0.44487106      -0.44487106       3.73123240      -0.01159640      -0.01159640      -0.00000000
Si       2.56202945       3.45177156       5.59684860      -0.01159640       0.01159640      -0.00000000
Si       3.45177156       2.56202945       1.86561620       0.01159640      -0.01159640       0.00000000
Si       0.78022846       3.97784524      -0.21645096       0.02705845      -0.00247416      -0.06910185
Si       0.97094473       2.22667205       1.64916524      -0.00247416      -0.02705845      -0.06910185
Si       2.03595578       5.23357256       3.94768336       0.00247416      -0.02705845       0.06910185
Si       2.22667205       0.97094473       5.81329956      -0.02705845      -0.00247416       0.06910185
Si       3.78712897       5.04285629       2.08206716       0.02705845       0.00247416       0.06910185
Si       3.97784524       0.78022846       0.21645096      -0.00247416       0.02705845       0.06910185
Si       5.04285629       3.78712897       5.38039764       0.00247416       0.02705845      -0.06910185
Si       5.23357256       2.03595578       3.51478144      -0.02705845       0.00247416      -0.06910185
12
Lattice="6.004473121776174 -3.6383168473343696e-63 2.0453302197087195e-48 2.708916858346518e-63 6.004473121776174 2.808372755145963e-15 -2.557900621007943e-48 -3.491799879710117e-15 7.485668557987884" Properties=species:S:1:pos:R:3:forces:R:3 cutoff=-1.0 nneightol=1.2 n_minim_iter=2 energy=-1953.630256760441 stress="0.08540693827145172 4.8632937882370346e-18 -5.503644878477393e-18 4.8632937882370346e-18 0.08540693827145154 -6.801649411514141e-17 -5.503644878477393e-18 -6.801649411514141e-17 0.08649957270156104" free_energy=-1953.630256760441 pbc="T T T"
Si       0.44434643       0.44434643       0.00000000       0.01690316       0.01690316      -0.00000000
Si      -0.44434643      -0.44434643       3.74283428      -0.01690316      -0.01690316      -0.00000000
Si       2.55789013       3.44658299       5.61425142      -0.01690316       0.01690316       0.00000000
Si       3.44658299       2.55789013       1.87141714       0.01690316      -0.01690316      -0.00000000
Si       0.77940421       3.97163998      -0.21811423       0.02937021      -0.00963043      -0.07228795
Si       0.96940342       2.22283235       1.65330291      -0.00963043      -0.02937021      -0.07228795
Si       2.03283313       5.22506891       3.96094851       0.00963043      -0.02937021       0.07228795
Si       2.22283235       0.96940342       5.83236565      -0.02937021      -0.00963043       0.07228795
Si       3.78164077       5.03506970       2.08953137       0.02937021       0.00963043       0.07228795
Si       3.97163998       0.77940421       0.21811423      -0.00963043       0.02937021       0.07228795
Si       5.03506970       3.78164077       5.39613719       0.00963043       0.02937021      -0.07228795
Si       5.22506891       2.03283313       3.52472005      -0.02937021       0.00963043      -0.07228795
12
Lattice="6.0080719397296365 -3.625241339498279e-63 2.0482632083815332e-48 2.687744937340095e-63 6.0080719397296365 2.8064860559475137e-15 -2.5527249953671467e-48 -3.492039798326442e-15 7.476703455601958" Properties=species:S:1:pos:R:3:forces:R:3 cutoff=-1.0 nneightol=1.2 n_minim_iter=3 energy=-1953.633405526788 stress="0.08520332897781953 5.811125885045764e-17 -6.972354781814138e-17 5.811125885045764e-17 0.08520332897781933 4.9063176833135735e-17 -6.972354781814138e-17 4.9063176833135735e-17 0.0842164720498608" free_energy=-1953.633405526788 pbc="T T T"
Si       0.44626650       0.44626650       0.00000000      -0.03696673      -0.03696673       0.00000000
Si      -0.44626650      -0.44626650       3.73835173       0.03696673       0.03696673       0.00000000
Si       2.55776947       3.45030247       5.60752759       0.03696673      -0.03696673       0.00000000
Si       3.45030247       2.55776947       1.86917586      -0.03696673       0.03696673      -0.00000000
Si       0.78309904       3.97329008      -0.22596989      -0.01003969       0.00975993      -0.01989096
Si       0.96925411       2.22093693       1.64320597       0.00975993       0.01003969      -0.01989096
Si       2.03478186       5.22497290       3.96432162      -0.00975993       0.01003969       0.01989096
Si       2.22093693       0.96925411       5.83349748       0.01003969       0.00975993       0.01989096
Si       3.78713501       5.03881783       2.09514576      -0.01003969      -0.00975993       0.01989096
Si       3.97329008       0.78309904       0.22596989       0.00975993      -0.01003969       0.01989096
Si       5.03881783       3.78713501       5.38155770      -0.00975993      -0.01003969      -0.01989096
Si       5.22497290       2.03478186       3.51238184       0.01003969      -0.00975993      -0.01989096
12
Lattice="6.004048435142273 -3.6187322853509484e-63 2.045684691045905e-48 2.691860770149496e-63 6.004048435142273 2.7975807535263757e-15 -2.5576427931412004e-48 -3.505435160858011e-15 7.486727568703628" Properties=species:S:1:pos:R:3:forces:R:3 cutoff=-1.0 nneightol=1.2 n_minim_iter=4 energy=-1953.633880330037 stress="0.08461735339013762 3.674667184847341e-17 -1.661128576613611e-16 3.674667184847341e-17 0.08461735339013754 2.1705729058054462e-17 -1.661128576613611e-16 2.1705729058054462e-17 0.0844872529409566" free_energy=-1953.633880330037 pbc="T T T"
Si       0.44578033       0.44578033       0.00000000      -0.03756452      -0.03756452      -0.00000000
Si      -0.44578033      -0.44578033       3.74336378       0.03756452       0.03756452       0.00000000
Si       2.55624388       3.44780455       5.61504568       0.03756452      -0.03756452       0.00000000
Si       3.44780455       2.55624388       1.87168189      -0.03756452       0.03756452      -0.00000000
Si       0.78309919       3.97060392      -0.22825342      -0.01325475       0.00604682      -0.01390368
Si       0.96857970       2.21892502       1.64342847       0.00604682       0.01325475      -0.01390368
Si       2.03344451       5.22094924       3.97161720      -0.00604682       0.01325475       0.01390368
Si       2.21892502       0.96857970       5.84329910       0.01325475       0.00604682       0.01390368
Si       3.78512341       5.03546873       2.09993531      -0.01325475      -0.00604682       0.01390368
Si       3.97060392       0.78309919       0.22825342       0.00604682      -0.01325475       0.01390368
Si       5.03546873       3.78512341       5.38679226      -0.00604682      -0.01325475      -0.01390368
Si       5.22094924       2.03344451       3.51511036       0.01325475      -0.00604682      -0.01390368
12
Lattice="5.99906776724322 -1.5982794034969798e-63 2.0431763331971984e-48 4.9140090269903e-63 5.99906776724322 2.7810919177552167e-15 -2.5628935061509873e-48 -3.528776069638182e-15 7.499164295372918" Properties=species:S:1:pos:R:3:forces:R:3 cutoff=-1.0 nneightol=1.2 n_minim_iter=5 energy=-1953.634384367419 stress="0.0837461126340686 9.039395245881146e-17 -1.0512283098614674e-16 9.039395245881146e-17 0.08374611263406834 9.928039527083752e-18 -1.0512283098614674e-16 9.928039527083752e-18 0.0847225390979364" free_energy=-1953.634384367419 pbc="T T T"
Si       0.44363297       0.44363297       0.00000000      -0.02658320      -0.02658320      -0.00000000
Si      -0.44363298      -0.44363298       3.74958215       0.02658320       0.02658320       0.00000000
Si       2.55590091       3.44316685       5.62437322       0.02658320      -0.02658320       0.00000000
Si       3.44316685       2.55590091       1.87479107      -0.02658320       0.02658320       0.00000000
Si       0.78285860       3.96745043      -0.23270129      -0.01455074      -0.00694776      -0.00352715
Si       0.96791655       2.21667527       1.64208979      -0.00694776       0.01455074      -0.00352715
Si       2.03161733       5.21620916       3.98228344       0.00694776       0.01455074       0.00352715
Si       2.21667527       0.96791655       5.85707451       0.01455074      -0.00694776       0.00352715
Si       3.78239249       5.03115121       2.10749236      -0.01455074       0.00694776       0.00352715
Si       3.96745043       0.78285860       0.23270129      -0.00694776      -0.01455074       0.00352715
Si       5.03115121       3.78239249       5.39167193       0.00694776      -0.01455074      -0.00352715
Si       5.21620916       2.03161733       3.51688086       0.01455074       0.00694776      -0.00352715
12
Lattice="6.004123420084308 4.866618508445515e-63 2.0477188783794576e-48 1.6830169127357538e-63 6.004123420084307 2.787968130713231e-15 -2.555082403526786e-48 -3.5172836422150622e-15 7.486540567775112" Properties=species:S:1:pos:R:3:forces:R:3 cutoff=-1.0 nneightol=1.2 n_minim_iter=6 energy=-1953.635096412446 stress="0.08409319418729751 5.1314860014393515e-17 -7.127260290218601e-17 5.1314860014393515e-17 0.08409319418729751 -5.574876511307479e-19 -7.127260290218601e-17 -5.574876511307479e-19 0.08403418856137343" free_energy=-1953.635096412446 pbc="T T T"
Si       0.44030830       0.44030830       0.00000000       0.00050686       0.00050686       0.00000000
Si      -0.44030831      -0.44030831       3.74327028      -0.00050686      -0.00050686       0.00000000
Si       2.56175340       3.44237001       5.61490543      -0.00050686       0.00050686       0.00000000
Si       3.44237001       2.56175340       1.87163514       0.00050686      -0.00050686       0.00000000
Si       0.78231929       3.97089947      -0.23446714      -0.00497241      -0.02057394      -0.00062922
Si       0.96883776       2.21974241       1.63716800      -0.02057394       0.00497241      -0.00062922
Si       2.03322394       5.22180412       3.97773742       0.02057394       0.00497241       0.00062922
Si       2.21974241       0.96883776       5.84937256       0.00497241      -0.02057394       0.00062922
Si       3.78438100       5.03528565       2.10610228      -0.00497241       0.02057394       0.00062922
Si       3.97089947       0.78231929       0.23446714      -0.02057394      -0.00497241       0.00062922
Si       5.03528565       3.78438100       5.38043829       0.02057394      -0.00497241      -0.00062922
Si       5.22180412       2.03322394       3.50880314       0.00497241       0.02057394      -0.00062922
12
Lattice="6.003252558300131 4.8126762534235703e-63 2.047989879643478e-48 1.6803301952746897e-63 6.00325255830013 2.7875394085637415e-15 -2.5551203271659365e-48 -3.5183284911631296e-15 7.488712795215493" Properties=species:S:1:pos:R:3:forces:R:3 cutoff=-1.0 nneightol=1.2 n_minim_iter=7 energy=-1953.635400436622 stress="0.08394576264224127 6.122302769926698e-17 -4.9733666858065913e-17 6.122302769926698e-17 0.08394576264224114 -5.1831203147642676e-17 -4.9733666858065913e-17 -5.1831203147642676e-17 0.08390185553456256" free_energy=-1953.635400436622 pbc="T T T"
Si       0.43877482       0.43877482       0.00000000      -0.00335063      -0.00335063      -0.00000000
Si      -0.43877483      -0.43877483       3.74435640       0.00335063       0.00335063       0.00000000
Si       2.56285145       3.44040110       5.61653460       0.00335063      -0.00335063       0.00000000
Si       3.44040110       2.56285145       1.87217820      -0.00335063       0.00335063       0.00000000
Si       0.78112468       3.96693801      -0.23634338       0.00328390      -0.00074729       0.00239592
Si       0.96531173       2.22050159       1.63583482      -0.00074729      -0.00328390       0.00239592
Si       2.03631454       5.22212787       3.98069978       0.00074729      -0.00328390      -0.00239592
Si       2.22050159       0.96531173       5.85287797      -0.00328390      -0.00074729      -0.00239592
Si       3.78275096       5.03794082       2.10852158       0.00328390       0.00074729      -0.00239592
Si       3.96693801       0.78112468       0.23634338      -0.00074729       0.00328390      -0.00239592
Si       5.03794082       3.78275096       5.38019122       0.00074729       0.00328390       0.00239592
Si       5.22212787       2.03631454       3.50801302      -0.00328390       0.00074729       0.00239592
