12
Lattice="5.580980428532197 -8.17118160358891e-63 1.912547078386013e-48 7.29400668326776e-63 5.580980428532196 2.5596734940730973e-15 -2.302759361652052e-48 -3.081917390615878e-15 6.7196541587069465" Properties=species:S:1:pos:R:3:forces:R:3 cutoff=-1.0 nneightol=1.2 n_minim_iter=1 energy=-1955.880096037644 stress="-0.029722164913188662 -1.1354888380858703e-18 1.461216658062319e-17 -1.1354888380858703e-18 -0.0297221649131887 8.029524265376817e-17 1.461216658062319e-17 8.029524265376817e-17 -0.028454509645418676" free_energy=-1955.880096037644 pbc="T T T"
Si       0.45975777       0.45975777       0.00000000       0.01105973       0.01105973       0.00000000
Si      -0.45975777      -0.45975777       3.35982708      -0.01105973      -0.01105973      -0.00000000
Si       2.33073244       3.25024798       5.03974062      -0.01105973       0.01105973       0.00000000
Si       3.25024798       2.33073244       1.67991354       0.01105973      -0.01105973      -0.00000000
Si       0.69962284       3.72334313      -0.06318258      -0.01725203      -0.00348894       0.08393466
Si       0.93285291       2.09086737       1.61673096      -0.00348894       0.01725203       0.08393466
Si       1.85763730       4.88135759       3.42300965       0.00348894       0.01725203      -0.08393466
Si       2.09086737       0.93285291       5.10292319       0.01725203      -0.00348894      -0.08393466
Si       3.49011305       4.64812751       1.74309611      -0.01725203       0.00348894      -0.08393466
Si       3.72334313       0.69962284       0.06318258      -0.00348894      -0.01725203      -0.08393466
Si       4.64812751       3.49011305       4.97655804       0.00348894      -0.01725203       0.08393466
Si       4.88135759       1.85763730       3.29664450       0.01725203       0.00348894       0.08393466
12
Lattice="5.588036040194705 -8.181456929443353e-63 1.917256450987087e-48 7.303364130722805e-63 5.588036040194704 2.5657391172056412e-15 -2.2941889654065116e-48 -3.07073273038987e-15 6.702696022250084" Properties=species:S:1:pos:R:3:forces:R:3 cutoff=-1.0 nneightol=1.2 n_minim_iter=2 energy=-1955.880853998218 stress="-0.02847235531463479 6.282900100080209e-17 4.293308161521761e-18 6.282900100080209e-17 -0.028472355314634958 6.987950092879226e-17 4.293308161521761e-18 6.987950092879226e-17 -0.030082853536453992" free_energy=-1955.880853998218 pbc="T T T"
Si       0.46049720       0.46049720       0.00000000      -0.00527254      -0.00527254      -0.00000000
Si      -0.46049721      -0.46049721       3.35134801       0.00527254       0.00527254       0.00000000
Si       2.33352081       3.25451522       5.02702202       0.00527254      -0.00527254       0.00000000
Si       3.25451522       2.33352081       1.67567401      -0.00527254       0.00527254       0.00000000
Si       0.70026055       3.72800036      -0.06182708      -0.01790766       0.02082852       0.08655339
Si       0.93398234       2.09375747       1.61384692       0.02082852       0.01790766       0.08655339
Si       1.86003567       4.88777549       3.41317509      -0.02082852       0.01790766      -0.08655339
Si       2.09375747       0.93398234       5.08884910       0.01790766       0.02082852      -0.08655339
Si       3.49427857       4.65405369       1.73750109      -0.01790766      -0.02082852      -0.08655339
Si       3.72800036       0.70026055       0.06182708       0.02082852      -0.01790766      -0.08655339
Si       4.65405369       3.49427857       4.96519493      -0.02082852      -0.01790766       0.08655339
Si       4.88777549       1.86003567       3.28952093       0.01790766      -0.02082852       0.08655339
12
Lattice="5.589702681362167 -8.184647323457693e-63 1.9187178759364413e-48 7.302303836405819e-63 5.589702681362167 2.5749542467817834e-15 -2.2917472063113083e-48 -3.0587256181444653e-15 6.698699629463598" Properties=species:S:1:pos:R:3:forces:R:3 cutoff=-1.0 nneightol=1.2 n_minim_iter=3 energy=-1955.885259133909 stress="-0.02733573687609648 1.1614724695267332e-16 -2.9187036082623065e-17 1.1614724695267332e-16 -0.027335736876096407 5.944388740244744e-17 -2.9187036082623065e-17 5.944388740244744e-17 -0.02733711458558583" free_energy=-1955.885259133909 pbc="T T T"
Si       0.46122314       0.46122314       0.00000000       0.05014496       0.05014496       0.00000000
Si      -0.46122315      -0.46122315       3.34934981      -0.05014496      -0.05014496      -0.00000000
Si       2.33362819       3.25607448       5.02402472      -0.05014496       0.05014496       0.00000000
Si       3.25607448       2.33362819       1.67467491       0.05014496      -0.05014496      -0.00000000
Si       0.69790692       3.73013251      -0.04943775       0.03407547       0.01460245       0.00347132
Si       0.93528117       2.09694442       1.62523716       0.01460245      -0.03407547       0.00347132
Si       1.85957017       4.89179576       3.39878756      -0.01460245      -0.03407547      -0.00347132
Si       2.09694442       0.93528117       5.07346247      -0.03407547       0.01460245      -0.00347132
Si       3.49275826       4.65442151       1.72411265       0.03407547      -0.01460245      -0.00347132
Si       3.73013251       0.69790692       0.04943775       0.01460245       0.03407547      -0.00347132
Si       4.65442151       3.49275826       4.97458698      -0.01460245       0.03407547       0.00347132
Si       4.89179576       1.85957017       3.29991207      -0.03407547      -0.01460245       0.00347132
12
Lattice="5.589412939357491 -8.182583737139441e-63 1.9189766650689583e-48 7.29897695570487e-63 5.589412939357491 2.5886844045012373e-15 -2.2915542070025297e-48 -3.042354765580393e-15 6.699394137092975" Properties=species:S:1:pos:R:3:forces:R:3 cutoff=-1.0 nneightol=1.2 n_minim_iter=4 energy=-1955.886859705764 stress="-0.026823240931560164 9.471385910384096e-17 -2.907928896660035e-17 9.471385910384096e-17 -0.026823240931560174 1.4521766259827824e-16 -2.907928896660035e-17 1.4521766259827824e-16 -0.026947643619866835" free_energy=-1955.886859705764 pbc="T T T"
Si       0.46493435       0.46493435       0.00000000       0.01682074       0.01682074       0.00000000
Si      -0.46493435      -0.46493435       3.34969707      -0.01682074      -0.01682074       0.00000000
Si       2.32977212       3.25964082       5.02454560      -0.01682074       0.01682074       0.00000000
Si       3.25964082       2.32977212       1.67484853       0.01682074      -0.01682074      -0.00000000
Si       0.69964810       3.73126439      -0.04599574       0.01558235       0.02134862       0.00055449
Si       0.93655792       2.09505836       1.62885280       0.02134862      -0.01558235       0.00055449
Si       1.85814854       4.88976483       3.39569280      -0.02134862      -0.01558235      -0.00055449
Si       2.09505836       0.93655792       5.07054134      -0.01558235       0.02134862      -0.00055449
Si       3.49435457       4.65285501       1.72084427       0.01558235      -0.02134862      -0.00055449
Si       3.73126439       0.69964810       0.04599574       0.02134862       0.01558235      -0.00055449
Si       4.65285501       3.49435457       4.97854987      -0.02134862       0.01558235       0.00055449
Si       4.88976483       1.85814854       3.30370133      -0.01558235      -0.02134862       0.00055449
12
Lattice="5.588820959664536 -8.182479921972541e-63 1.9188282337781796e-48 7.295403501024765e-63 5.588820959664536 2.5944267166933704e-15 -2.2919754453547765e-48 -3.0357750314094944e-15 6.70081344014504" Properties=species:S:1:pos:R:3:forces:R:3 cutoff=-1.0 nneightol=1.2 n_minim_iter=5 energy=-1955.887307749382 stress="-0.02653589146109622 -1.7504762233849236e-17 -2.790235893004428e-17 -1.7504762233849236e-17 -0.026535891461096278 -1.5948141600695512e-17 -2.790235893004428e-17 -1.5948141600695512e-17 -0.026496728133037897" free_energy=-1955.887307749382 pbc="T T T"
Si       0.46777236       0.46777236       0.00000000      -0.00542543      -0.00542543       0.00000000
Si      -0.46777237      -0.46777237       3.35040672       0.00542543       0.00542543       0.00000000
Si       2.32663811       3.26218284       5.02561008       0.00542543      -0.00542543       0.00000000
Si       3.26218284       2.32663811       1.67520336      -0.00542543       0.00542543       0.00000000
Si       0.70106326       3.73228214      -0.04343420      -0.00004072       0.01959734      -0.00144808
Si       0.93787166       2.09334722       1.63176916       0.01959734       0.00004072      -0.00144808
Si       1.85653881       4.88775770       3.39384092      -0.01959734       0.00004072       0.00144808
Si       2.09334722       0.93787166       5.06904428       0.00004072       0.01959734       0.00144808
Si       3.49547374       4.65094929       1.71863756      -0.00004072      -0.01959734       0.00144808
Si       3.73228214       0.70106326       0.04343420       0.01959734      -0.00004072       0.00144808
Si       4.65094929       3.49547374       4.98217588      -0.01959734      -0.00004072      -0.00144808
Si       4.88775770       1.85653881       3.30697252       0.00004072      -0.01959734      -0.00144808
12
Lattice="5.589644432835939 -8.188591511917473e-63 1.919776686681327e-48 7.28766911996975e-63 5.589644432835939 2.6070948490514092e-15 -2.2904959822233652e-48 -3.0200518435034724e-15 6.698839241712195" Properties=species:S:1:pos:R:3:forces:R:3 cutoff=-1.0 nneightol=1.2 n_minim_iter=6 energy=-1955.887406518833 stress="-0.026419966168396626 -2.060870799927376e-16 1.9046374816943846e-17 -2.060870799927376e-16 -0.026419966168397063 2.3526038885848167e-17 1.9046374816943846e-17 2.3526038885848167e-17 -0.026357493302037627" free_energy=-1955.887406518833 pbc="T T T"
Si       0.46859441       0.46859441       0.00000000      -0.00424969      -0.00424969      -0.00000000
Si      -0.46859442      -0.46859442       3.34941962       0.00424969       0.00424969      -0.00000000
Si       2.32622780       3.26341663       5.02412943       0.00424969      -0.00424969       0.00000000
Si       3.26341663       2.32622780       1.67470981      -0.00424969       0.00424969      -0.00000000
Si       0.70169502       3.73434825      -0.04258691      -0.00704555       0.00511065      -0.00156534
Si       0.93952603       2.09312719       1.63212290       0.00511065       0.00704555      -0.00156534
Si       1.85529618       4.88794941       3.39200653      -0.00511065       0.00704555       0.00156534
Si       2.09312719       0.93952603       5.06671634       0.00704555       0.00511065       0.00156534
Si       3.49651724       4.65011840       1.71729672      -0.00704555      -0.00511065       0.00156534
Si       3.73434825       0.70169502       0.04258691       0.00511065      -0.00704555       0.00156534
Si       4.65011840       3.49651724       4.98154252      -0.00511065      -0.00704555      -0.00156534
Si       4.88794941       1.85529618       3.30683271       0.00704555      -0.00511065      -0.00156534
