12
Lattice="5.409280787482745 -4.3316554055716316e-63 1.9273608623140945e-48 3.480785195495376e-63 5.409280787482745 2.3880301660171595e-15 -2.2133124302928844e-48 -2.7423286182195035e-15 6.211825008994575" Properties=species:S:1:pos:R:3:forces:R:3 cutoff=-1.0 nneightol=1.2 n_minim_iter=1 energy=-1954.044953610216 stress="-0.12653214539090815 5.187659456266245e-17 -3.668249309200495e-17 5.187659456266245e-17 -0.1265321453909079 -5.856655702862602e-18 -3.668249309200495e-17 -5.856655702862602e-18 -0.12009739996120128" free_energy=-1954.044953610216 pbc="T T T"
Si       0.49019796       0.49019796       0.00000000       0.00134918       0.00134918      -0.00000000
Si      -0.49019797      -0.49019797       3.10591250      -0.00134918      -0.00134918       0.00000000
Si       2.21444243       3.19483835       4.65886876      -0.00134918       0.00134918      -0.00000000
Si       3.19483835       2.21444243       1.55295625       0.00134918      -0.00134918      -0.00000000
Si       0.68811779       3.65126912       0.06707128      -0.02777745       0.03219012       0.12352478
Si       0.94662873       2.01652260       1.62002753       0.03219012       0.02777745       0.12352478
Si       1.75801166       4.72116299       3.03884123      -0.03219012       0.02777745      -0.12352478
Si       2.01652260       0.94662873       4.59179748       0.02777745       0.03219012      -0.12352478
Si       3.39275818       4.46265205       1.48588498      -0.02777745      -0.03219012      -0.12352478
Si       3.65126912       0.68811779      -0.06707128       0.03219012      -0.02777745      -0.12352478
Si       4.46265205       3.39275818       4.72594003      -0.03219012      -0.02777745       0.12352478
Si       4.72116299       1.75801166       3.17298378       0.02777745      -0.03219012       0.12352478
12
Lattice="5.425128596813771 -4.3418969427770167e-63 1.9392019359448818e-48 3.491306545518386e-63 5.425128596813771 2.4123413923161858e-15 -2.1933056469877886e-48 -2.7065386062901436e-15 6.175586224885597" Properties=species:S:1:pos:R:3:forces:R:3 cutoff=-1.0 nneightol=1.2 n_minim_iter=2 energy=-1954.048877808524 stress="-0.12237708282142216 -9.734914258838235e-19 -1.973706145811534e-17 -9.734914258838235e-19 -0.12237708282142193 -1.329439322922575e-16 -1.973706145811534e-17 -1.329439322922575e-16 -0.12359261264744616" free_energy=-1954.048877808524 pbc="T T T"
Si       0.49164427       0.49164427       0.00000000      -0.05966465      -0.05966465       0.00000000
Si      -0.49164427      -0.49164427       3.08779311       0.05966465       0.05966465       0.00000000
Si       2.22092002       3.20420857       4.63168967       0.05966465      -0.05966465      -0.00000000
Si       3.20420857       2.22092002       1.54389656      -0.05966465       0.05966465       0.00000000
Si       0.68992475       3.66220867       0.06760150      -0.04367592       0.10746227       0.13621069
Si       0.94964437       2.02263954       1.61149806       0.10746227       0.04367592       0.13621069
Si       1.76291993       4.73520384       3.02019161      -0.10746227       0.04367592      -0.13621069
Si       2.02263954       0.94964437       4.56408817       0.04367592       0.10746227      -0.13621069
Si       3.40248905       4.47548422       1.47629506      -0.04367592      -0.10746227      -0.13621069
Si       3.66220867       0.68992475      -0.06760150       0.10746227      -0.04367592      -0.13621069
Si       4.47548422       3.40248905       4.69929117      -0.10746227      -0.04367592       0.13621069
Si       4.73520384       1.76291993       3.15539461       0.04367592      -0.10746227       0.13621069
12
Lattice="5.440014310821316 -4.3686169858776875e-63 1.9509811931788756e-48 3.490767218113568e-63 5.440014310821316 2.413249788416744e-15 -2.173810321721078e-48 -2.6980112679890733e-15 6.141835491116883" Properties=species:S:1:pos:R:3:forces:R:3 cutoff=-1.0 nneightol=1.2 n_minim_iter=3 energy=-1954.058699136696 stress="-0.11890675942360829 1.9641621122244427e-17 -1.2296055671935634e-16 1.9641621122244427e-17 -0.11890675942360786 4.413006372156862e-17 -1.2296055671935634e-16 4.413006372156862e-17 -0.11886020397614794" free_energy=-1954.058699136696 pbc="T T T"
Si       0.48927261       0.48927261       0.00000000       0.09090669       0.09090669       0.00000000
Si      -0.48927261      -0.48927261       3.07091775      -0.09090669      -0.09090669       0.00000000
Si       2.23073454       3.20927976       4.60637662      -0.09090669       0.09090669      -0.00000000
Si       3.20927976       2.23073454       1.53545887       0.09090669      -0.09090669      -0.00000000
Si       0.68855070       3.67961261       0.07786123       0.01198291       0.00634527       0.03255688
Si       0.95960545       2.03145645       1.61332011       0.00634527      -0.01198291       0.03255688
Si       1.76040170       4.75146361       2.99305651      -0.00634527      -0.01198291      -0.03255688
Si       2.03145645       0.95960545       4.52851539      -0.01198291       0.00634527      -0.03255688
Si       3.40855785       4.48040885       1.45759764       0.01198291      -0.00634527      -0.03255688
Si       3.67961261       0.68855070      -0.07786123       0.00634527       0.01198291      -0.03255688
Si       4.48040885       3.40855785       4.68423785      -0.00634527       0.01198291       0.03255688
Si       4.75146361       1.76040170       3.14877898      -0.01198291      -0.00634527       0.03255688
12
Lattice="5.444971728440924 -4.0447680391918795e-63 1.9621674064917415e-48 3.572659060632598e-63 5.444971728440924 2.417943905570238e-15 -2.1589780739783787e-48 -2.690224720010117e-15 6.130656816791585" Properties=species:S:1:pos:R:3:forces:R:3 cutoff=-1.0 nneightol=1.2 n_minim_iter=4 energy=-1954.064217795161 stress="-0.11540898133015437 2.4423181949379918e-17 -6.217985602161229e-16 2.4423181949379918e-17 -0.11540898133015312 3.972657466704809e-17 -6.217985602161229e-16 3.972657466704809e-17 -0.11766868400267015" free_energy=-1954.064217795161 pbc="T T T"
Si       0.50032462       0.50032462       0.00000000       0.00116356       0.00116356       0.00000000
Si      -0.50032463      -0.50032463       3.06532841      -0.00116356      -0.00116356       0.00000000
Si       2.22216124       3.22281049       4.59799261      -0.00116356       0.00116356       0.00000000
Si       3.22281049       2.22216124       1.53266420       0.00116356      -0.00116356      -0.00000000
Si       0.68870160       3.68901385       0.08940102      -0.00689139       0.02431480      -0.00600510
Si       0.96652799       2.03378426       1.62206523       0.02431480       0.00689139      -0.00600510
Si       1.75595787       4.75627013       2.97592739      -0.02431480       0.00689139       0.00600510
Si       2.03378426       0.96652799       4.50859159       0.00689139       0.02431480       0.00600510
Si       3.41118746       4.47844374       1.44326318      -0.00689139      -0.02431480       0.00600510
Si       3.68901385       0.68870160      -0.08940102       0.02431480      -0.00689139       0.00600510
Si       4.47844374       3.41118746       4.68739363      -0.02431480      -0.00689139      -0.00600510
Si       4.75627013       1.75595787       3.15472943       0.00689139      -0.02431480      -0.00600510
12
Lattice="5.43957734213676 -4.069024058359427e-63 1.9625241186893403e-48 4.0222770142311624e-63 5.43957734213676 2.407389401636048e-15 -2.160749961192931e-48 -2.7049591983196208e-15 6.142822294834436" Properties=species:S:1:pos:R:3:forces:R:3 cutoff=-1.0 nneightol=1.2 n_minim_iter=5 energy=-1954.064698352029 stress="-0.11658627173038162 1.1921452353642123e-16 -6.318675156505099e-16 1.1921452353642123e-16 -0.11658627173038069 2.2315543907661104e-16 -6.318675156505099e-16 2.2315543907661104e-16 -0.11688119026100621" free_energy=-1954.064698352029 pbc="T T T"
Si       0.50099296       0.50099296       0.00000000       0.00278907       0.00278907       0.00000000
Si      -0.50099296      -0.50099296       3.07141115      -0.00278907      -0.00278907       0.00000000
Si       2.21879571       3.22078163       4.60711672      -0.00278907       0.00278907       0.00000000
Si       3.22078163       2.21879571       1.53570557       0.00278907      -0.00278907      -0.00000000
Si       0.68816648       3.68540103       0.08948462      -0.00736648       0.00839763      -0.00610487
Si       0.96561236       2.03162218       1.62519020       0.00839763       0.00736648      -0.00610487
Si       1.75417631       4.75141085       2.98192652      -0.00839763       0.00736648       0.00610487
Si       2.03162218       0.96561236       4.51763210       0.00736648       0.00839763       0.00610487
Si       3.40795515       4.47396498       1.44622095      -0.00736648      -0.00839763       0.00610487
Si       3.68540103       0.68816648      -0.08948462       0.00839763      -0.00736648       0.00610487
Si       4.47396498       3.40795515       4.69660135      -0.00839763      -0.00736648      -0.00610487
Si       4.75141085       1.75417631       3.16089577       0.00736648      -0.00839763      -0.00610487
12
Lattice="5.4386360235649835 -3.6197776892087583e-63 1.9648864287429674e-48 4.050404346574625e-63 5.4386360235649835 2.4058693596736458e-15 -2.158421010168729e-48 -2.7071618901164793e-15 6.144948876973298" Properties=species:S:1:pos:R:3:forces:R:3 cutoff=-1.0 nneightol=1.2 n_minim_iter=6 energy=-1954.064726147672 stress="-0.11680486975063624 -2.638925286832115e-17 -8.5956429695466255e-16 -2.638925286832115e-17 -0.11680486975063506 3.130571729618462e-16 -8.5956429695466255e-16 3.130571729618462e-16 -0.11674751317047398" free_energy=-1954.064726147672 pbc="T T T"
Si       0.50119011       0.50119011       0.00000000       0.00248817       0.00248817       0.00000000
Si      -0.50119012      -0.50119012       3.07247444      -0.00248817      -0.00248817       0.00000000
Si       2.21812790       3.22050812       4.60871166      -0.00248817       0.00248817       0.00000000
Si       3.22050812       2.21812790       1.53623722       0.00248817      -0.00248817      -0.00000000
Si       0.68797030       3.68485284       0.08940834      -0.00733838       0.00516702      -0.00539526
Si       0.96553483       2.03134770       1.62564556       0.00516702       0.00733838      -0.00539526
Si       1.75378318       4.75066572       2.98306610      -0.00516702       0.00733838       0.00539526
Si       2.03134770       0.96553483       4.51930332       0.00733838       0.00516702       0.00539526
Si       3.40728831       4.47310119       1.44682888      -0.00733838      -0.00516702       0.00539526
Si       3.68485284       0.68797030      -0.08940834       0.00516702      -0.00733838       0.00539526
Si       4.47310119       3.40728831       4.69811999      -0.00516702      -0.00733838      -0.00539526
Si       4.75066572       1.75378318       3.16188278       0.00733838      -0.00516702      -0.00539526
12
Lattice="5.437624873694114 -4.181752309280551e-63 1.9688603042390716e-48 5.856378389110412e-63 5.437624873694114 2.3823215974853896e-15 -2.154272928712682e-48 -2.7346780015317936e-15 6.147234449118502" Properties=species:S:1:pos:R:3:forces:R:3 cutoff=-1.0 nneightol=1.2 n_minim_iter=7 energy=-1954.064767636443 stress="-0.11709792745987885 -6.514757326551976e-17 -8.979885761763151e-16 -6.514757326551976e-17 -0.11709792745987752 3.3815469882161316e-16 -8.979885761763151e-16 3.3815469882161316e-16 -0.11655457671494823" free_energy=-1954.064767636443 pbc="T T T"
Si       0.50173652       0.50173652       0.00000000       0.00129699       0.00129699       0.00000000
Si      -0.50173652      -0.50173652       3.07361722      -0.00129699      -0.00129699       0.00000000
Si       2.21707591       3.22054896       4.61042584      -0.00129699       0.00129699      -0.00000000
Si       3.22054896       2.21707591       1.53680861       0.00129699      -0.00129699      -0.00000000
Si       0.68725605       3.68469027       0.08902222      -0.00605977      -0.00164881      -0.00254752
Si       0.96587783       2.03155638       1.62583083      -0.00164881       0.00605977      -0.00254752
Si       1.75293460       4.75036882       2.98459501       0.00164881       0.00605977       0.00254752
Si       2.03155638       0.96587783       4.52140362       0.00605977      -0.00164881       0.00254752
Si       3.40606849       4.47174704       1.44778639      -0.00605977       0.00164881       0.00254752
Si       3.68469027       0.68725605      -0.08902222      -0.00164881      -0.00605977       0.00254752
Si       4.47174704       3.40606849       4.69944806       0.00164881      -0.00605977      -0.00254752
Si       4.75036882       1.75293460       3.16263944       0.00605977       0.00164881      -0.00254752
