12
Lattice="5.485721107127805 -5.09540210314758e-63 1.9203861862946772e-48 9.831980078550104e-63 5.485721107127805 2.4632499233555602e-15 -2.2001579443032028e-48 -3.0671124251598155e-15 6.405970284261918" Properties=species:S:1:pos:R:3:forces:R:3 cutoff=-1.0 nneightol=1.2 n_minim_iter=6 energy=-1955.083653844777 stress="-0.07217778381520458 -4.7742391899406143e-17 2.909716788365462e-17 -4.7742391899406143e-17 -0.0721777838152042 7.138675956830442e-17 2.909716788365462e-17 7.138675956830442e-17 -0.07183974980771639" free_energy=-1955.083653844777 pbc="T T T"
Si       0.48716701       0.48716701       0.00000000       0.00533904       0.00533904       0.00000000
Si      -0.48716701      -0.48716701       3.20298514      -0.00533904      -0.00533904       0.00000000
Si       2.25569354       3.23002756       4.80447771      -0.00533904       0.00533904      -0.00000000
Si       3.23002756       2.25569354       1.60149257       0.00533904      -0.00533904       0.00000000
Si       0.69714763       3.68952587       0.03818482      -0.00628262       0.00031384      -0.00045684
Si       0.94666532       2.04571292       1.63967739       0.00031384       0.00628262      -0.00045684
Si       1.79619523       4.78857347       3.16480032      -0.00031384       0.00628262       0.00045684
Si       2.04571292       0.94666532       4.76629289       0.00628262       0.00031384       0.00045684
Si       3.44000819       4.53905579       1.56330775      -0.00628262      -0.00031384       0.00045684
Si       3.68952587       0.69714763      -0.03818482       0.00031384      -0.00628262       0.00045684
Si       4.53905579       3.44000819       4.84266254      -0.00031384      -0.00628262      -0.00045684
Si       4.78857347       1.79619523       3.24116996       0.00628262      -0.00031384      -0.00045684
