12
Lattice="5.907308259847406 -4.77917776698361e-63 2.0165262927730303e-48 2.5169751630962714e-63 5.907308259847403 2.6946704778398334e-15 -2.4803132946076632e-48 -3.216471376910919e-15 7.260439110365283" Properties=species:S:1:pos:R:3:forces:R:3 cutoff=-1.0 nneightol=1.2 n_minim_iter=7 energy=-1954.880806306229 stress="0.06503151976986345 -3.25154850362826e-17 2.4402019092295383e-16 -3.25154850362826e-17 0.06503151976986295 -1.8396176818228803e-16 2.4402019092295383e-16 -1.8396176818228803e-16 0.06503538571253542" free_energy=-1954.880806306229 pbc="T T T"
Si       0.44782885       0.44782885       0.00000000      -0.00180417      -0.00180417      -0.00000000
Si      -0.44782885      -0.44782885       3.63021956       0.00180417       0.00180417      -0.00000000
Si       2.50582528       3.40148298       5.44532933       0.00180417      -0.00180417      -0.00000000
Si       3.40148298       2.50582528       1.81510978      -0.00180417       0.00180417       0.00000000
Si       0.76047621       3.91556865      -0.17539192       0.00424671      -0.00092735       0.00173273
Si       0.96191452       2.19317792       1.63971786      -0.00092735      -0.00424671       0.00173273
Si       1.99173960       5.14683205       3.80561148       0.00092735      -0.00424671      -0.00173273
Si       2.19317792       0.96191452       5.62072125      -0.00424671      -0.00092735      -0.00173273
Si       3.71413034       4.94539373       1.99050170       0.00424671       0.00092735      -0.00173273
Si       3.91556865       0.76047621       0.17539192      -0.00092735       0.00424671      -0.00173273
Si       4.94539373       3.71413034       5.26993741       0.00092735       0.00424671       0.00173273
Si       5.14683205       1.99173960       3.45482764      -0.00424671       0.00092735       0.00173273
