12
Lattice="5.409280787482745 -4.3316554055716326e-63 1.927360862314094e-48 4.25058270461749e-63 5.409280787482745 2.38803016601716e-15 -2.1351940832516234e-48 -2.837078206519911e-15 6.211825008994574" Properties=species:S:1:pos:R:3:forces:R:3 cutoff=-1.0 nneightol=1.2 n_minim_iter=7 energy=-1954.635857435051 stress="-0.09101973096825589 -2.9767700404718583e-16 1.3728713360763379e-16 -2.9767700404718583e-16 -0.09101973096825619 -8.683420936570964e-17 1.3728713360763379e-16 -8.683420936570964e-17 -0.09127048732108099" free_energy=-1954.635857435051 pbc="T T T"
Si       0.49019796       0.49019796       0.00000000       0.00141322       0.00141322       0.00000000
Si      -0.49019797      -0.49019797       3.10591250      -0.00141322      -0.00141322      -0.00000000
Si       2.21444243       3.19483835       4.65886876      -0.00141322       0.00141322      -0.00000000
Si       3.19483835       2.21444243       1.55295625       0.00141322      -0.00141322       0.00000000
Si       0.68811779       3.65126912       0.06707128      -0.00648522       0.00399583      -0.00583805
Si       0.94662873       2.01652260       1.62002753       0.00399583       0.00648522      -0.00583805
Si       1.75801166       4.72116299       3.03884123      -0.00399583       0.00648522       0.00583805
Si       2.01652260       0.94662873       4.59179748       0.00648522       0.00399583       0.00583805
Si       3.39275818       4.46265205       1.48588498      -0.00648522      -0.00399583       0.00583805
Si       3.65126912       0.68811779      -0.06707128       0.00399583      -0.00648522       0.00583805
Si       4.46265205       3.39275818       4.72594003      -0.00399583      -0.00648522      -0.00583805
Si       4.72116299       1.75801166       3.17298378       0.00648522      -0.00399583      -0.00583805
