12
Lattice="5.835988236796588 -4.268354219379116e-63 1.993996560810941e-48 6.456443734066884e-63 5.835988236796589 2.6290105113709913e-15 -2.433613544958777e-48 -3.2727034534068436e-15 7.115545252699655" Properties=species:S:1:pos:R:3:forces:R:3 cutoff=-1.0 nneightol=1.2 n_minim_iter=7 energy=-1955.499475041815 stress="0.046541438869980446 1.2238433569153505e-17 2.030713851431468e-16 1.2238433569153505e-17 0.04654143886998069 -6.718111864690815e-17 2.030713851431468e-16 -6.718111864690815e-17 0.04661182157214087" free_energy=-1955.499475041815 pbc="T T T"
Si       0.45315167       0.45315167       0.00000000       0.00059218       0.00059218       0.00000000
Si      -0.45315168      -0.45315168       3.55777263      -0.00059218      -0.00059218       0.00000000
Si       2.46484244       3.37114579       5.33665894      -0.00059218       0.00059218      -0.00000000
Si       3.37114579       2.46484244       1.77888631       0.00059218      -0.00059218       0.00000000
Si       0.74481010       3.87665104      -0.14026433       0.00173537      -0.00722163       0.00074671
Si       0.95865692       2.17318401       1.63862198      -0.00722163      -0.00173537       0.00074671
Si       1.95933719       5.09117813       3.69803696       0.00722163      -0.00173537      -0.00074671
Si       2.17318401       0.95865692       5.47692327      -0.00173537      -0.00722163      -0.00074671
Si       3.66280422       4.87733131       1.91915064       0.00173537       0.00722163      -0.00074671
Si       3.87665104       0.74481010       0.14026433      -0.00722163       0.00173537      -0.00074671
Si       4.87733131       3.66280422       5.19639461       0.00722163       0.00173537       0.00074671
Si       5.09117813       1.95933719       3.41750830      -0.00173537       0.00722163       0.00074671
