12
Lattice="5.872457838062591 -3.430286189390122e-63 2.0053918291132906e-48 3.423322943591521e-63 5.872457838062591 2.640104338108706e-15 -2.4569522072461517e-48 -3.2441966730344662e-15 7.187155200228301" Properties=species:S:1:pos:R:3:forces:R:3 cutoff=-1.0 nneightol=1.2 n_minim_iter=7 energy=-1955.215647285039 stress="0.05635715192029091 3.0171107990654185e-16 -3.279396748761474e-16 3.0171107990654185e-16 0.056357151920290914 2.1151577225908277e-16 -3.279396748761474e-16 2.1151577225908277e-16 0.056356564264593345" free_energy=-1955.215647285039 pbc="T T T"
Si       0.45056927       0.45056927       0.00000000      -0.00178444      -0.00178444      -0.00000000
Si      -0.45056928      -0.45056928       3.59357760       0.00178444       0.00178444       0.00000000
Si       2.48565964       3.38679819       5.39036640       0.00178444      -0.00178444       0.00000000
Si       3.38679819       2.48565964       1.79678880      -0.00178444       0.00178444      -0.00000000
Si       0.75263896       3.89645349      -0.15738108       0.00431089      -0.00089744       0.00169841
Si       0.96022457       2.18358996       1.63940772      -0.00089744      -0.00431089       0.00169841
Si       1.97600435       5.11981888       3.75095868       0.00089744      -0.00431089      -0.00169841
Si       2.18358996       0.96022457       5.54774748      -0.00431089      -0.00089744      -0.00169841
Si       3.68886788       4.91223326       1.95416988       0.00431089       0.00089744      -0.00169841
Si       3.89645349       0.75263896       0.15738108      -0.00089744       0.00431089      -0.00169841
Si       4.91223326       3.68886788       5.23298532       0.00089744       0.00431089       0.00169841
Si       5.11981888       1.97600435       3.43619652      -0.00431089       0.00089744       0.00169841
