12
Lattice="5.62951312915664 -8.242238923282692e-63 1.9291787573488936e-48 1.083182565339421e-62 5.629513129156643 2.5819326417219726e-15 -2.3166549502833215e-48 -3.0643812356342924e-15 6.778088867045481" Properties=species:S:1:pos:R:3:forces:R:3 cutoff=-1.0 nneightol=1.2 n_minim_iter=7 energy=-1955.995247048001 stress="-0.012855669532900184 -1.5789245380455865e-16 6.349535422030744e-17 -1.5789245380455865e-16 -0.012855669532900333 1.1085781996233962e-16 6.349535422030744e-17 1.1085781996233962e-16 -0.012737652610578382" free_energy=-1955.995247048001 pbc="T T T"
Si       0.46375586       0.46375586       0.00000000       0.00345603       0.00345603       0.00000000
Si      -0.46375587      -0.46375587       3.38904443      -0.00345603      -0.00345603      -0.00000000
Si       2.35100070       3.27851243       5.08356665      -0.00345603       0.00345603       0.00000000
Si       3.27851243       2.35100070       1.69452222       0.00345603      -0.00345603      -0.00000000
Si       0.70570682       3.75572165      -0.06373202      -0.00373425      -0.00039267      -0.00155490
Si       0.94096508       2.10904974       1.63079020      -0.00039267       0.00373425      -0.00155490
Si       1.87379147       4.92380630       3.45277645       0.00039267       0.00373425       0.00155490
Si       2.10904974       0.94096508       5.14729867       0.00373425      -0.00039267       0.00155490
Si       3.52046338       4.68854804       1.75825423      -0.00373425       0.00039267       0.00155490
Si       3.75572165       0.70570682       0.06373202      -0.00039267      -0.00373425       0.00155490
Si       4.68854804       3.52046338       5.01983463       0.00039267      -0.00373425      -0.00155490
Si       4.92380630       1.87379147       3.32531242       0.00373425       0.00039267      -0.00155490
