12
Lattice="5.3821350337483205 -4.1390783897430876e-63 1.9487684910493853e-48 5.796615255936981e-63 5.3821350337483205 2.35801049710342e-15 -2.132289017944558e-48 -2.706771176744671e-15 6.084503189862083" Properties=species:S:1:pos:R:3:forces:R:3 cutoff=-1.0 nneightol=1.2 n_minim_iter=7 energy=-1954.064767636443 stress="-0.11709792745987885 -6.514757326551976e-17 -8.979885761763151e-16 -6.514757326551976e-17 -0.11709792745987752 3.3815469882161316e-16 -8.979885761763151e-16 3.3815469882161316e-16 -0.11655457671494823" free_energy=-1954.064767636443 pbc="T T T"
Si       0.49661640       0.49661640       0.00000000       0.00129699       0.00129699       0.00000000
Si      -0.49661641      -0.49661641       3.04225159      -0.00129699      -0.00129699       0.00000000
Si       2.19445111       3.18768392       4.56337739      -0.00129699       0.00129699      -0.00000000
Si       3.18768392       2.19445111       1.52112580       0.00129699      -0.00129699      -0.00000000
Si       0.68024275       3.64708876       0.08811376      -0.00605977      -0.00164881      -0.00254752
Si       0.95602125       2.01082477       1.60923956      -0.00164881       0.00605977      -0.00254752
Si       1.73504627       4.70189228       2.95413783       0.00164881       0.00605977       0.00254752
Si       2.01082477       0.95602125       4.47526363       0.00605977      -0.00164881       0.00254752
Si       3.37131026       4.42611378       1.43301203      -0.00605977       0.00164881       0.00254752
Si       3.64708876       0.68024275      -0.08811376      -0.00164881      -0.00605977       0.00254752
Si       4.42611378       3.37131026       4.65149116       0.00164881      -0.00605977      -0.00254752
Si       4.70189228       1.73504627       3.13036536       0.00605977       0.00164881      -0.00254752
