2
Lattice="2.6812233801263856 -8.526981736133353e-16 4.568713538158938e-41 -1.3406116900631921 2.322007560410231 2.3162304212879817e-25 -2.0709193278543352e-40 -4.236330936515324e-25 4.246897188026054" Properties=species:S:1:pos:R:3 n_minim_iter=1 energy=-3186.7582006997513 free_energy=-3186.7582006997513 pbc="T T T"
Ti       0.00000000       0.00000000       0.00000000
Ti       0.00000000       1.54800504       2.12344859
2
Lattice="2.656863057228463 -8.245156734097053e-16 4.925309039983799e-41 -1.3284315286142307 2.3009109019362386 2.295186251157739e-25 -2.086800115116018e-40 -4.314371461354772e-25 4.325132361448402" Properties=species:S:1:pos:R:3 n_minim_iter=2 stress="-0.2254668947559577 -1.8021207191240174e-16 4.0994576914910057e-16 -1.8021207191240174e-16 -0.2254668947559583 3.2869992657484715e-17 4.0994576914910057e-16 3.2869992657484715e-17 -0.22567178338704255" pbc="T T T"
Ti       0.00000000      -0.00000000      -0.00000000
Ti       0.00000000       1.53394060       2.16256618
