2
Lattice="2.7343306622793984 -8.695876587763759e-16 4.659206542488874e-41 -1.3671653311396985 2.367999815880688 2.3621082483375647e-25 -2.7397097840589798e-40 -4.320240402621969e-25 4.331015941021825" Properties=species:S:1:pos:R:3 n_minim_iter=1 stress="-0.10221360852602597 -8.427511214157938e-16 4.3846714606174167e-16 -8.427511214157938e-16 -0.10221360852602702 -3.1187811188607215e-16 4.3846714606174167e-16 -3.1187811188607215e-16 -0.10166580936163007" pbc="T T T"
Ti       0.00000000       0.00000000       0.00000000
Ti       0.00000000       1.57866654       2.16550797
