2
Lattice="3.037913684943782 -9.661348882555306e-16 5.17650169808185e-41 -1.5189568424718902 2.6309104256657108 2.624364738301733e-25 -2.3464192551560985e-40 -4.799901351518119e-25 4.811873259677996" Properties=species:S:1:pos:R:3 n_minim_iter=1 stress="0.09012921719717021 2.7232910726019185e-16 -1.60612204299023e-17 2.7232910726019185e-16 0.09012921719716932 3.82130514944836e-17 -1.60612204299023e-17 3.82130514944836e-17 0.09613789905107284" pbc="T T T"
Ti       0.00000000       0.00000000       0.00000000
Ti       0.00000000       1.75394028       2.40593663
