2
Lattice="2.905659909249967 -9.240747772541607e-16 4.951145757967497e-41 -1.4528299546249825 2.5163752961684582 2.5101145714328443e-25 -2.5778226798132767e-40 -4.590940484775177e-25 4.6023912029933305" Properties=species:S:1:pos:R:3 n_minim_iter=1 stress="0.033697834624832446 -2.0023210133706665e-16 4.471038354693219e-16 -2.0023210133706665e-16 0.03369783462483266 1.7126114402190119e-16 4.471038354693219e-16 1.7126114402190119e-16 0.033036363269052814" pbc="T T T"
Ti       0.00000000       0.00000000       0.00000000
Ti       0.00000000       1.67758353       2.30119560
