22
Lattice="5.777513516597098 -0.4979790197611494 -1.1408511462975695 -2.1631718739261014 9.703606973690665 -1.1319969953354012 -4.131238541556399 -3.632493692400255 11.12757685542027" Properties=species:S:1:pos:R:3 unique_starting_index=18 config_type=initial n_minim_iter=1 energy=-3571.490659967588 free_energy=-3571.490659967588 pbc="T T T"
Si       0.87969122       8.08829290       0.47336574
Si      -0.27119211       0.57568239       6.19243378
Si      -3.82225039      -2.68979489      10.12381416
Si       0.67999934      -1.45550910       9.40187281
Si      -4.57080467       0.95996580       9.67261130
Si       3.92668531       2.25158408       0.48710457
Si       2.65908505       0.24500978       0.34679751
Si      -1.41096615       1.61643096       8.82075952
Si      -1.14075437      -2.53723291       9.54467881
Si      -2.60807747       1.64620275       6.71549558
Si       2.52486138       0.38448806       3.53355920
Si      -2.25590302       4.11810528       5.89272375
Si      -2.51610754      -0.91184597       6.38715789
Si      -0.70408311       6.55750006      -0.38084306
Si       1.69479789       2.58735928       5.06265314
Si       1.37721898       6.43027182      -0.76800337
Si      -0.28157197      -0.76679160       3.01461163
Si       2.92617821      -3.22062439       6.75290882
Si       0.78535163       2.28132759       3.17829116
Si      -2.52332986       3.41307748       7.89064243
Si      -1.28983503       3.94501653       3.43917271
Si      -1.13265506      -0.61421720       8.32690662
22
Lattice="5.766881163347031 -0.5000568053142086 -1.1383446703022346 -2.164193376706253 9.687502825532585 -1.1301409144826018 -4.119588207214898 -3.623019632443721 11.112876205175287" Properties=species:S:1:pos:R:3 unique_starting_index=18 config_type=initial n_minim_iter=2 stress="-0.008993586704164544 -0.0005860071887675327 0.001105135202443419 -0.0005860071887675327 -0.0014967668446493278 -7.8750587779995e-05 0.001105135202443419 -7.8750587779995e-05 -0.0009510888507557584" pbc="T T T"
Si       0.87434870       8.07381823       0.47346197
Si      -0.26952876       0.57528768       6.18490654
Si      -3.81170276      -2.68217397      10.11074688
Si       0.68144042      -1.45221011       9.39074978
Si      -4.56084441       0.96161163       9.66019484
Si       3.91848652       2.24535308       0.48723630
Si       2.65416570       0.24355504       0.34669863
Si      -1.40745007       1.61548566       8.81008050
Si      -1.13559013      -2.53136483       9.53280901
Si      -2.60263975       1.64559571       6.70646851
Si       2.52063492       0.38286850       3.52990464
Si      -2.25263806       4.11212866       5.88602724
Si      -2.50970508      -0.90842443       6.37860973
Si      -0.70639246       6.54582925      -0.38003322
Si       1.69154379       2.58228656       5.05746240
Si       1.37113971       6.41837335      -0.76626761
Si      -0.28013783      -0.76493703       3.01073746
Si       2.92388424      -3.21595016       6.74508119
Si       0.78283304       2.27718456       3.17428950
Si      -2.51833321       3.40932304       7.88053119
Si      -1.28861170       3.93899557       3.43532229
Si      -1.12868302      -0.61192280       8.31670986
22
Lattice="5.778370826522339 -0.5051501404268578 -1.1363771143540946 -2.1796587615152965 9.641931423729334 -1.121509430856829 -4.126134748285639 -3.5954838663994066 11.073901741407191" Properties=species:S:1:pos:R:3 unique_starting_index=18 config_type=initial n_minim_iter=3 stress="0.009187952712256376 0.0057406697261224715 0.001963927148198481 0.0057406697261224715 -0.014111010893596653 0.004096472504192711 0.001963927148198481 0.004096472504192711 -0.029434470056626763" pbc="T T T"
Si       0.86725077       8.03512856       0.47292270
Si      -0.27077891       0.57437544       6.16355401
Si      -3.81729483      -2.65955262      10.07804333
Si       0.68538634      -1.43842905       9.35983448
Si      -4.57284300       0.96800171       9.62996242
Si       3.92323527       2.22609066       0.48253290
Si       2.65878706       0.24135179       0.34316293
Si      -1.41545569       1.61643040       8.78211859
Si      -1.14160687      -2.51563526       9.50036435
Si      -2.60936540       1.64419986       6.67945598
Si       2.52276825       0.37900571       3.51784984
Si      -2.26169709       4.09506049       5.87114865
Si      -2.51495685      -0.89852932       6.35491798
Si      -0.72091980       6.51018931      -0.37651335
Si       1.68732559       2.56812179       5.04376058
Si       1.36670291       6.38537423      -0.76311653
Si      -0.28129991      -0.75879287       2.99926204
Si       2.93244179      -3.20265648       6.72016084
Si       0.77486747       2.26590152       3.15905710
Si      -2.52551774       3.40216685       7.85438158
Si      -1.29597194       3.92218828       3.42739177
Si      -1.13355331      -0.60533035       8.28983679
22
Lattice="5.744392233362196 -0.5695080413324476 -1.162742183400972 -2.283111382087571 9.546718362714946 -1.1470410235815016 -4.078746355969261 -3.5186855453105506 11.209562834758982" Properties=species:S:1:pos:R:3 unique_starting_index=18 config_type=initial n_minim_iter=4 stress="0.013959995760626953 -0.00995813968215717 0.009113943173783513 -0.00995813968215717 -0.012958167958635887 0.01595289294281539 0.009113943173783513 0.01595289294281539 -0.006085716263076051" pbc="T T T"
Si       0.76344948       7.93142717       0.45039931
Si      -0.28220820       0.55271139       6.22780351
Si      -3.77494120      -2.59416323      10.21391499
Si       0.68902575      -1.43163608       9.47508108
Si      -4.57369594       1.00226957       9.75098234
Si       3.86715696       2.12765693       0.45790105
Si       2.63482193       0.21303548       0.33559666
Si      -1.45297081       1.61474681       8.88478408
Si      -1.14219117      -2.49341542       9.61196099
Si      -2.61621776       1.64301876       6.72461701
Si       2.48487386       0.33334288       3.55249337
Si      -2.30190826       4.05015680       5.94189206
Si      -2.50040714      -0.86949896       6.42065918
Si      -0.81998895       6.41414242      -0.39651305
Si       1.61455045       2.49715292       5.10552729
Si       1.27597362       6.28859460      -0.79772262
Si      -0.28097930      -0.74716379       3.02929630
Si       2.94086423      -3.22115923       6.79474257
Si       0.70192710       2.21860966       3.15974921
Si      -2.55002667       3.39155517       7.94153026
Si      -1.34057020       3.87873616       3.47015845
Si      -1.14437253      -0.60637450       8.39323224
22
Lattice="5.6710686687372185 -0.5587364720378387 -1.2214599534221322 -2.2555923176028627 9.496739663115212 -1.2747726531277501 -4.127141724611891 -3.6509732433391564 11.36371845998633" Properties=species:S:1:pos:R:3 unique_starting_index=18 config_type=initial n_minim_iter=5 stress="0.006320406892127693 0.011493364418956386 0.003934558083782994 0.011493364418956386 -0.03410181191739785 -0.012724913145792827 0.003934558083782994 -0.012724913145792827 0.010385843647783508" pbc="T T T"
Si       0.73867093       7.87777310       0.31175463
Si      -0.33217808       0.45067246       6.25271485
Si      -3.81188165      -2.71609223      10.36087964
Si       0.60044797      -1.54849870       9.55601164
Si      -4.60469299       0.87073660       9.84110914
Si       3.80438747       2.07747089       0.36944983
Si       2.59038067       0.21101257       0.30293186
Si      -1.53208389       1.49537373       8.93047733
Si      -1.23936757      -2.62204846       9.71289694
Si      -2.63895447       1.54360961       6.72915983
Si       2.40430129       0.27133658       3.54382639
Si      -2.32313569       3.92780725       5.94427170
Si      -2.52669350      -0.95575575       6.48122868
Si      -0.83689062       6.34966713      -0.49361694
Si       1.51433054       2.38809276       5.09189503
Si       1.24708497       6.25461317      -0.92192855
Si      -0.31063627      -0.78089715       3.05438535
Si       2.84039855      -3.31417110       6.85246167
Si       0.62319369       2.15269117       3.11028991
Si      -2.57778611       3.26768874       7.96016855
Si      -1.35897093       3.79816057       3.45494154
Si      -1.21927774      -0.73199006       8.47048140
22
Lattice="5.577382954268579 -0.6001413542124092 -1.2869593848741778 -2.2716931778836114 9.641935632899175 -1.310144702709112 -4.169306730717275 -3.7487908936879872 11.360660387649826" Properties=species:S:1:pos:R:3 unique_starting_index=18 config_type=initial n_minim_iter=6 stress="-0.00974241697029787 0.00861586537537353 0.0044661211240743645 0.00861586537537353 -0.02011775098021538 -0.00705136432712087 0.0044661211240743645 -0.00705136432712087 -0.016323550160720242" pbc="T T T"
Si       0.65968011       7.98664898       0.22466224
Si      -0.40231637       0.40550749       6.20221193
Si      -3.84609200      -2.79396176      10.37014319
Si       0.48326320      -1.63045651       9.50552288
Si      -4.65017883       0.85623149       9.82622733
Si       3.71123587       2.05036517       0.27800095
Si       2.53047179       0.20262860       0.25610033
Si      -1.64297114       1.48477116       8.87958508
Si      -1.34261736      -2.72321805       9.67893285
Si      -2.67658615       1.54094273       6.66453977
Si       2.29823964       0.22755581       3.48456256
Si      -2.37474740       3.94085898       5.91022655
Si      -2.55535991      -0.99951683       6.45952051
Si      -0.88601740       6.41410676      -0.53456280
Si       1.36897242       2.35615348       5.02375600
Si       1.17543778       6.33143967      -0.99568069
Si      -0.34399467      -0.80480721       3.03567682
Si       2.72464215      -3.43992824       6.79088147
Si       0.51831667       2.15077458       3.03812121
Si      -2.63663864       3.28536002       7.90733260
Si      -1.40530244       3.82733064       3.42915691
Si      -1.31141888      -0.80350301       8.44155155
22
Lattice="5.5439768070139275 -0.6748386456530514 -1.4048749034420864 -2.3496876208455437 9.731776642274612 -1.2893382888941074 -4.304569870406512 -3.7433841765837386 11.464609744324582" Properties=species:S:1:pos:R:3 unique_starting_index=18 config_type=initial n_minim_iter=7 stress="0.003537368635070396 -0.017449756328445858 -0.01325412073259231 -0.017449756328445858 -0.007899192492546822 -0.009307915133017488 -0.01325412073259231 -0.009307915133017488 -0.0050080031752266834" pbc="T T T"
Si       0.54315961       8.04343508       0.17557640
Si      -0.51962967       0.38969912       6.20898992
Si      -3.96923208      -2.77890416      10.47948561
Si       0.30068012      -1.66209985       9.52688080
Si      -4.80734642       0.89589320       9.92873646
Si       3.64278667       1.99558989       0.17588420
Si       2.48715679       0.17847791       0.19236000
Si      -1.83820870       1.52075586       8.92563055
Si      -1.49914178      -2.74318199       9.72028049
Si      -2.78615539       1.60176891       6.71178356
Si       2.18257281       0.18151708       3.42192098
Si      -2.50991040       3.97070614       5.95461063
Si      -2.64590823      -0.99607266       6.50538557
Si      -0.98089961       6.45018939      -0.52970092
Si       1.18679299       2.32678456       4.98859632
Si       1.09777708       6.35985695      -1.05273617
Si      -0.39693500      -0.80570922       3.04110656
Si       2.60682755      -3.52456643       6.75501611
Si       0.39206427       2.14695662       3.01549140
Si      -2.78879253       3.31142630       7.95825776
Si      -1.50789915       3.85676109       3.46321225
Si      -1.46778319      -0.82229627       8.49521215
22
Lattice="5.443063674126493 -0.6539412613201392 -1.4213996508499755 -2.2395975384811155 9.845910520752684 -1.1671205544378809 -4.267364942200699 -3.6817561210899363 11.48841327615345" Properties=species:S:1:pos:R:3 unique_starting_index=18 config_type=initial n_minim_iter=8 stress="-0.01511603784059162 -0.0033527253289287883 -0.013506252093739306 -0.0033527253289287883 0.011405661954628043 0.015077866629646284 -0.013506252093739306 0.015077866629646284 0.004563055174848503" pbc="T T T"
Si       0.59794089       8.19041316       0.26937753
Si      -0.50257869       0.47043481       6.25099462
Si      -3.92169539      -2.70508568      10.52218930
Si       0.27651208      -1.54000289       9.58623023
Si      -4.72510268       0.99327297      10.00517236
Si       3.60498250       2.05204076       0.19029119
Si       2.43877439       0.21319830       0.18646713
Si      -1.81380910       1.67988177       9.01571103
Si      -1.51202505      -2.66290552       9.75359624
Si      -2.71695511       1.73021158       6.77740398
Si       2.12874680       0.24105981       3.42283497
Si      -2.43789114       4.08185788       6.04818775
Si      -2.61527717      -0.95776735       6.52114592
Si      -0.93405671       6.52669412      -0.44250678
Si       1.15823118       2.43155754       5.04360807
Si       1.11785331       6.46882775      -0.97762539
Si      -0.40297992      -0.77303896       3.04514399
Si       2.53661667      -3.47023351       6.76118810
Si       0.37569706       2.22364771       3.06407150
Si      -2.70171101       3.44157014       8.06278554
Si      -1.45438884       3.95003056       3.54924187
Si      -1.46281011      -0.74044178       8.56100397
22
Lattice="5.398318863039948 -0.6520113733933832 -1.273565155838367 -2.2557091650447108 10.023873106842911 -1.2809620152354446 -3.984816133571518 -3.8214381319715653 11.382446239106157" Properties=species:S:1:pos:R:3 unique_starting_index=18 config_type=initial n_minim_iter=9 stress="0.014223468784358054 -0.013615467262270262 0.011919410562541321 -0.013615467262270262 0.027820760346939345 0.003848996364280169 0.011919410562541321 0.003848996364280169 0.009174523405315396" pbc="T T T"
Si       0.61922731       8.34123438       0.21845339
Si      -0.33828578       0.43120083       6.22120276
Si      -3.65311523      -2.81024236      10.43107609
Si       0.50746138      -1.61544049       9.60696430
Si      -4.47265469       0.92981093       9.86220866
Si       3.62109963       2.08382303       0.25853334
Si       2.42834346       0.21570904       0.24937581
Si      -1.60192321       1.68557357       8.95650926
Si      -1.27324124      -2.76097599       9.72182567
Si      -2.52157611       1.74433840       6.68807741
Si       2.19382960       0.21519720       3.45081615
Si      -2.28734682       4.09551575       5.95961858
Si      -2.45698506      -1.03435484       6.43774296
Si      -0.94502495       6.63523901      -0.50053378
Si       1.25866464       2.44504791       5.02811053
Si       1.08816125       6.60684052      -0.98690508
Si      -0.33274357      -0.79911025       3.02964312
Si       2.69210070      -3.57876771       6.83633008
Si       0.43392747       2.23961824       3.06361063
Si      -2.47203526       3.43046611       7.96806664
Si      -1.35848580       3.99418525       3.49405257
Si      -1.25916218      -0.82051267       8.53962465
22
Lattice="5.357349269602466 -0.6293880678657292 -1.2605407135854574 -2.203360945626353 10.027541187605605 -1.2746442672752762 -3.9562110282839433 -3.8374839279902906 11.330949793710465" Properties=species:S:1:pos:R:3 unique_starting_index=18 config_type=initial n_minim_iter=10 stress="0.013366208509427224 -0.007954129767442142 0.006746892929980912 -0.007954129767442142 0.030867993001276833 0.009473036515008838 0.006746892929980912 0.009473036515008838 0.011726566036002183" pbc="T T T"
Si       0.65581705       8.36433205       0.20433574
Si      -0.31451311       0.42610925       6.19217777
Si      -3.61534413      -2.81139287      10.39399011
Si       0.51420313      -1.59426384       9.58572529
Si      -4.42421620       0.90367938       9.82198791
Si       3.62155540       2.09756602       0.25166060
Si       2.40151994       0.22078567       0.26193344
Si      -1.58372806       1.72471827       8.93017529
Si      -1.26383140      -2.74993373       9.67155806
Si      -2.46742186       1.75139094       6.63879937
Si       2.17194158       0.21983304       3.43056115
Si      -2.25176025       4.07683946       5.94343047
Si      -2.43761266      -1.05815216       6.39884601
Si      -0.92930117       6.62979830      -0.49189372
Si       1.25258636       2.45560417       4.99279227
Si       1.10594816       6.63652948      -0.98567042
Si      -0.33227784      -0.79293278       3.01228296
Si       2.67376622      -3.57512756       6.81618906
Si       0.42535752       2.24217489       3.05679325
Si      -2.40376981       3.42367339       7.95312147
Si      -1.32415262       3.99422979       3.49108125
Si      -1.24772641      -0.83381926       8.52850404
22
Lattice="5.319971200926247 -0.6288705864397169 -1.2487026808853998 -2.199370005964198 10.037548596343703 -1.3223295220186855 -3.9159967767369093 -3.891220988871665 11.308888828177698" Properties=species:S:1:pos:R:3 unique_starting_index=18 config_type=initial n_minim_iter=11 stress="0.0009302372120300271 -0.007125264205389519 0.0032139363965230858 -0.007125264205389519 0.0164236737073164 0.0022231916070084346 0.0032139363965230858 0.0022231916070084346 0.004475350047443529" pbc="T T T"
Si       0.64890367       8.37134115       0.14787894
Si      -0.29923352       0.38796970       6.16432852
Si      -3.57168293      -2.84836771      10.37806681
Si       0.52227392      -1.63193916       9.57559569
Si      -4.38690262       0.84824136       9.78625886
Si       3.60877872       2.08660342       0.23082773
Si       2.37779503       0.21927639       0.25764832
Si      -1.57255211       1.70388337       8.90361595
Si      -1.25159146      -2.79110583       9.65318671
Si      -2.43281788       1.73161990       6.58627686
Si       2.14890762       0.19407238       3.41353047
Si      -2.23350403       4.04079141       5.89957275
Si      -2.41614666      -1.10069883       6.37350626
Si      -0.94500048       6.62345209      -0.52046556
Si       1.23550234       2.42180285       4.96183036
Si       1.09296837       6.65243335      -1.02247956
Si      -0.32962776      -0.80218011       3.00201559
Si       2.66955768      -3.61994831       6.81870361
Si       0.40332707       2.22184043       3.02830993
Si      -2.36721174       3.38717185       7.92072557
Si      -1.31238508       3.97652410       3.46714362
Si      -1.23694609      -0.88694568       8.52345787
22
Lattice="5.2963874128248 -0.6123010527228412 -1.2606451075744918 -2.1734749454241458 10.016873455887113 -1.3796673902416898 -3.9240625243502243 -3.9538513910994175 11.379220004940874" Properties=species:S:1:pos:R:3 unique_starting_index=18 config_type=initial n_minim_iter=12 stress="-0.025568798240752734 0.005626900159336632 0.004779757290313574 0.005626900159336632 0.0007790449812539085 -0.0015540278196507964 0.004779757290313574 -0.0015540278196507964 0.007897945052094549" pbc="T T T"
Si       0.66004431       8.36837693       0.08389023
Si      -0.29938460       0.34034984       6.17621222
Si      -3.56700853      -2.88280852      10.44524767
Si       0.50221267      -1.66983140       9.63123511
Si      -4.38543537       0.76608989       9.83602532
Si       3.61668377       2.08138431       0.19795657
Si       2.35407774       0.22007001       0.25274539
Si      -1.57742663       1.65692148       8.95136166
Si      -1.27156801      -2.82444716       9.70944382
Si      -2.42240038       1.70561612       6.57030700
Si       2.11712605       0.16920921       3.41780566
Si      -2.22904698       3.97851893       5.90778941
Si      -2.42022359      -1.15842378       6.40182863
Si      -0.95049812       6.59466148      -0.54976419
Si       1.22518147       2.36729372       4.96478147
Si       1.10503594       6.65348363      -1.08024359
Si      -0.33786716      -0.81001766       3.01359402
Si       2.63910829      -3.65682188       6.85509343
Si       0.37292002       2.19097190       3.01440361
Si      -2.35066630       3.34407643       7.93013720
Si      -1.30205603       3.94179464       3.47051099
Si      -1.25681566      -0.95455966       8.59252248
22
Lattice="5.350685329225253 -0.6282238727554667 -1.3234709798040956 -2.2171790587043247 9.908332905398359 -1.3775675315303857 -4.055407076074778 -3.9126681679053337 11.454799119371792" Properties=species:S:1:pos:R:3 unique_starting_index=18 config_type=initial n_minim_iter=13 stress="-0.013681978651226171 -0.001035277247190006 -0.01003925568864284 -0.001035277247190006 -0.011559559189060403 -0.0014460133473999175 -0.01003925568864284 -0.0014460133473999175 0.01863034433159818" pbc="T T T"
Si       0.62592668       8.27118945       0.05418669
Si      -0.36660008       0.31895216       6.18540020
Si      -3.68561035      -2.83441526      10.51049107
Si       0.41795650      -1.67044859       9.63911293
Si      -4.52688056       0.74733136       9.91241801
Si       3.64194328       2.03937233       0.15659945
Si       2.36170179       0.20744988       0.21997670
Si      -1.68536923       1.61198876       8.98901246
Si      -1.37640118      -2.79708276       9.75775140
Si      -2.51258968       1.68115232       6.58872331
Si       2.08797912       0.14623004       3.40407584
Si      -2.32821295       3.92536168       5.93128146
Si      -2.50077653      -1.15739979       6.44779863
Si      -0.96926445       6.51686638      -0.54786724
Si       1.18033792       2.31159861       4.95359918
Si       1.08962320       6.57538766      -1.10855555
Si      -0.36836782      -0.80173259       3.02439911
Si       2.59961555      -3.64456263       6.84128126
Si       0.32703031       2.14992093       3.01103802
Si      -2.46640803       3.30770684       7.96306630
Si      -1.36238464       3.89138537       3.48703224
Si      -1.35709392      -0.96562326       8.64113011
22
Lattice="5.42214201489069 -0.6159190662651337 -1.3656157157306676 -2.223690329769529 9.738245154452354 -1.3472870281153815 -4.18510779830428 -3.8381233888427824 11.474434566279934" Properties=species:S:1:pos:R:3 unique_starting_index=18 config_type=initial n_minim_iter=14 stress="0.017837455265168896 0.01278238294106882 0.0008077458030800572 0.01278238294106882 -0.04389949752638204 0.021155006377411543 0.0008077458030800572 0.021155006377411543 0.010189277589228602" pbc="T T T"
Si       0.63489967       8.15956560       0.05521222
Si      -0.40935866       0.31086038       6.17497119
Si      -3.79511245      -2.74053919      10.52636599
Si       0.36169710      -1.64883633       9.63733625
Si      -4.64953254       0.74391748       9.94671391
Si       3.70796082       2.00896784       0.12483283
Si       2.37862243       0.21122143       0.19065663
Si      -1.76980726       1.58774543       9.00004592
Si      -1.46985642      -2.72378124       9.78054200
Si      -2.57154700       1.65779356       6.58213714
Si       2.07309595       0.14184736       3.38816821
Si      -2.39431374       3.86413350       5.93474748
Si      -2.57638432      -1.15073783       6.46727467
Si      -0.94567890       6.40078602      -0.52253416
Si       1.17168186       2.26275168       4.94333826
Si       1.10856318       6.46186977      -1.11577613
Si      -0.39539028      -0.77839987       3.02269841
Si       2.57538897      -3.58334389       6.80267118
Si       0.29587370       2.10665881       3.00733768
Si      -2.54206312       3.25904303       7.98422833
Si      -1.39356873       3.82746229       3.50683202
Si      -1.44453237      -0.95400452       8.67091790
22
Lattice="5.452566582736131 -0.6349822988778329 -1.4009390537346946 -2.266170118108873 9.765206673012202 -1.3893994878983669 -4.265559775420448 -3.895025401806449 11.485856614596994" Properties=species:S:1:pos:R:3 unique_starting_index=18 config_type=initial n_minim_iter=15 stress="0.009970606293217278 0.006218632136716474 -0.00665540858399 0.006218632136716474 -0.02839064038484813 0.013923765117271447 -0.00665540858399 0.013923765117271447 -0.0022079098926402647" pbc="T T T"
Si       0.59427634       8.18834719      -0.01272479
Si      -0.45401263       0.26404768       6.14029119
Si      -3.86467395      -2.75407507      10.52896293
Si       0.31195286      -1.72897422       9.61474251
Si      -4.74356258       0.70365614       9.93910161
Si       3.73088875       1.99039880       0.07152666
Si       2.37379384       0.20173447       0.16291917
Si      -1.85317853       1.53359233       8.96747733
Si      -1.55395462      -2.77456178       9.78542409
Si      -2.61784671       1.62968052       6.54891107
Si       2.03606989       0.10064975       3.35008447
Si      -2.47321427       3.83493311       5.89694008
Si      -2.62840410      -1.19851129       6.47361855
Si      -0.95623013       6.41121074      -0.54625832
Si       1.14203903       2.21637796       4.89560897
Si       1.08459131       6.46765258      -1.16900925
Si      -0.41767041      -0.78943615       3.01625280
Si       2.55166954      -3.65216406       6.77584039
Si       0.24604743       2.07669137       2.97337047
Si      -2.61923278       3.22684162       7.94287146
Si      -1.43735332       3.81378579       3.48457827
Si      -1.52041850      -1.00653185       8.67126510
22
Lattice="5.466746691840186 -0.6379299756358088 -1.4295527471910592 -2.278220562018369 9.83642703313699 -1.4579459876147765 -4.336026301155321 -4.009231419875388 11.499903990679883" Properties=species:S:1:pos:R:3 unique_starting_index=18 config_type=initial n_minim_iter=16 stress="0.014818908225712262 0.006890975493563993 -0.000614928389126296 0.006890975493563993 -0.016556542976015626 -0.010259867723218252 -0.000614928389126296 -0.010259867723218252 -0.011090727983019424" pbc="T T T"
Si       0.57948867       8.24641017      -0.11113557
Si      -0.49147971       0.20256805       6.10236501
Si      -3.91818985      -2.81761385      10.52898758
Si       0.25542890      -1.83162702       9.58667420
Si      -4.81638404       0.61764617       9.92379792
Si       3.74876200       1.99079600       0.01691044
Si       2.36140649       0.19700023       0.14180607
Si      -1.92040663       1.46563946       8.92542581
Si      -1.62016147      -2.86421520       9.80381952
Si      -2.64332023       1.58086109       6.50619732
Si       1.99564739       0.05720169       3.30942913
Si      -2.52471611       3.80746374       5.84790971
Si      -2.67144553      -1.27576753       6.48014352
Si      -0.95349805       6.45745518      -0.58406740
Si       1.11228772       2.16914707       4.84358587
Si       1.07410749       6.52433910      -1.22910935
Si      -0.43958293      -0.81150565       3.01090628
Si       2.51256358      -3.74754199       6.75141538
Si       0.20326069       2.05010329       2.93536820
Si      -2.67354872       3.18711478       7.88697199
Si      -1.46458217       3.80737574       3.45131598
Si      -1.58586787      -1.07802753       8.66496970
22
Lattice="5.457375454004141 -0.6430478675054033 -1.475193170664625 -2.2762571973519785 9.921268528379535 -1.5045605946276022 -4.41307557431711 -4.106930616753546 11.547290299039206" Properties=species:S:1:pos:R:3 unique_starting_index=18 config_type=initial n_minim_iter=17 stress="0.017181957379498763 -0.004456098647585636 -0.007042042839534723 -0.004456098647585636 0.005628602579178342 -0.025974979635119605 -0.007042042839534723 -0.025974979635119605 -0.011646831525540786" pbc="T T T"
Si       0.56097334       8.32855456      -0.19239269
Si      -0.53927742       0.15338019       6.08283805
Si      -3.97232236      -2.86739044      10.56093622
Si       0.17875689      -1.90309173       9.57507270
Si      -4.89065407       0.55108867       9.95183336
Si       3.74563797       1.99108255      -0.04048744
Si       2.33478005       0.19323298       0.11934438
Si      -2.00318088       1.43280532       8.91507967
Si      -1.70548733      -2.93927391       9.85318171
Si      -2.66832419       1.55546522       6.49062547
Si       1.93583901       0.02094973       3.27396457
Si      -2.57939985       3.79511401       5.83377315
Si      -2.71713525      -1.34403084       6.50650396
Si      -0.94768653       6.50871272      -0.61008318
Si       1.06284361       2.13716050       4.80929583
Si       1.06204187       6.58547455      -1.28649846
Si      -0.46804281      -0.82735178       3.01280283
Si       2.44337064      -3.83535624       6.73129262
Si       0.14713668       2.03393999       2.90562996
Si      -2.72726536       3.15764998       7.86587769
Si      -1.49302730       3.81477660       3.44152404
Si      -1.66471988      -1.13417293       8.68733024
22
Lattice="5.38232005294779 -0.6388681496594132 -1.4833929027108608 -2.2333098728264082 10.163102973011807 -1.578626239231424 -4.403257781897536 -4.3035043805925195 11.504310301286612" Properties=species:S:1:pos:R:3 unique_starting_index=18 config_type=initial n_minim_iter=18 stress="0.019509535295172596 -0.014527547323598781 -0.013453751013813808 -0.014527547323598781 0.010753790980995513 0.0004082963649952623 -0.013453751013813808 0.0004082963649952623 -0.0204856810180459" pbc="T T T"
Si       0.55854684       8.58883727      -0.32837757
Si      -0.54237387       0.07234622       5.99725218
Si      -3.89437930      -2.93547105      10.49158875
Si       0.13388987      -1.99343835       9.49254543
Si      -4.87767334       0.43566320       9.89883581
Si       3.75488115       2.02980189      -0.06503340
Si       2.25010865       0.19382809       0.12110229
Si      -2.02629630       1.42692301       8.83442738
Si      -1.77151407      -3.03666903       9.83021592
Si      -2.58283669       1.54665540       6.38880651
Si       1.83070304      -0.03580409       3.21036450
Si      -2.57445917       3.82289528       5.75626406
Si      -2.71123077      -1.49686091       6.48744345
Si      -0.90984497       6.65985998      -0.63327378
Si       1.02519370       2.10926821       4.73662475
Si       1.04605747       6.78436736      -1.35257066
Si      -0.49113999      -0.84428270       2.99190408
Si       2.36313081      -4.01025415       6.67831378
Si       0.06080395       2.02685313       2.84336191
Si      -2.68883787       3.14223677       7.74507282