22
Lattice="5.526116959802679 -0.7063950758323159 -1.3701231103055085 -2.4723494040123426 11.60265343566984 -2.315847231742467 -4.580685609208054 -5.78193342756691 10.826006675743013" Properties=species:S:1:pos:R:3 unique_starting_index=18 config_type=initial n_minim_iter=1 energy=-3586.0523186075466 free_energy=-3586.0523186075466 pbc="T T T"
Si       0.13566860      10.49961360      -1.29443555
Si      -1.53876237      -1.42604744       5.60932518
Si      -3.75314215      -3.87902212       9.51264284
Si       0.26570409      -3.12337516       8.54595527
Si      -5.55271259      -0.49657968       8.83807044
Si       4.30670022       2.27159271      -0.24132201
Si       2.44481293       0.98452036       0.02278396
Si      -2.04830126       1.78065504       8.23941757
Si      -1.69041982      -3.82516959       9.01825288
Si      -2.57738180       0.95111033       5.76393266
Si       1.21059019      -0.75493770       2.87603160
Si      -2.97462910       3.47254359       4.79773700
Si      -3.30303004      -2.90276389       6.39984230
Si      -0.87923023       7.54846330      -1.16765247
Si       1.16961396       1.19009388       3.73354256
Si       0.78785206       8.60170025      -1.98181572
Si      -0.90575612      -1.69944059       3.22015330
Si       2.55074856      -5.36806018       6.18091899
Si       0.26896338       2.76120885       2.63174236
Si      -3.26205293       2.69781027       6.75610164
Si      -1.21229075       4.14920083       3.26263926
Si      -1.32984088      -2.85206891       7.16840395
22
Lattice="5.526001607786298 -0.706278794705485 -1.3701003940960845 -2.4722131230375135 11.601902079459146 -2.3160646530077496 -4.580525894020132 -5.7816926974562035 10.826452304911097" Properties=species:S:1:pos:R:3 unique_starting_index=18 config_type=initial n_minim_iter=2 stress="2.0444839222738204e-05 0.00026996782956256304 7.774291608551492e-05 0.00026996782956256304 -4.6729081771034584e-05 -0.0002777628658428589 7.774291608551492e-05 -0.0002777628658428589 0.00030293808482099934" pbc="T T T"
Si       0.13579108      10.49899078      -1.29454698
Si      -1.53864895      -1.42616555       5.60966991
Si      -3.75304483      -3.87881056       9.51303714
Si       0.26583319      -3.12326848       8.54634932
Si      -5.55252172      -0.49673688       8.83842293
Si       4.30662891       2.27152249      -0.24139992
Si       2.44479671       0.98443433       0.02288831
Si      -2.04812656       1.78045572       8.23981741
Si      -1.69038266      -3.82498533       9.01852342
Si      -2.57717526       0.95095404       5.76415563
Si       1.21057398      -0.75498534       2.87613684
Si      -2.97436299       3.47239342       4.79780517
Si      -3.30292940      -2.90261746       6.40007306
Si      -0.87914928       7.54798449      -1.16777920
Si       1.16950525       1.18997613       3.73376669
Si       0.78793098       8.60107304      -1.98197104
Si      -0.90570003      -1.69934040       3.22031249
Si       2.55075672      -5.36772874       6.18133692
Si       0.26895974       2.76113280       2.63184090
Si      -3.26189229       2.69758124       6.75632215
Si      -1.21210376       4.14884051       3.26270056
Si      -1.32975751      -2.85186393       7.16864284
22
Lattice="5.52599790121781 -0.7064638465318184 -1.3701188196774237 -2.4725033938924526 11.601808372413316 -2.315657842158581 -4.580403522219328 -5.781206544937855 10.826047497959149" Properties=species:S:1:pos:R:3 unique_starting_index=18 config_type=initial n_minim_iter=3 stress="-0.00016727844155169953 5.953495445209012e-05 4.484671113810724e-06 5.953495445209012e-05 -0.00015546572425259217 3.321209561733264e-06 4.484671113810724e-06 3.321209561733264e-06 -0.00015961111514023823" pbc="T T T"
Si       0.13551910      10.49887557      -1.29420592
Si      -1.53862610      -1.42598621       5.60952445
Si      -3.75298576      -3.87838138       9.51271689
Si       0.26587654      -3.12300904       8.54604857
Si      -5.55252645      -0.49633815       8.83824084
Si       4.30653663       2.27138673      -0.24138858
Si       2.44476342       0.98435264       0.02291156
Si      -2.04820299       1.78073237       8.23970284
Si      -1.69033582      -3.82464085       9.01818355
Si      -2.57720087       0.95117704       5.76405977
Si       1.21056268      -0.75495788       2.87602473
Si      -2.97444715       3.47261192       4.79779184
Si      -3.30287185      -2.90230473       6.39984551
Si      -0.87934548       7.54791409      -1.16752955
Si       1.16941468       1.19004956       3.73372046
Si       0.78770879       8.60089878      -1.98167752
Si      -0.90566619      -1.69920250       3.22019180
Si       2.55085553      -5.36757758       6.18103398
Si       0.26885220       2.76120908       2.63185263
Si      -3.26198957       2.69785573       6.75624929
Si      -1.21221058       4.14892171       3.26274061
Si      -1.32971525      -2.85158874       7.16838731
22
Lattice="5.526132719687389 -0.7065850427536048 -1.3701590808736754 -2.472755145926219 11.602029214791145 -2.3155855390278233 -4.580423390209148 -5.781126799380885 10.826183657849597" Properties=species:S:1:pos:R:3 unique_starting_index=18 config_type=initial n_minim_iter=4 stress="0.0002890017305010035 -5.4627613522277636e-05 8.49717889486385e-05 -5.4627613522277636e-05 0.00022659884347323665 2.688710348077789e-05 8.49717889486385e-05 2.688710348077789e-05 0.0001221947040347232" pbc="T T T"
Si       0.13535054      10.49904666      -1.29412803
Si      -1.53864138      -1.42595114       5.60961182
Si      -3.75303119      -3.87828024       9.51284904
Si       0.26592430      -3.12299225       8.54615883
Si      -5.55264786      -0.49617236       8.83841042
Si       4.30658430       2.27135495      -0.24141255
Si       2.44480701       0.98432274       0.02291943
Si      -2.04828611       1.78086909       8.23987856
Si      -1.69033208      -3.82459058       9.01830368
Si      -2.57727552       0.95129072       5.76416997
Si       1.21058807      -0.75499015       2.87605174
Si      -2.97457029       3.47278211       4.79789865
Si      -3.30291374      -2.90222575       6.39992404
Si      -0.87949852       7.54804682      -1.16747934
Si       1.16939817       1.19009294       3.73380625
Si       0.78758496       8.60099954      -1.98163033
Si      -0.90566370      -1.69918162       3.22023166
Si       2.55098551      -5.36766541       6.18109006
Si       0.26879368       2.76129922       2.63191602
Si      -3.26212226       2.69802794       6.75638549
Si      -1.21230292       4.14903569       3.26282944
Si      -1.32970903      -2.85156304       7.16848852
22
Lattice="5.525956886159307 -0.7067601197764303 -1.3705809715346442 -2.472919617089296 11.6016080557858 -2.3155795398979935 -4.580624635652006 -5.7806951399027175 10.827156301340795" Properties=species:S:1:pos:R:3 unique_starting_index=18 config_type=initial n_minim_iter=5 stress="-0.00036144186967469077 -0.00016595907452842594 -0.00020154625725586552 -0.00016595907452842594 0.0003784424837969213 -0.0002271381080017337 -0.00020154625725586552 -0.0002271381080017337 0.00019630850657476935" pbc="T T T"
Si       0.13511920      10.49858365      -1.29419454
Si      -1.53881804      -1.42592922       5.61004929
Si      -3.75335296      -3.87784584       9.51370175
Si       0.26553763      -3.12287900       8.54666335
Si      -5.55279471      -0.49594248       8.83944951
Si       4.30624890       2.27114727      -0.24193028
Si       2.44470995       0.98416787       0.02277857
Si      -2.04869197       1.78084765       8.24067381
Si      -1.69071582      -3.82433203       9.01906748
Si      -2.57750524       0.95139620       5.76470292
Si       1.21031542      -0.75516684       2.87608607
Si      -2.97477815       3.47281982       4.79832350
Si      -3.30306798      -2.90187431       6.40048273
Si      -0.87970780       7.54772994      -1.16750077
Si       1.16903033       1.19007994       3.73408685
Si       0.78740518       8.60051415      -1.98175909
Si      -0.90576967      -1.69903826       3.22048173
Si       2.55060866      -5.36758865       6.18137106
Si       0.26844216       2.76133349       2.63203303
Si      -3.26245078       2.69805949       6.75695213
Si      -1.21249486       4.14884283       3.26307442
Si      -1.32998785      -2.85155476       7.16910030
22
Lattice="5.52614547569608 -0.7066830678658321 -1.370641370193971 -2.472881538300027 11.6004128606572 -2.315224034368228 -4.580865512793712 -5.779831025566924 10.827172163648425" Properties=species:S:1:pos:R:3 unique_starting_index=18 config_type=initial n_minim_iter=6 stress="-2.3922371754049327e-05 7.221758803359666e-05 8.526545085645558e-05 7.221758803359666e-05 6.029773257351257e-05 -2.851178371261553e-05 8.526545085645558e-05 -2.851178371261553e-05 1.559341920654549e-05" pbc="T T T"
Si       0.13530290      10.49754807      -1.29385149
Si      -1.53887576      -1.42569455       5.61009616
Si      -3.75360235      -3.87711540       9.51376536
Si       0.26551632      -3.12230220       8.54669783
Si      -5.55294876      -0.49565173       8.83970769
Si       4.30640258       2.27101107      -0.24203158
Si       2.44485528       0.98409025       0.02280282
Si      -2.04873049       1.78092637       8.24098708
Si      -1.69088514      -3.82366887       9.01917534
Si      -2.57758676       0.95151649       5.76485216
Si       1.21029701      -0.75508941       2.87606295
Si      -2.97481579       3.47267800       4.79849746
Si      -3.30327367      -2.90135188       6.40046973
Si      -0.87969286       7.54695817      -1.16726542
Si       1.16904495       1.19015626       3.73425794
Si       0.78756083       8.59959725      -1.98148990
Si      -0.90583095      -1.69875038       3.22048956
Si       2.55056848      -5.36689787       6.18131733
Si       0.26843159       2.76126886       2.63214971
Si      -3.26253300       2.69801724       6.75713128
Si      -1.21243769       4.14851695       3.26325192
Si      -1.33008604      -2.85118537       7.16919412
22
Lattice="5.526809535514948 -0.7069127672737462 -1.3713774244953296 -2.473483287265841 11.5984943867315 -2.3147626257770164 -4.5821324490915005 -5.778249092280105 10.828313348184034" Properties=species:S:1:pos:R:3 unique_starting_index=18 config_type=initial n_minim_iter=7 stress="0.0002459123381155021 -4.339372143418143e-06 -0.0002626545731151507 -4.339372143418143e-06 -0.00019603854918248044 -5.298856263167936e-05 -0.0002626545731151507 -5.298856263167936e-05 6.118779256564409e-05" pbc="T T T"
Si       0.13501056      10.49567185      -1.29361655
Si      -1.53950273      -1.42530701       5.61058797
Si      -3.75476816      -3.87585414       9.51476627
Si       0.26475140      -3.12147990       8.54720305
Si      -5.55426768      -0.49500018       8.84115764
Si       4.30674309       2.27047328      -0.24265207
Si       2.44508264       0.98373844       0.02260081
Si      -2.04989821       1.78100101       8.24200709
Si      -1.69202964      -3.82264757       9.01999401
Si      -2.57848488       0.95173301       5.76557892
Si       1.21003505      -0.75499918       2.87609006
Si      -2.97572401       3.47248484       4.79926196
Si      -3.30412473      -2.90035095       6.40118227
Si      -0.88013474       7.54565040      -1.16701517
Si       1.16859314       1.18997304       3.73446877
Si       0.78739946       8.59793422      -1.98151548
Si      -0.90614227      -1.69824021       3.22083301
Si       2.55028449      -5.36600308       6.18138388
Si       0.26800711       2.76094748       2.63230028
Si      -3.26362890       2.69800614       6.75809987
Si      -1.21310292       4.14800006       3.26374730
Si      -1.33091428      -2.85061762       7.16979956
22
Lattice="5.526770249869466 -0.7071874548690374 -1.371509335818497 -2.474015701173373 11.597562595033033 -2.3143973139331804 -4.581815074690691 -5.777080388384818 10.828742633452732" Properties=species:S:1:pos:R:3 unique_starting_index=18 config_type=initial n_minim_iter=8 stress="-8.317255388261788e-05 -1.4857612643642157e-05 3.256191519067675e-05 -1.4857612643642157e-05 -4.544707193189504e-05 8.990465864918516e-05 3.256191519067675e-05 8.990465864918516e-05 0.00018270935965618103" pbc="T T T"
Si       0.13463687      10.49471560      -1.29321817
Si      -1.53937810      -1.42498555       5.61080044
Si      -3.75452940      -3.87485066       9.51517589
Si       0.26483554      -3.12083507       8.54759854
Si      -5.55408153      -0.49432653       8.84189194
Si       4.30667069       2.27017467      -0.24277385
Si       2.44507414       0.98348095       0.02268566
Si      -2.04999531       1.78133772       8.24271936
Si      -1.69207504      -3.82185227       9.02046160
Si      -2.57850601       0.95208746       5.76594827
Si       1.20995121      -0.75493291       2.87619763
Si      -2.97579466       3.47263684       4.79970355
Si      -3.30397552      -2.89953945       6.40141293
Si      -0.88056465       7.54499817      -1.16675667
Si       1.16843505       1.18992183       3.73476873
Si       0.78701445       8.59697821      -1.98136231
Si      -0.90601931      -1.69784127       3.22102601
Si       2.55034566      -5.36551377       6.18156394
Si       0.26785743       2.76090712       2.63245515
Si      -3.26364381       2.69831559       6.75866495
Si      -1.21327672       4.14789253       3.26411719
Si      -1.33087275      -2.85024842       7.17012623
22
Lattice="5.527044958923194 -0.7072995970743283 -1.3715512083130774 -2.4744094372846535 11.597333198443495 -2.314492512366084 -4.582109801805459 -5.777047962884243 10.828313232060196" Properties=species:S:1:pos:R:3 unique_starting_index=18 config_type=initial n_minim_iter=9 stress="6.565767057706017e-05 4.413047613416252e-05 -3.05811229398004e-05 4.413047613416252e-05 0.00011373840439210162 -6.10063597865421e-05 -3.05811229398004e-05 -6.10063597865421e-05 -0.00022423707658754112" pbc="T T T"
Si       0.13448386      10.49437465      -1.29339411
Si      -1.53949485      -1.42514158       5.61043703
Si      -3.75485818      -3.87479957       9.51475675
Si       0.26463912      -3.12096009       8.54714249
Si      -5.55445090      -0.49443143       8.84164350
Si       4.30689575       2.27008676      -0.24308419
Si       2.44519227       0.98329970       0.02268120
Si      -2.05038646       1.78115820       8.24228178
Si      -1.69236230      -3.82188227       9.02004376
Si      -2.57880097       0.95204179       5.76557653
Si       1.20986132      -0.75507749       2.87596646
Si      -2.97607896       3.47255696       4.79941098
Si      -3.30424926      -2.89939824       6.40110572
Si      -0.88086257       7.54480146      -1.16685904
Si       1.16827732       1.18968449       3.73448065
Si       0.78691033       8.59663378      -1.98155296
Si      -0.90609362      -1.69779538       3.22090687
Si       2.55027914      -5.36567969       6.18125599
Si       0.26771637       2.76080155       2.63207973
Si      -3.26393748       2.69823113       6.75824839
Si      -1.21352409       4.14774843       3.26381228
Si      -1.33106134      -2.85048906       7.16976244
22
Lattice="5.527151050117142 -0.7076826698203059 -1.371757760943729 -2.475326424354569 11.596038191499996 -2.31443702888231 -4.581897069668294 -5.775824280235869 10.828910542416278" Properties=species:S:1:pos:R:3 unique_starting_index=18 config_type=initial n_minim_iter=10 stress="6.058365780333253e-06 -0.0001996809767671526 8.474945311188299e-05 -0.0001996809767671526 -0.00021356297533201395 -7.283017034193208e-05 8.474945311188299e-05 -7.283017034193208e-05 1.1956815828647333e-06" pbc="T T T"
Si       0.13385585      10.49293726      -1.29331319
Si      -1.53942029      -1.42493990       5.61063124
Si      -3.75489146      -3.87379286       9.51529928
Si       0.26457571      -3.12049358       8.54759183
Si      -5.55456063      -0.49395878       8.84246593
Si       4.30693546       2.26962503      -0.24337295
Si       2.44519081       0.98284110       0.02280993
Si      -2.05076752       1.78123164       8.24289550
Si      -1.69232477      -3.82109567       9.02056893
Si      -2.57905337       0.95228985       5.76585922
Si       1.20973398      -0.75516102       2.87601764
Si      -2.97641982       3.47246327       4.79984686
Si      -3.30426806      -2.89851875       6.40140172
Si      -0.88154269       7.54389367      -1.16682800
Si       1.16802782       1.18947213       3.73466518
Si       0.78633003       8.59530950      -1.98166723
Si      -0.90604802      -1.69739710       3.22109720
Si       2.55028023      -5.36528597       6.18144639
Si       0.26747079       2.76050593       2.63208049
Si      -3.26415971       2.69837756       6.75871723
Si      -1.21391555       4.14741533       3.26402638
Si      -1.33100697      -2.85012798       7.17002276
22
Lattice="5.527164769688013 -0.707649976013353 -1.3719855288346479 -2.475076958497949 11.59594107699746 -2.314017878424365 -4.5823343991758625 -5.7755598374480925 10.828993863448654" Properties=species:S:1:pos:R:3 unique_starting_index=18 config_type=initial n_minim_iter=11 stress="-3.323557331395447e-05 5.4498948729494846e-05 -9.326180017672756e-05 5.4498948729494846e-05 1.5331488941700874e-05 0.00013660927287184425 -9.326180017672756e-05 0.00013660927287184425 1.725237486487086e-05" pbc="T T T"
Si       0.13414003      10.49286742      -1.29298592
Si      -1.53958354      -1.42486270       5.61064012
Si      -3.75532318      -3.87350852       9.51540855
Si       0.26418469      -3.12023216       8.54758750
Si      -5.55481934      -0.49382743       8.84283722
Si       4.30705601       2.26976691      -0.24352905
Si       2.44522755       0.98282663       0.02281932
Si      -2.05102097       1.78146775       8.24314331
Si      -1.69272635      -3.82083669       9.02063525
Si      -2.57925282       0.95247717       5.76598831
Si       1.20956329      -0.75512023       2.87594572
Si      -2.97648451       3.47260819       4.80014203
Si      -3.30455366      -2.89830242       6.40146411
Si      -0.88142692       7.54385177      -1.16658114
Si       1.16786606       1.18961577       3.73470076
Si       0.78652901       8.59521184      -1.98147707
Si      -0.90619196      -1.69728106       3.22111321
Si       2.54983971      -5.36511061       6.18124906
Si       0.26744520       2.76060225       2.63213028
Si      -3.26426533       2.69861426       6.75899570
Si      -1.21394346       4.14752365       3.26421236
Si      -1.33131019      -2.85000725       7.16997218
22
Lattice="5.527241009088855 -0.7078761756824312 -1.3718334918625223 -2.475766772085816 11.595784830749766 -2.314409462054517 -4.581978270215088 -5.775588874344147 10.828544214682612" Properties=species:S:1:pos:R:3 unique_starting_index=18 config_type=initial n_minim_iter=12 stress="-6.512713350353795e-07 -3.190863369966049e-05 5.525506170844335e-06 -3.190863369966049e-05 -1.073784996224794e-05 1.6672302073132576e-05 5.525506170844335e-06 1.6672302073132576e-05 -0.00011961990312593326" pbc="T T T"
Si       0.13385474      10.49239611      -1.29329410
Si      -1.53932244      -1.42516354       5.61012133
Si      -3.75527422      -3.87344923       9.51499489
Si       0.26430245      -3.12054128       8.54725301
Si      -5.55470998      -0.49413443       8.84260427
Si       4.30727996       2.26976266      -0.24375579
Si       2.44531737       0.98255558       0.02290900
Si      -2.05096788       1.78111527       8.24263987
Si      -1.69273076      -3.82110408       9.02033047
Si      -2.57936504       0.95249547       5.76543440
Si       1.20947206      -0.75550355       2.87569413
Si      -2.97654416       3.47254984       4.79979951
Si      -3.30452653      -2.89813552       6.40111886
Si      -0.88193733       7.54372495      -1.16687469
Si       1.16769140       1.18943982       3.73442977
Si       0.78595367       8.59486488      -1.98175227
Si      -0.90613996      -1.69723079       3.22098445
Si       2.54979670      -5.36537257       6.18118207
Si       0.26743346       2.76040552       2.63176959
Si      -3.26414864       2.69862477       6.75848801
Si      -1.21403552       4.14733997       3.26375031
Si      -1.33115607      -2.85040050       7.16938398
22
Lattice="5.527203210922215 -0.7080420143910192 -1.3718844370790992 -2.476123595311915 11.595398578287256 -2.3143994356529527 -4.5818083140082155 -5.775197924272098 10.828604469148257" Properties=species:S:1:pos:R:3 unique_starting_index=18 config_type=initial n_minim_iter=13 stress="-3.241005467340633e-05 -8.352982587678295e-06 -6.214503327835709e-06 -8.352982587678295e-06 -2.7930634522700704e-05 6.91957418645849e-05 -6.214503327835709e-06 6.91957418645849e-05 -6.161503887712057e-05" pbc="T T T"
Si       0.13372943      10.49188392      -1.29319970
Si      -1.53915501      -1.42517871       5.60992111
Si      -3.75538100      -3.87306907       9.51509479
Si       0.26422786      -3.12042982       8.54726035
Si      -5.55465755      -0.49415450       8.84293459
Si       4.30736585       2.26978101      -0.24389227
Si       2.44534831       0.98235385       0.02299360
Si      -2.05097167       1.78107107       8.24272334
Si      -1.69280680      -3.82091112       9.02023408
Si      -2.57951109       0.95269598       5.76532971
Si       1.20933211      -0.75564687       2.87561423
Si      -2.97657384       3.47259746       4.79988745
Si      -3.30456840      -2.89783474       6.40116231
Si      -0.88224621       7.54347717      -1.16688681
Si       1.16754809       1.18940558       3.73442726
Si       0.78557812       8.59435012      -1.98181521
Si      -0.90613570      -1.69706310       3.22101019
Si       2.54954530      -5.36515837       6.18121372
Si       0.26743742       2.76032553       2.63177938
Si      -3.26404455       2.69878515       6.75866145
Si      -1.21403137       4.14721229       3.26369404
Si      -1.33115182      -2.85053982       7.16933992
22
Lattice="5.527334504828807 -0.7083917145407472 -1.3718666427902928 -2.477054194792134 11.595113592832194 -2.3147775230923724 -4.581494177597822 -5.774978994225159 10.828581212458872" Properties=species:S:1:pos:R:3 unique_starting_index=18 config_type=initial n_minim_iter=14 stress="-8.606996131619658e-06 -2.931450669553561e-05 1.948244006374873e-06 -2.931450669553561e-05 -3.701335932954697e-05 5.143054025619187e-05 1.948244006374873e-06 5.143054025619187e-05 -5.4743777763477504e-05" pbc="T T T"
Si       0.13321210      10.49138503      -1.29336402
Si      -1.53884912      -1.42547114       5.60958771
Si      -3.75546950      -3.87288224       9.51511060
Si       0.26424827      -3.12058420       8.54707646
Si      -5.55473938      -0.49443009       8.84313691
Si       4.30742513       2.26971665      -0.24415692
Si       2.44548372       0.98211157       0.02292422
Si      -2.05110458       1.78078142       8.24251618
Si      -1.69275458      -3.82102441       9.02021318
Si      -2.57978650       0.95284608       5.76496025
Si       1.20921715      -0.75587192       2.87550801
Si      -2.97678747       3.47260808       4.79966333
Si      -3.30464211      -2.89766330       6.40119733
Si      -0.88299818       7.54323544      -1.16713294
Si       1.16742171       1.18905390       3.73428897
Si       0.78495880       8.59364784      -1.98221668
Si      -0.90612509      -1.69696037       3.22098355
Si       2.54932435      -5.36510971       6.18120854
Si       0.26740088       2.76021365       2.63165839
Si      -3.26404303       2.69883392       6.75864773
Si      -1.21409027       4.14695239       3.26333721
Si      -1.33110482      -2.85092865       7.16902687
22
Lattice="5.527468826087744 -0.7085976073314804 -1.3718392223580473 -2.477711850195539 11.595432725930737 -2.3155622857224203 -4.581395249753154 -5.775575546577598 10.828651322765335" Properties=species:S:1:pos:R:3 unique_starting_index=18 config_type=initial n_minim_iter=15 stress="6.89761390215989e-05 -2.52759622670721e-05 2.273962835377855e-05 -2.52759622670721e-05 -5.378844773127478e-06 6.889403631144543e-06 2.273962835377855e-05 6.889403631144543e-06 -2.8748888955343873e-05" pbc="T T T"
Si       0.13301962      10.49134282      -1.29388017
Si      -1.53850203      -1.42631039       5.60934656
Si      -3.75550990      -3.87341964       9.51514399
Si       0.26412419      -3.12114421       8.54674514
Si      -5.55486608      -0.49521929       8.84331808
Si       4.30745339       2.26991730      -0.24448088
Si       2.44565891       0.98196085       0.02286966
Si      -2.05126425       1.78018026       8.24215780
Si      -1.69292010      -3.82156641       9.02006685
Si      -2.57992699       0.95272049       5.76450678
Si       1.20906787      -0.75615382       2.87540264
Si      -2.97702438       3.47243518       4.79931505
Si      -3.30499101      -2.89795657       6.40126888
Si      -0.88370556       7.54333343      -1.16759389
Si       1.16725478       1.18887108       3.73400494
Si       0.78461590       8.59351871      -1.98287742
Si      -0.90617870      -1.69709053       3.22098510
Si       2.54871141      -5.36539964       6.18128667
Si       0.26753457       2.76009904       2.63143700
Si      -3.26400213       2.69870236       6.75821862
Si      -1.21398284       4.14678109       3.26277424
Si      -1.33132240      -2.85191664       7.16862803
22
Lattice="5.527015518300609 -0.708914097108853 -1.37221398393847 -2.4780673657535455 11.596502739726201 -2.316319135691775 -4.581382114664975 -5.7765400089778005 10.829311603297132" Properties=species:S:1:pos:R:3 unique_starting_index=18 config_type=initial n_minim_iter=16 stress="3.071987897617478e-05 2.5914790655887183e-05 -8.816750560116135e-06 2.5914790655887183e-05 3.53731921187479e-05 3.7216446564105927e-07 -8.816750560116135e-06 3.7216446564105927e-07 7.466697934578465e-05" pbc="T T T"
Si       0.13294186      10.49171916      -1.29443828
Si      -1.53813111      -1.42754478       5.60935571
Si      -3.75568872      -3.87420303       9.51573747
Si       0.26342844      -3.12196800       8.54641089
Si      -5.55501681      -0.49632336       8.84417802
Si       4.30692851       2.27030525      -0.24501525
Si       2.44563192       0.98194368       0.02249557
Si      -2.05174363       1.77960829       8.24206315
Si      -1.69340198      -3.82230276       9.02029080
Si      -2.58011043       0.95268346       5.76424604
Si       1.20855667      -0.75642135       2.87531374
Si      -2.97714862       3.47258121       4.79919544
Si      -3.30576412      -2.89832297       6.40160277
Si      -0.88441021       7.54390391      -1.16805276
Si       1.16671688       1.18862597       3.73385543
Si       0.78386685       8.59387840      -1.98371699
Si      -0.90612849      -1.69724217       3.22135084
Si       2.54701544      -5.36596844       6.18141935
Si       0.26747904       2.76019023       2.63105216
Si      -3.26391329       2.69876982       6.75806089
Si      -1.21387621       4.14699069       3.26235216
Si      -1.33170417      -2.85327773       7.16850028
22
Lattice="5.526419876045457 -0.7094624727484792 -1.3724221281428561 -2.479095314964985 11.59801240450331 -2.3180263113268142 -4.580753923510417 -5.778200090129585 10.830040282447301" Properties=species:S:1:pos:R:3 unique_starting_index=18 config_type=initial n_minim_iter=17 stress="5.688376962470233e-05 3.4679565649266045e-05 3.6322233733517576e-05 3.4679565649266045e-05 3.498922277769826e-05 -0.00010769304307717862 3.6322233733517576e-05 -0.00010769304307717862 9.523763751911874e-05" pbc="T T T"
Si       0.13237341      10.49213239      -1.29574915
Si      -1.53737546      -1.42943366       5.60918506
Si      -3.75574218      -3.87553707       9.51644578
Si       0.26323146      -3.12370266       8.54606716
Si      -5.55492625      -0.49803892       8.84484946
Si       4.30613957       2.27062302      -0.24568017
Si       2.44562524       0.98190166       0.02185614
Si      -2.05231770       1.77849616       8.24150819
Si      -1.69331770      -3.82371046       9.02045920
Si      -2.58003610       0.95232576       5.76363332
Si       1.20806085      -0.75691412       2.87522548
Si      -2.97727744       3.47256449       4.79850548
Si      -3.30634484      -2.89890207       6.40190581
Si      -0.88566051       7.54466340      -1.16909811
Si       1.16599480       1.18816999       3.73344592
Si       0.78246087       8.59426431      -1.98526238
Si      -0.90578649      -1.69757421       3.22188703
Si       2.54520702      -5.36711693       6.18192642
Si       0.26747025       2.75999172       2.63026472
Si      -3.26363538       2.69850368       6.75739940
Si      -1.21381454       4.14719500       3.26147457
Si      -1.33225070      -2.85557293       7.16814953
22
Lattice="5.5259666887685 -0.7097920185871273 -1.372799914361064 -2.4794741087267393 11.598772501584998 -2.318611597251508 -4.580595617452842 -5.778742608100404 10.831037744197449" Properties=species:S:1:pos:R:3 unique_starting_index=18 config_type=initial n_minim_iter=18 stress="2.9606447213347423e-05 6.452455686503658e-05 2.0294149768483032e-05 6.452455686503658e-05 5.085047944248691e-05 -0.0001148542518125145 2.0294149768483032e-05 -0.0001148542518125145 0.00014445797920941856" pbc="T T T"
Si       0.13212581      10.49239972      -1.29613102
Si      -1.53706313      -1.43031346       5.60938611
Si      -3.75590052      -3.87595448       9.51742274
Si       0.26298676      -3.12437884       8.54642757
Si      -5.55504120      -0.49873988       8.84590416
Si       4.30566772       2.27085073      -0.24607704
Si       2.44559137       0.98190680       0.02139921
Si      -2.05292004       1.77823029       8.24185868
Si      -1.69364097      -3.82423608       9.02098578
Si      -2.58009347       0.95237079       5.76374298
Si       1.20770309      -0.75705656       2.87529501
Si      -2.97733839       3.47274152       4.79859974
Si      -3.30702877      -2.89893568       6.40234664
Si      -0.88627616       7.54501392      -1.16941570
Si       1.16547226       1.18815441       3.73343965
Si       0.78195743       8.59435933      -1.98586126
Si      -0.90572098      -1.69770391       3.22226936