22
Lattice="5.496719415413816 -0.7372802700262708 -1.3906280375211246 -2.5217489746429647 11.613340947186309 -2.346933829248823 -4.55272313692048 -5.781605913315269 10.871995035108155" Properties=species:S:1:pos:R:3 unique_starting_index=18 config_type=initial n_minim_iter=1 energy=-3586.059794902011 free_energy=-3586.059794902011 pbc="T T T"
Si       0.08971664      10.48685047      -1.32244150
Si      -1.54457171      -1.48881880       5.61094940
Si      -3.76014883      -3.90023651       9.56456332
Si       0.24739676      -3.15104289       8.55638277
Si      -5.57278459      -0.51043985       8.87319800
Si       4.27289506       2.26838772      -0.27144865
Si       2.43662205       0.95699748       0.00823008
Si      -2.09127892       1.74142175       8.24306235
Si      -1.70337106      -3.85270198       9.04244099
Si      -2.57969404       0.97283920       5.76885059
Si       1.20589037      -0.76492614       2.87188978
Si      -2.96301655       3.47872739       4.80137528
Si      -3.33069722      -2.88284531       6.42076585
Si      -0.91641903       7.53923285      -1.17529543
Si       1.13660855       1.18098094       3.72411534
Si       0.73381930       8.59223160      -2.02485543
Si      -0.89028695      -1.71412748       3.24597348
Si       2.46139264      -5.37442175       6.19606170
Si       0.26056039       2.76518056       2.62203013
Si      -3.26178399       2.71887762       6.76347042
Si      -1.16169389       4.20276056       3.28061557
Si      -1.34952578      -2.91934620       7.17014985
22
Lattice="5.4969500349345015 -0.737317206553427 -1.390277726893924 -2.522223505386876 11.614422925586558 -2.3480652653720138 -4.551908669036168 -5.7825238711105325 10.873563759834987" Properties=species:S:1:pos:R:3 unique_starting_index=18 config_type=initial n_minim_iter=2 stress="0.0023624856371247827 0.00021517327971930925 0.0007798672029799042 0.00021517327971930925 0.001998722230776015 -0.0006929348479226049 0.0007798672029799042 -0.0006929348479226049 0.0026359292644846247" pbc="T T T"
Si       0.08950583      10.48787207      -1.32305410
Si      -1.54407234      -1.48937692       5.61194992
Si      -3.75949707      -3.90086491       9.56591427
Si       0.24835642      -3.15170490       8.55791549
Si      -5.57228302      -0.51092387       8.87415313
Si       4.27311672       2.26858952      -0.27124416
Si       2.43676823       0.95698468       0.00856822
Si      -2.09067387       1.74127093       8.24421017
Si      -1.70264219      -3.85337568       9.04372409
Si      -2.57913051       0.97259515       5.76952502
Si       1.20624395      -0.76523949       2.87243673
Si      -2.96262604       3.47897940       4.80163519
Si      -3.33026158      -2.88331062       6.42159108
Si      -0.91665551       7.53992041      -1.17590981
Si       1.13681958       1.18091831       3.72485571
Si       0.73366762       8.59282300      -2.02561369
Si      -0.88993640      -1.71437174       3.24656731
Si       2.46226015      -5.37518996       6.19765650
Si       0.26068771       2.76548693       2.62235487
Si      -3.26138441       2.71889579       6.76415696
Si      -1.16135565       4.20290272       3.28079641
Si      -1.34890001      -2.91969852       7.17117624
22
Lattice="5.495273520304661 -0.7375122995804684 -1.3897911330817434 -2.522200655235345 11.612149255167376 -2.3473592034667097 -4.549660173925634 -5.780693590837157 10.871376987976417" Properties=species:S:1:pos:R:3 unique_starting_index=18 config_type=initial n_minim_iter=3 stress="-0.0023044593611630205 0.00023064860107567498 0.0002797375247443116 0.00023064860107567498 -0.00043118174995566646 -9.932978940940732e-05 0.0002797375247443116 -9.932978940940732e-05 -0.00044377889098847433" pbc="T T T"
Si       0.08883053      10.48593374      -1.32231197
Si      -1.54314101      -1.48927480       5.61136020
Si      -3.75782347      -3.89930066       9.56404418
Si       0.24906747      -3.15081526       8.55639710
Si      -5.57014506      -0.51041278       8.87254007
Si       4.27166035       2.26797318      -0.27107750
Si       2.43598346       0.95651584       0.00901096
Si      -2.08984925       1.74148655       8.24307110
Si      -1.70164684      -3.85210809       9.04163108
Si      -2.57773508       0.97258252       5.76859266
Si       1.20604062      -0.76531242       2.87184504
Si      -2.96138064       3.47895128       4.80070302
Si      -3.32872562      -2.88224464       6.42027341
Si      -0.91686232       7.53843422      -1.17548853
Si       1.13614011       1.18084076       3.72454448
Si       0.73304864       8.59053741      -2.02516928
Si      -0.88925743      -1.71378959       3.24609150
Si       2.46228495      -5.37407736       6.19687321
Si       0.26029251       2.76546868       2.62205357
Si      -3.26025851       2.71893183       6.76306368
Si      -1.16076468       4.20208529       3.28025012
Si      -1.34802326      -2.91830628       7.16956773
22
Lattice="5.496263286822286 -0.7377925302529473 -1.3900702664859441 -2.522985491139378 11.611474971146063 -2.346439933227414 -4.550808833988512 -5.7796120776434 10.870520861262248" Properties=species:S:1:pos:R:3 unique_starting_index=18 config_type=initial n_minim_iter=4 stress="-0.0008641208990510248 -0.00011003235221009466 8.607277304153017e-05 -0.00011003235221009466 -0.0004264831762563889 0.0004661756027494072 8.607277304153017e-05 0.0004661756027494072 -0.0011966651678733584" pbc="T T T"
Si       0.08844885      10.48527559      -1.32167986
Si      -1.54365644      -1.48893160       5.61099888
Si      -3.75892475      -3.89838241       9.56333823
Si       0.24872852      -3.15022314       8.55551529
Si      -5.57154495      -0.50972255       8.87221139
Si       4.27222102       2.26764931      -0.27129410
Si       2.43633441       0.95633337       0.00892400
Si      -2.09077933       1.74188794       8.24267168
Si      -1.70232183      -3.85135655       9.04080180
Si      -2.57850169       0.97291286       5.76835910
Si       1.20606831      -0.76525699       2.87145150
Si      -2.96226904       3.47917430       4.80065232
Si      -3.32956978      -2.88159605       6.41981633
Si      -0.91730323       7.53797565      -1.17496618
Si       1.13595376       1.18094536       3.72427984
Si       0.73291333       8.58986233      -2.02463667
Si      -0.88951594      -1.71348418       3.24581553
Si       2.46252908      -5.37361999       6.19599645
Si       0.25998043       2.76551149       2.62195732
Si      -3.26134523       2.71928309       6.76284518
Si      -1.16129388       4.20203376       3.28024043
Si      -1.34854180      -2.91769760       7.16894725
22
Lattice="5.496747347660341 -0.7375807977143596 -1.3910938719693355 -2.52273578045988 11.609864938980776 -2.3472172381975516 -4.55287060457671 -5.779615033035681 10.872840523494522" Properties=species:S:1:pos:R:3 unique_starting_index=18 config_type=initial n_minim_iter=5 stress="-0.0009303545564172799 0.00013235896523612712 -0.0008509166480405665 0.00013235896523612712 -0.000763033847321391 -0.0006001962407905339 -0.0008509166480405665 -0.0006001962407905339 -0.0006224178270386976" pbc="T T T"
Si       0.08867791      10.48373691      -1.32268891
Si      -1.54465317      -1.48929285       5.61194656
Si      -3.76086165      -3.89844708       9.56523032
Si       0.24731634      -3.15045460       8.55646253
Si      -5.57320644      -0.51040948       8.87420351
Si       4.27236902       2.26735433      -0.27246730
Si       2.43647239       0.95614893       0.00845892
Si      -2.09226352       1.74091400       8.24377058
Si      -1.70397963      -3.85151058       9.04236297
Si      -2.57958619       0.97232958       5.76928740
Si       1.20558755      -0.76556517       2.87145460
Si      -2.96316712       3.47831831       4.80124360
Si      -3.33088362      -2.88164651       6.42121686
Si      -0.91723874       7.53688394      -1.17556206
Si       1.13531582       1.18054316       3.72447770
Si       0.73329953       8.58865297      -2.02563204
Si      -0.89010689      -1.71348461       3.24642394
Si       2.46154120      -5.37348319       6.19666688
Si       0.25940224       2.76506335       2.62190544
Si      -3.26268864       2.71832345       6.76373331
Si      -1.16178694       4.20106539       3.28032463
Si      -1.34983440      -2.91794416       7.17019726
22
Lattice="5.496694985592914 -0.7379332243070581 -1.391647120124085 -2.5233237925954177 11.606613886582489 -2.3459033221836783 -4.552675746080898 -5.776164367744941 10.874469934452934" Properties=species:S:1:pos:R:3 unique_starting_index=18 config_type=initial n_minim_iter=6 stress="-0.0007714110300127961 0.0002120688253469741 0.00011969719703922381 0.0002120688253469741 -0.0009449200958178454 6.343782023229858e-05 0.00011969719703922381 6.343782023229858e-05 -0.00020187998184535846" pbc="T T T"
Si       0.08818445      10.48076550      -1.32129594
Si      -1.54455672      -1.48825307       5.61297309
Si      -3.76098277      -3.89539385       9.56678312
Si       0.24739386      -3.14831313       8.55762986
Si      -5.57284579      -0.50860637       8.87663815
Si       4.27192804       2.26663555      -0.27291333
Si       2.43648706       0.95574501       0.00854222
Si      -2.09239849       1.74183265       8.24619734
Si      -1.70408508      -3.84898439       9.04418652
Si      -2.57966513       0.97326431       5.77077887
Si       1.20542023      -0.76551509       2.87156996
Si      -2.96324925       3.47850123       4.80271320
Si      -3.33097662      -2.87962379       6.42217826
Si      -0.91782309       7.53476081      -1.17465949
Si       1.13509948       1.18107137       3.72584156
Si       0.73285757       8.58589594      -2.02468162
Si      -0.88999492      -1.71245117       3.24695621
Si       2.46144746      -5.37181637       6.19720786
Si       0.25887334       2.76527808       2.62284155
Si      -3.26297805       2.71898232       6.76546342
Si      -1.16171212       4.20048620       3.28152994
Si      -1.34988409      -2.91645575       7.17171020
22
Lattice="5.496730610545019 -0.7384335987910877 -1.392117780251209 -2.5239040928548033 11.607828793618436 -2.3453922050573857 -4.553067752342773 -5.776119504694756 10.87461261240532" Properties=species:S:1:pos:R:3 unique_starting_index=18 config_type=initial n_minim_iter=7 stress="-0.0010328165804194174 -0.00011803879580786958 -0.0004005959418052588 -0.00011803879580786958 0.0005121772641949906 0.00014925173228709805 -0.0004005959418052588 0.00014925173228709805 -0.0003735465515286033" pbc="T T T"
Si       0.08757698      10.48170712      -1.32100347
Si      -1.54484816      -1.48823127       5.61296466
Si      -3.76141462      -3.89516795       9.56686739
Si       0.24688665      -3.14838848       8.55739804
Si      -5.57324953      -0.50803247       8.87717657
Si       4.27165732       2.26661586      -0.27342130
Si       2.43639700       0.95564458       0.00837473
Si      -2.09314876       1.74235815       8.24641830
Si      -1.70468203      -3.84901163       9.04422821
Si      -2.58014429       0.97372596       5.77094887
Si       1.20515594      -0.76571426       2.87131625
Si      -2.96373078       3.47926351       4.80293718
Si      -3.33125248      -2.87947447       6.42231578
Si      -0.91831910       7.53549518      -1.17439125
Si       1.13461020       1.18118474       3.72582847
Si       0.73242318       8.58653725      -2.02451103
Si      -0.89010372      -1.71246068       3.24697866
Si       2.46118910      -5.37254456       6.19686472
Si       0.25840076       2.76570755       2.62279879
Si      -3.26365994       2.71971048       6.76569990
Si      -1.16218847       4.20110154       3.28165607
Si      -1.35036455      -2.91668252       7.17180421
22
Lattice="5.497767348254052 -0.7385635461344923 -1.3921650188998793 -2.5252255586759693 11.604230085899163 -2.3458220982743927 -4.553629995398662 -5.774324478270099 10.874661744084792" Properties=species:S:1:pos:R:3 unique_starting_index=18 config_type=initial n_minim_iter=8 stress="-0.00014074066193011487 0.0004110894155701032 0.00023887554386500088 0.0004110894155701032 9.306280977750724e-05 -0.0004047107941946398 0.00023887554386500088 -0.0004047107941946398 -0.0009430313182819582" pbc="T T T"
Si       0.08693197      10.47813351      -1.32137455
Si      -1.54499941      -1.48811206       5.61273531
Si      -3.76188671      -3.89377282       9.56667948
Si       0.24695953      -3.14763574       8.55719972
Si      -5.57386322      -0.50784065       8.87754456
Si       4.27225358       2.26580725      -0.27412251
Si       2.43683487       0.95504965       0.00838077
Si      -2.09383759       1.74164991       8.24634133
Si      -1.70539003      -3.84803349       9.04431816
Si      -2.58078973       0.97353325       5.77075142
Si       1.20521809      -0.76578307       2.87102493
Si      -2.96431569       3.47841599       4.80254751
Si      -3.33184961      -2.87850214       6.42230038
Si      -0.91928038       7.53304950      -1.17468473
Si       1.13439697       1.18032621       3.72571445
Si       0.73198211       8.58353545      -2.02493572
Si      -0.89008861      -1.71192283       3.24709427
Si       2.46170760      -5.37177703       6.19702481
Si       0.25817988       2.76482064       2.62240558
Si      -3.26448637       2.71892937       6.76539108
Si      -1.16266377       4.19991462       3.28130989
Si      -1.35084991      -2.91653935       7.17203854
22
Lattice="5.498748203962011 -0.7399030268503266 -1.3936878603239966 -2.5281944085192816 11.5994218011897 -2.3446129834754625 -4.554410192881329 -5.7690618803464035 10.87833562584435" Properties=species:S:1:pos:R:3 unique_starting_index=18 config_type=initial n_minim_iter=9 stress="0.0001262412241021376 -0.0005418021602981133 4.4210287601884215e-05 -0.0005418021602981133 -0.00021635092428664044 -0.0001564141253782802 4.4210287601884215e-05 -0.0001564141253782802 0.00026224566407743815" pbc="T T T"
Si       0.08451634      10.47317528      -1.32030409
Si      -1.54557821      -1.48657040       5.61453731
Si      -3.76283712      -3.88950500       9.56985322
Si       0.24625302      -3.14501392       8.55956239
Si      -5.57531612      -0.50501051       8.88195418
Si       4.27224448       2.26394983      -0.27511886
Si       2.43689181       0.95383515       0.00830283
Si      -2.09596937       1.74268597       8.24990027
Si      -1.70654931      -3.84466736       9.04732125
Si      -2.58233642       0.97477291       5.77317820
Si       1.20488739      -0.76544621       2.87145782
Si      -2.96613059       3.47854066       4.80504471
Si      -3.33260779      -2.87545299       6.42465319
Si      -0.92143138       7.52975461      -1.17389383
Si       1.13339002       1.17988397       3.72693331
Si       0.73017002       8.57904980      -2.02468975
Si      -0.89015828      -1.71043289       3.24824635
Si       2.46204067      -5.36982152       6.19805907
Si       0.25710208       2.76395232       2.62340794
Si      -3.26656626       2.71978584       6.76864005
Si      -1.16438229       4.19920213       3.28313367
Si      -1.35178225      -2.91439278       7.17439181
22
Lattice="5.4991022400327285 -0.7396508185882463 -1.394404070034681 -2.527440346642453 11.597820109692233 -2.3434561861023484 -4.556008347662316 -5.7676719850744895 10.879088720565186" Properties=species:S:1:pos:R:3 unique_starting_index=18 config_type=initial n_minim_iter=10 stress="0.0003936016704260242 0.0004113216059915604 -0.00025931417791464105 0.0004113216059915604 4.047335729823407e-05 0.0003025527169930439 -0.00025931417791464105 0.0003025527169930439 0.0004585830523859869" pbc="T T T"
Si       0.08531610      10.47189250      -1.31935437
Si      -1.54619758      -1.48611784       5.61490837
Si      -3.76423233      -3.88828150       9.57053046
Si       0.24517425      -3.14381930       8.55992202
Si      -5.57623242      -0.50449258       8.88340232
Si       4.27273797       2.26410820      -0.27552280
Si       2.43708372       0.95378974       0.00829189
Si      -2.09683862       1.74326708       8.25098736
Si      -1.70783645      -3.84350845       9.04795452
Si      -2.58303312       0.97519870       5.77390219
Si       1.20454552      -0.76507909       2.87137051
Si      -2.96641786       3.47856365       4.80604671
Si      -3.33364633      -2.87474037       6.42520592
Si      -0.92106459       7.52877971      -1.17317246
Si       1.13309251       1.18010758       3.72723683
Si       0.73097571       8.57786797      -2.02418670
Si      -0.89057354      -1.70997788       3.24847523
Si       2.46106244      -5.36885061       6.19781141
Si       0.25703439       2.76394900       2.62372278
Si      -3.26712546       2.72011412       6.76977220
Si      -1.16446151       4.19921396       3.28387432
Si      -1.35283020      -2.91366618       7.17477879
22
Lattice="5.49982177371553 -0.7408746411191826 -1.394665415016286 -2.5306815142273313 11.595504498375352 -2.34395577476133 -4.55547976362161 -5.765546288399946 10.879361808218503" Properties=species:S:1:pos:R:3 unique_starting_index=18 config_type=initial n_minim_iter=11 stress="0.0008975818034399407 -0.00011906948698155353 8.079305297851704e-05 -0.00011906948698155353 0.0003561877963556995 -0.00010980002366291832 8.079305297851704e-05 -0.00010980002366291832 0.0004879868550361004" pbc="T T T"
Si       0.08284628      10.46891117      -1.31968153
Si      -1.54593343      -1.48613440       5.61450153
Si      -3.76447080      -3.88640086       9.57041491
Si       0.24508125      -3.14352073       8.55996306
Si      -5.57629579      -0.50379637       8.88439592
Si       4.27314582       2.26310394      -0.27650130
Si       2.43707451       0.95254693       0.00863951
Si      -2.09823781       1.74323416       8.25095765
Si      -1.70770651      -3.84265038       9.04839872
Si      -2.58413520       0.97578822       5.77352061
Si       1.20438660      -0.76562889       2.87074356
Si      -2.96757673       3.47832421       4.80607655
Si      -3.33410441      -2.87354149       6.42529831
Si      -0.92355698       7.52707513      -1.17351424
Si       1.13257156       1.17910553       3.72702477
Si       0.72920973       8.57504189      -2.02495114
Si      -0.89033228      -1.70946524       3.24860884
Si       2.46157834      -5.36969156       6.19785671
Si       0.25609034       2.76316926       2.62286559
Si      -3.26814498       2.72052131       6.76955711
Si      -1.16562365       4.19900544       3.28344308
Si      -1.35277067      -2.91351647       7.17462619
22
Lattice="5.500148923617019 -0.7417233672746751 -1.394800209597888 -2.5330972996070753 11.59256090221677 -2.3444903942497977 -4.554896929724249 -5.763540727562872 10.879198517071469" Properties=species:S:1:pos:R:3 unique_starting_index=18 config_type=initial n_minim_iter=12 stress="0.0013283562648880693 -1.7624872394228698e-05 0.00019188751282014333 -1.7624872394228698e-05 0.0005979519334214116 -7.495866291563192e-05 0.00019188751282014333 -7.495866291563192e-05 0.0007071277909214646" pbc="T T T"
Si       0.08131984      10.46502935      -1.31983677
Si      -1.54529533      -1.48632184       5.61330147
Si      -3.76512405      -3.88438983       9.56975539
Si       0.24471347      -3.14326686       8.55981476
Si      -5.57554756      -0.50403233       8.88550769
Si       4.27408913       2.26296432      -0.27741343
Si       2.43697409       0.95130477       0.00932108
Si      -2.09873774       1.74276365       8.25039842
Si      -1.70806617      -3.84221020       9.04818065
Si      -2.58495715       0.97639086       5.77268054
Si       1.20399457      -0.76661273       2.86951525
Si      -2.96796781       3.47794671       4.80602478
Si      -3.33460043      -2.87295742       6.42542067
Si      -0.92567350       7.52520684      -1.17390049
Si       1.13150987       1.17880511       3.72645494
Si       0.72711104       8.57217839      -2.02559179
Si      -0.89002744      -1.70894893       3.24875459
Si       2.46134610      -5.37055700       6.19801440
Si       0.25536191       2.76224400       2.62210774
Si      -3.26838466       2.72116114       6.76917635
Si      -1.16574894       4.19890753       3.28260573
Si      -1.35313996      -2.91376319       7.17396362
22
Lattice="5.500233201875871 -0.7427813534330557 -1.3950682926091158 -2.5356807416714044 11.590334780083891 -2.344985904701429 -4.554032962362495 -5.761621112389137 10.879568943584458" Properties=species:S:1:pos:R:3 unique_starting_index=18 config_type=initial n_minim_iter=13 stress="0.0013215909576922463 -3.5780380129503395e-05 0.00017086905625069565 -3.5780380129503395e-05 0.0006591920368612504 -2.8305873820606714e-05 0.00017086905625069565 -2.8305873820606714e-05 0.0007321993631059196" pbc="T T T"
Si       0.07926104      10.46222740      -1.31978761
Si      -1.54461470      -1.48643382       5.61257491
Si      -3.76536504      -3.88265393       9.56963204
Si       0.24441519      -3.14297000       8.55979348
Si      -5.57503052      -0.50426948       8.88677639
Si       4.27410233       2.26263384      -0.27834142
Si       2.43680118       0.95046525       0.00934609
Si      -2.09927612       1.74247897       8.25013055
Si      -1.70830759      -3.84206475       9.04873390
Si      -2.58588108       0.97719988       5.77217674
Si       1.20363144      -0.76726534       2.86868749
Si      -2.96829968       3.47809627       4.80584288
Si      -3.33499480      -2.87268572       6.42601239
Si      -0.92785137       7.52380625      -1.17421749
Si       1.13055870       1.17798717       3.72616693
Si       0.72494734       8.56943532      -2.02632884
Si      -0.88976678      -1.70852498       3.24894692
Si       2.46118844      -5.37111146       6.19824318
Si       0.25462425       2.76169134       2.62196258
Si      -3.26871534       2.72175524       6.76960344
Si      -1.16579134       4.19886934       3.28199247
Si      -1.35302335      -2.91364365       7.17374734
22
Lattice="5.500414196848617 -0.7440107276638566 -1.3951483586250637 -2.5388878633715946 11.587577571654352 -2.3457410717006026 -4.5526551054281885 -5.759330427649915 10.879908039512634" Properties=species:S:1:pos:R:3 unique_starting_index=18 config_type=initial n_minim_iter=14 stress="0.0010354105391574418 -2.3523233618304926e-05 0.00014200483329481384 -2.3523233618304926e-05 0.0005031769552816041 0.00010733987268155824 0.00014200483329481384 0.00010733987268155824 0.0007235604504688263" pbc="T T T"
Si       0.07672921      10.45897342      -1.31960571
Si      -1.54350827      -1.48672413       5.61179575
Si      -3.76546560      -3.88070796       9.56942476
Si       0.24449451      -3.14253852       8.55968156
Si      -5.57406761      -0.50454477       8.88810192
Si       4.27388925       2.26228530      -0.27926565
Si       2.43658856       0.94938792       0.00976413
Si      -2.09968277       1.74213227       8.24977577
Si      -1.70781672      -3.84143702       9.04846300
Si      -2.58679521       0.97821809       5.77152534
Si       1.20337511      -0.76785234       2.86785331
Si      -2.96875499       3.47799755       4.80551628
Si      -3.33521064      -2.87265277       6.42682839
Si      -0.93061184       7.52204672      -1.17457901
Si       1.12992624       1.17711287       3.72589796
Si       0.72265976       8.56588890      -2.02727308
Si      -0.88941588      -1.70806565       3.24909717
Si       2.46117205      -5.37159068       6.19857683
Si       0.25403410       2.76109486       2.62207719
Si      -3.26888704       2.72236175       6.76986990
Si      -1.16546803       4.19887159       3.28122147
Si      -1.35310553      -2.91387510       7.17380416
22
Lattice="5.501165365131669 -0.7450020490577045 -1.3947682125111314 -2.5422538437629094 11.586507714389443 -2.3481961323395266 -4.5516311316016305 -5.759639699896158 10.879485210460398" Properties=species:S:1:pos:R:3 unique_starting_index=18 config_type=initial n_minim_iter=15 stress="0.0007335805324250854 -1.9071885690701123e-05 0.00015322384353489622 -1.9071885690701123e-05 0.0002587717455537927 -6.777515599017278e-06 0.00015322384353489622 -6.777515599017278e-06 0.00025428013729597587" pbc="T T T"
Si       0.07445145      10.45688774      -1.32093389
Si      -1.54227121      -1.48875128       5.61083529
Si      -3.76549151      -3.88105196       9.56820058
Si       0.24498574      -3.14378858       8.55853389
Si      -5.57333161      -0.50646619       8.88810157
Si       4.27392718       2.26239660      -0.28026384
Si       2.43668693       0.94867068       0.00988173
Si      -2.10014248       1.74053193       8.24782407
Si      -1.70770073      -3.84298588       9.04789548
Si      -2.58751535       0.97822434       5.76984124
Si       1.20331195      -0.76882981       2.86677273
Si      -2.96952939       3.47722127       4.80391478
Si      -3.33585968      -2.87434219       6.42719566
Si      -0.93361808       7.52128248      -1.17593350
Si       1.12949847       1.17606500       3.72487426
Si       0.72073504       8.56385710      -2.02922868
Si      -0.88917567      -1.70842571       3.24898764
Si       2.46116175      -5.37384955       6.19892055
Si       0.25368056       2.76042013       2.62135869
Si      -3.26924994       2.72222782       6.76806333
Si      -1.16484015       4.19916264       3.27925923
Si      -1.35374365      -2.91556794       7.17245058
22
Lattice="5.499871930235167 -0.7463186273715601 -1.3956389915673124 -2.544801362342483 11.586168483951123 -2.350905982085829 -4.55057733198326 -5.760438918048461 10.881173804509958" Properties=species:S:1:pos:R:3 unique_starting_index=18 config_type=initial n_minim_iter=16 stress="-0.0005172675779260025 0.00019350225423653313 -0.00010770394693862476 0.00019350225423653313 -0.00017933580024175096 0.00016498224574013266 -0.00010770394693862476 0.00016498224574013266 -0.00012447762623426045" pbc="T T T"
Si       0.07228852      10.45448209      -1.32229516
Si      -1.54064322      -1.49231592       5.61075909
Si      -3.76557736      -3.88179482       9.56820663
Si       0.24352045      -3.14537678       8.55719193
Si      -5.57147137      -0.50974730       8.89074571
Si       4.27207493       2.26329214      -0.28189282
Si       2.43566443       0.94806760       0.00967355
Si      -2.10170129       1.73899508       8.24651119
Si      -1.70900328      -3.84497009       9.04803262
Si      -2.58816198       0.97842883       5.76869132
Si       1.20197380      -0.76987102       2.86532614
Si      -2.96983744       3.47688190       4.80291157
Si      -3.33830112      -2.87731108       6.42894471
Si      -0.93707565       7.52112042      -1.17729859
Si       1.12747890       1.17514097       3.72390270
Si       0.71793738       8.56199915      -2.03210737
Si      -0.88874685      -1.70889793       3.24995179
Si       2.45778569      -5.37780188       6.19976707
Si       0.25261822       2.75995381       2.62050322
Si      -3.26934976       2.72297004       6.76725900
Si      -1.16323504       4.20129646       3.27758006
Si      -1.35492120      -2.91839243       7.17243005
22
Lattice="5.497258624793183 -0.7494089809704547 -1.3963447379803215 -2.5513809333456687 11.586876138458434 -2.357410169833825 -4.546388314406167 -5.762982947608554 10.883194133225313" Properties=species:S:1:pos:R:3 unique_starting_index=18 config_type=initial n_minim_iter=17 stress="-0.0019911473693684737 0.00011915045266195863 -0.00026091646971537926 0.00011915045266195863 -0.00098159875291256 9.849957597253091e-05 -0.00026091646971537926 9.849957597253091e-05 -0.0010058766735622311" pbc="T T T"
Si       0.06634537      10.45091096      -1.32656813
Si      -1.53735633      -1.49865454       5.60998565
Si      -3.76487703      -3.88409896       9.56778275
Si       0.24290211      -3.15038199       8.55495021
Si      -5.56763844      -0.51540704       8.89299517
Si       4.26781163       2.26346263      -0.28463709
Si       2.43367260       0.94706811       0.00841712
Si      -2.10408760       1.73537545       8.24248325
Si      -1.70766093      -3.84952223       9.04819881
Si      -2.58844550       0.97807813       5.76594408
Si       1.20017972      -0.77193040       2.86319348
Si      -2.97025092       3.47642401       4.79926852
Si      -3.34008069      -2.88236866       6.43126221
Si      -0.94391803       7.52151120      -1.18096051
Si       1.12373804       1.17223275       3.72165108
Si       0.71033791       8.55933192      -2.03835353
Si      -0.88672203      -1.70991857       3.25201761
Si       2.45367381      -5.38617120       6.20141359
Si       0.25028408       2.75848780       2.61776030
Si      -3.26935194       2.72305190       6.76414007
Si      -1.16147185       4.20478495       3.27383463
Si      -1.35656452      -2.92423968       7.17177334
22
Lattice="5.495504098331562 -0.7514502497692656 -1.3975783446922934 -2.555228471017507 11.588372173321254 -2.3616280842985296 -4.544588938802699 -5.765045838698724 10.886813845077699" Properties=species:S:1:pos:R:3 unique_starting_index=18 config_type=initial n_minim_iter=18 stress="-0.002350200932041906 0.0001402132070718836 -0.0003758208372284426 0.0001402132070718836 -0.001084194735073038 -2.7507007726433645e-05 -0.0003758208372284426 -2.7507007726433645e-05 -0.0011925881174726543" pbc="T T T"
Si       0.06261975      10.45000390      -1.32920895
Si      -1.53581759      -1.50283542       5.61028742
Si      -3.76544712      -3.88601405       9.56954158
Si       0.24256961      -3.15423767       8.55590257
Si      -5.56607258      -0.51897972       8.89629559
Si       4.26513326       2.26395328      -0.28673940
Si       2.43235148       0.94683002       0.00686161
Si      -2.10681116       1.73345752       8.24137874
Si      -1.70805913      -3.85326343       9.04978847
Si      -2.58927534       0.97843948       5.76554915
Si       1.19886515      -0.77325224       2.86226825
Si      -2.97082757       3.47643092       4.79784397
Si      -3.34276872      -2.88601409       6.43394813
Si      -0.94819888       7.52230476      -1.18312306
Si       1.12098331       1.17145287       3.72056010
Si       0.70623318       8.55799428      -2.04260360