16
Lattice="7.059502680503113 0.05838816893172141 0.05050096260788061 1.2462005634346505 6.948882746887965 0.05050096260740544 1.2462005634342475 1.051381768281758 6.86906967169115" Properties=species:S:1:pos:R:3 unique_starting_index=52 config_type=initial n_minim_iter=8 energy=-2603.205951967386 free_energy=-2603.205951967386 pbc="T T T"
Si       5.10692950       2.53242209       2.89444092
Si       4.04295430       4.49030404       2.08886786
Si       3.35614747       3.52823466       4.14240427
Si       1.43650927       2.98676419       2.06036922
Si       2.67590533       1.00023324       2.65866596
Si       3.18599474       2.17045006       0.60665031
Si       6.65511380       5.90223928       7.17985534
Si       8.96246062       5.22059125       4.80593566
Si       6.93852967       7.90707310       4.47351004
Si       7.58978516       6.07672702       3.16107779
Si       5.22457222       6.80728403       5.55775064
Si       7.26790183       4.05878438       5.93529573
Si       7.44526487       1.72873853       5.71881099
Si       7.07749185       6.34416585       0.88655170
Si       2.95765609       6.67479185       6.15018124
Si       5.69249060       4.80258236       4.15383863
