12
Lattice="11.057739533372423 0.4166839683330508 1.259709774297869 4.793500023837957 5.264483554972713 0.32387299249544294 6.299633498859415 -0.507174343305022 6.370619908422669" Properties=species:S:1:pos:R:3 unique_starting_index=78 config_type=initial n_minim_iter=1 energy=-1961.7434959710529 free_energy=-1961.7434959710529 pbc="T T T"
Si       7.71651675       2.92971402       4.19852796
Si      14.54424616       0.87118885       2.78433634
Si      17.32896324       5.46742181       3.08055168
Si       9.31279885       2.19343002       3.08199560
Si       7.82669426       3.66185739       2.21341940
Si      12.33930665       4.62732766       6.08693141
Si      10.90813082       1.23013915       1.95527405
Si      12.62962708       2.78944752       7.13267872
Si       9.00497776       0.30748005       2.12117348
Si      13.07029884       1.95827477       1.69513587
Si       9.28011131       2.50194229       5.56686303
Si      10.68023360       3.54724799       6.78268497
12
Lattice="11.053854409356912 0.41956090854218564 1.2682952471234252 4.793055371448223 5.257891285787803 0.3294033205675646 6.3015860009561795 -0.5024100737434094 6.3747362232940015" Properties=species:S:1:pos:R:3 unique_starting_index=78 config_type=initial n_minim_iter=2 stress="-0.01076116585931769 0.0006580124434046935 0.0005981766098353201 0.0006580124434046935 -0.008472536539959302 0.0007974910324624551 0.0005981766098353201 0.0007974910324624551 -0.004994756268618161" pbc="T T T"
Si       7.71723619       2.92895554       4.20527666
Si      14.53982520       0.87460445       2.79555424
Si      17.32537160       5.46482768       3.09593531
Si       9.31158152       2.19378671       3.08929633
Si       7.82655185       3.65964544       2.22078028
Si      12.33971094       4.62583058       6.09794823
Si      10.90483648       1.23170403       1.96390867
Si      12.62973975       2.79101767       7.14204239
Si       9.00265112       0.31052109       2.12812980
Si      13.06658446       1.95950122       1.70579313
Si       9.28078852       2.50246504       5.57434911
Si      10.68147847       3.54743704       6.79175383
12
Lattice="11.06473844727468 0.4213436392448421 1.2752256118237428 4.798402729282268 5.257422445888157 0.3332677173425543 6.310842707920296 -0.5001336770798684 6.3814879541775795" Properties=species:S:1:pos:R:3 unique_starting_index=78 config_type=initial n_minim_iter=3 stress="0.004798938522028535 0.001114528831152737 0.006436974143901707 0.001114528831152737 -0.005299004243312745 0.0008443147636821455 0.006436974143901707 0.0008443147636821455 0.004947231206684795" pbc="T T T"
Si       7.72727530       2.93031908       4.21267165
Si      14.55461088       0.87678073       2.80521368
Si      17.34393424       5.46634120       3.10889319
Si       9.32210742       2.19537057       3.09598987
Si       7.83641819       3.66085485       2.22715347
Si      12.35512613       4.62778464       6.10938200
Si      10.91584938       1.23328856       1.97129237
Si      12.64527348       2.79318341       7.15247068
Si       9.01177161       0.31258273       2.13452975
Si      13.08022463       1.96146512       1.71427903
Si       9.29262143       2.50412544       5.58282249
Si      10.69524078       3.54955681       6.80198687
12
Lattice="11.064461336592478 0.4237891143819173 1.2645664011788216 4.799190243965371 5.261767774027396 0.3313425455811923 6.305653696234798 -0.4964805594663492 6.36955249592937" Properties=species:S:1:pos:R:3 unique_starting_index=78 config_type=initial n_minim_iter=4 stress="8.563960395498426e-05 0.002897128138901381 -0.0010134460437099945 0.002897128138901381 -0.0022556046345699786 0.0038018001235479936 -0.0010134460437099945 0.0038018001235479936 0.00010702641746068" pbc="T T T"
Si       7.72615567       2.93599215       4.20535532
Si      14.55161835       0.87923973       2.78950765
Si      17.34439647       5.47187505       3.09634098
Si       9.32007492       2.20055001       3.08287750
Si       7.83976204       3.66764071       2.21995258
Si      12.35167172       4.63603581       6.09806423
Si      10.91345319       1.23617146       1.96082954
Si      12.63842953       2.79808207       7.13176814
Si       9.00863737       0.31742338       2.12588798
Si      13.08256145       1.96634825       1.70170387
Si       9.28811932       2.50936622       5.56985158
Si      10.68866164       3.55603076       6.78741890
12
Lattice="11.061797157962648 0.41667292635882863 1.2663963251153123 4.7950698877962035 5.259923479314051 0.3287143061802038 6.305856027010952 -0.5045796051131586 6.369251609451018" Properties=species:S:1:pos:R:3 unique_starting_index=78 config_type=initial n_minim_iter=5 stress="0.0006941752711470581 -0.0020151732097608652 0.000997911174754509 -0.0020151732097608652 -0.0026184437371148464 -0.0014784481234016962 0.000997911174754509 -0.0014784481234016962 0.001175961126662069" pbc="T T T"
Si       7.72371309       2.92969782       4.20395246
Si      14.54805727       0.86872515       2.79118740
Si      17.33799913       5.46066262       3.09659672
Si       9.31705149       2.19408288       3.08141310
Si       7.83723121       3.66265311       2.21801364
Si      12.34741701       4.62618557       6.09650153
Si      10.90991654       1.22843108       1.96190184
Si      12.63537534       2.78569841       7.12963966
Si       9.00644567       0.31141033       2.12722336
Si      13.07916443       1.95805287       1.70278537
Si       9.28602567       2.50053645       5.56848623
Si      10.68439367       3.54619433       6.78527977
12
Lattice="11.056431536256449 0.42489312707095134 1.2693094243324046 4.79609850674172 5.270654519002378 0.33082020813128304 6.304397648415822 -0.5002578413333205 6.365213602909569" Properties=species:S:1:pos:R:3 unique_starting_index=78 config_type=initial n_minim_iter=6 stress="-0.0005286363630793868 0.0037039046521784138 0.003660772150304389 0.0037039046521784138 0.003651033309221735 -0.001920828523338457 0.003660772150304389 -0.001920828523338457 -0.0021175258819812093" pbc="T T T"
Si       7.72287974       2.94108666       4.20229930
Si      14.54212020       0.87947848       2.79360186
Si      17.33389466       5.48058383       3.10342467
Si       9.31382228       2.20600832       3.07954220
Si       7.83742702       3.67293528       2.21734286
Si      12.34619121       4.64276815       6.09686796
Si      10.90484261       1.23728802       1.96448833
Si      12.63305751       2.79761245       7.12658085
Si       9.00115418       0.31844010       2.12862664
Si      13.07470146       1.96836541       1.70707109
Si       9.28583753       2.50997496       5.56669847
Si      10.68145216       3.55994952       6.78411329
12
Lattice="11.050260752635602 0.4194278540395806 1.260319802226234 4.790234045622327 5.2711650421264835 0.33349699097883295 6.2968627718078505 -0.49666048249101163 6.356043591247523" Properties=species:S:1:pos:R:3 unique_starting_index=78 config_type=initial n_minim_iter=7 stress="0.0041761889791215 -0.002305233349582077 -9.31740585317036e-05 -0.002305233349582077 0.002393317759293039 0.003216552092208897 -9.31740585317036e-05 0.003216552092208897 0.0014193468788489098" pbc="T T T"
Si       7.71380860       2.94660990       4.19611853
Si      14.53481749       0.87205509       2.78114148
Si      17.32150749       5.47728750       3.10122815
Si       9.30403653       2.21016478       3.06719894
Si       7.83217232       3.67159329       2.20927408
Si      12.33374506       4.64675261       6.09170658
Si      10.89584599       1.23207366       1.95738037
Si      12.61991700       2.79763557       7.11408506
Si       8.99141267       0.31648669       2.12134085
Si      13.06751612       1.95906752       1.70034699
Si       9.27840424       2.50978376       5.55931277
Si      10.66613743       3.56503245       6.77912519
12
Lattice="11.039223775045203 0.4244113177409103 1.2527212213565855 4.788243720641895 5.275713116266162 0.32633821575154115 6.286672946251274 -0.4985226160451972 6.350477459033774" Properties=species:S:1:pos:R:3 unique_starting_index=78 config_type=initial n_minim_iter=8 stress="-0.001610075412358598 0.0029436021302571445 -0.002800055357044323 0.0029436021302571445 0.0014771819157746982 -0.00318257937112226 -0.002800055357044323 -0.00318257937112226 0.01054248525575826" pbc="T T T"
Si       7.70542782       2.95205956       4.18698895
Si      14.52362782       0.87521864       2.77098416
Si      17.30663392       5.48651131       3.09115562
Si       9.29253699       2.21863950       3.05210916
Si       7.82762159       3.67410957       2.19435000
Si      12.32172681       4.65172741       6.08167691
Si      10.88350928       1.23568741       1.95030335
Si      12.60327939       2.79895579       7.09979108
Si       8.97723438       0.32101929       2.11575269
Si      13.05538221       1.96248066       1.69137825
Si       9.26972148       2.50825235       5.54905192
Si      10.65285334       3.56805311       6.77121941
12
Lattice="11.04067802630473 0.42048263054147983 1.2501247774611597 4.7869447162491 5.2774599470589045 0.3256108276352547 6.288197861408557 -0.5014877941463626 6.333796037057746" Properties=species:S:1:pos:R:3 unique_starting_index=78 config_type=initial n_minim_iter=9 stress="0.003162837191764053 4.928660476702678e-06 -0.0024052776229787354 4.928660476702678e-06 -6.81547661906315e-05 -0.0021610528998110014 -0.0024052776229787354 -0.0021610528998110014 -0.004425220487585857" pbc="T T T"
Si       7.70596719       2.95434321       4.17498902
Si      14.52986509       0.86744349       2.76527008
Si      17.30733010       5.48381558       3.08851341
Si       9.29132440       2.22121061       3.03817674
Si       7.82985611       3.67169651       2.18334090
Si      12.32325196       4.65075984       6.06958044
Si      10.88323611       1.23174022       1.94728713
Si      12.60272604       2.79527068       7.07958191
Si       8.97432522       0.31914333       2.11158714
Si      13.05650331       1.95644066       1.68849613
Si       9.27229751       2.50303340       5.53374707
Si      10.65272397       3.56702678       6.75701036
12
Lattice="11.026586149728711 0.4158912878007707 1.25591143557487 4.778031407756626 5.281603634725245 0.331158231359147 6.28351025127175 -0.501685797999152 6.335650773670353" Properties=species:S:1:pos:R:3 unique_starting_index=78 config_type=initial n_minim_iter=10 stress="-0.00149516289489398 -0.0017427815316583036 1.3387449679442168e-05 -0.0017427815316583036 0.00609782424852784 -0.00015083448264994757 1.3387449679442168e-05 -0.00015083448264994757 0.00025759505515236055" pbc="T T T"
Si       7.69725441       2.95823832       4.17945610
Si      14.51478795       0.86073288       2.77349209
Si      17.28326919       5.48293554       3.10308742
Si       9.27834511       2.22347863       3.04014561
Si       7.82019505       3.67212528       2.18638052
Si      12.30855272       4.65343146       6.07888068
Si      10.86780815       1.22920322       1.95497018
Si      12.58700535       2.79636185       7.08559539
Si       8.96209638       0.31685019       2.11639327
Si      13.03916314       1.95212128       1.69637491
Si       9.26227332       2.50255702       5.53823992
Si      10.63913229       3.56977460       6.76539874
12
Lattice="11.025808876720339 0.4175731183043231 1.2523242158624939 4.778566919156776 5.279916125044816 0.3301642880601596 6.281337044510839 -0.4998457114912864 6.3314130436623" Properties=species:S:1:pos:R:3 unique_starting_index=78 config_type=initial n_minim_iter=11 stress="0.00020286159717213141 0.0001109838831770957 -0.0017004880208529047 0.0001109838831770957 0.0028569036713554353 -2.6480354286221207e-05 -0.0017004880208529047 -2.6480354286221207e-05 -0.001837957993175673" pbc="T T T"
Si       7.69754841       2.95984499       4.17571466
Si      14.51606139       0.86170525       2.76875023
Si      17.28241549       5.48248576       3.09930896
Si       9.27637401       2.22604904       3.03370769
Si       7.82076856       3.67098646       2.18174270
Si      12.30761848       4.65329568       6.07411369
Si      10.86642902       1.23151168       1.95278513
Si      12.58422085       2.79812700       7.07930826
Si       8.96018668       0.31871380       2.11325691
Si      13.03876442       1.95289133       1.69257377
Si       9.26094710       2.50212798       5.53278587
Si      10.63444098       3.57076697       6.76144164
12
Lattice="11.012683133376306 0.40603978632480986 1.258125146663326 4.767669103051516 5.2740889182527315 0.3310984658317276 6.277099658074906 -0.5078394477621845 6.339592975520024" Properties=species:S:1:pos:R:3 unique_starting_index=78 config_type=initial n_minim_iter=12 stress="0.0008985364519888005 -0.000525506603852572 0.00010578110855759696 -0.000525506603852572 0.0009597080386353538 -0.0005829500646282708 0.00010578110855759696 -0.0005829500646282708 0.0010004897581690263" pbc="T T T"
Si       7.69125245       2.95384585       4.18023896
Si      14.50167855       0.84364222       2.77718017
Si      17.26011809       5.46106041       3.10899987
Si       9.26120097       2.21950768       3.03366711
Si       7.81155025       3.65938524       2.18360684
Si      12.29007615       4.63806867       6.08530286
Si      10.85593022       1.22201179       1.96166469
Si      12.56534839       2.78445396       7.09056730
Si       8.94518405       0.31082376       2.12040078
Si      13.02432550       1.93688838       1.70181376
Si       9.25081654       2.48762700       5.53828441
Si      10.61514667       3.55741957       6.77288500
12
Lattice="11.00230970022258 0.39429115505094947 1.2583320608498019 4.757563300528961 5.272486144256281 0.3318182094027859 6.271145801623524 -0.5139901048929467 6.347790913873271" Properties=species:S:1:pos:R:3 unique_starting_index=78 config_type=initial n_minim_iter=13 stress="0.000607008043833626 0.0002229715829990704 0.0006882484771248812 0.0002229715829990704 -0.0009044934636025225 -0.00019573709389801542 0.0006882484771248812 -0.00019573709389801542 0.0020905702402845058" pbc="T T T"
Si       7.68606217       2.95309004       4.18295497
Si      14.49141341       0.82734486       2.77770817
Si      17.24035921       5.44063134       3.11066351
Si       9.24635770       2.21613324       3.02951500
Si       7.80302056       3.65042778       2.18362488
Si      12.27137775       4.62864992       6.09615744
Si      10.84564888       1.20955918       1.96677185
Si      12.54388605       2.77502524       7.10211951
Si       8.93316201       0.30648844       2.12445318
Si      13.01618550       1.92171563       1.70704755
Si       9.23947681       2.47434059       5.54079027
Si      10.59455500       3.55291944       6.78598948
12
Lattice="10.99943036018709 0.3926528658375048 1.2594673922990471 4.755214378163839 5.273144713255992 0.3347079199299998 6.269861911264081 -0.5123666955263034 6.350525950978" Properties=species:S:1:pos:R:3 unique_starting_index=78 config_type=initial n_minim_iter=14 stress="-0.0012932861469076961 0.0006857959743435107 0.0011315019337969187 0.0006857959743435107 -0.003359189318981267 0.00011250354755422987 0.0011315019337969187 0.00011250354755422987 0.0008439295824927548" pbc="T T T"
Si       7.68513700       2.95712871       4.18455030
Si      14.49050968       0.82421059       2.77917879
Si      17.23561333       5.43645903       3.11377948
Si       9.24303289       2.21792558       3.02932156
Si       7.80019330       3.65169101       2.18449100
Si      12.26588270       4.63060299       6.10260764
Si      10.84326553       1.20774953       1.97090374
Si      12.53587820       2.77717062       7.10916275
Si       8.92959414       0.30878998       2.12719541
Si      13.01537892       1.91960851       1.71129229
Si       9.23936774       2.47314197       5.54432776
Si      10.58787413       3.55513552       6.79167170
12
Lattice="10.995592388398155 0.38869569480214955 1.2602315256701484 4.7509430078190755 5.276563584983261 0.34012568700901824 6.2683179649449645 -0.5097815295067909 6.349488031154147" Properties=species:S:1:pos:R:3 unique_starting_index=78 config_type=initial n_minim_iter=15 stress="0.0006534356372974422 0.0015733099528161966 0.0009592222420482709 0.0015733099528161966 -0.002944536858665983 0.0008715314903028636 0.0009592222420482709 0.0008715314903028636 -0.0005549203867918649" pbc="T T T"
Si       7.68456070       2.96277105       4.18752143
Si      14.48939583       0.81749370       2.77992263
Si      17.22724079       5.43513594       3.11806653
Si       9.23989700       2.21994011       3.02992165
Si       7.79575141       3.65485197       2.18509048
Si      12.25665822       4.63645393       6.10648070
Si      10.84118322       1.20311086       1.97436729
Si      12.52484329       2.78048372       7.11468146
Si       8.92530835       0.30926824       2.12894514
Si      13.01220038       1.91565972       1.71576163
Si       9.23708634       2.47416383       5.54451250
Si      10.57852410       3.56175169       6.79532448
12
Lattice="10.995415350720478 0.3821913544487654 1.2538353341487816 4.747341254204223 5.283449799031164 0.3399635081554123 6.26599954388075 -0.5122592251983036 6.340045196864366" Properties=species:S:1:pos:R:3 unique_starting_index=78 config_type=initial n_minim_iter=16 stress="0.001593409228542213 0.00021361282505368665 0.00048321146119660206 0.00021361282505368665 -0.0006785202855748825 -0.0002266579955944729 0.00048321146119660206 -0.0002266579955944729 4.513506900079945e-06" pbc="T T T"
Si       7.68528701       2.96931509       4.17928846
Si      14.49166249       0.80516659       2.76965868
Si      17.22523001       5.43401442       3.10949814
Si       9.24126916       2.21921590       3.02187946
Si       7.79200704       3.65611248       2.17792738
Si      12.24745560       4.63893796       6.09352106
Si      10.84256868       1.19516764       1.97169681
Si      12.51005285       2.78193987       7.10734672
Si       8.92232347       0.30830550       2.12506225
Si      13.01390810       1.91099614       1.71011855
Si       9.23720437       2.47093378       5.53296095
Si      10.56696738       3.56868977       6.78626487
12
Lattice="10.996642207521296 0.37987262630273194 1.2532249251996934 4.746258635460541 5.28990010058665 0.34215442214720243 6.2666742896917915 -0.5120148759240165 6.338023369547536" Properties=species:S:1:pos:R:3 unique_starting_index=78 config_type=initial n_minim_iter=17 stress="0.000997800141762477 -0.0009712487808146864 0.00046845205507396346 -0.0009712487808146864 0.0022232869962924653 3.8594064644768735e-05 0.00046845205507396346 3.8594064644768735e-05 0.0012728655860450083" pbc="T T T"
Si       7.68769766       2.97560540       4.17962287
Si      14.49435781       0.80057248       2.76755611
Si      17.22729424       5.43883955       3.10967393
Si       9.24477143       2.22091106       3.02113004
Si       7.79137839       3.65849426       2.17486714
Si      12.24506196       4.64346086       6.09367177
Si      10.84439877       1.19296388       1.97420076
Si      12.50402663       2.78755432       7.10890859
Si       8.92232496       0.30983708       2.12602837
Si      13.01716175       1.90948319       1.71097822
Si       9.24050495       2.47108382       5.53036414
Si      10.56180898       3.57675374       6.78622520
12
Lattice="11.000291343360443 0.3797187424240081 1.251275854900087 4.747299274192535 5.29485489048516 0.3441223903562316 6.268125285761983 -0.5098797390345299 6.3330341761850315" Properties=species:S:1:pos:R:3 unique_starting_index=78 config_type=initial n_minim_iter=18 stress="0.003103212884709785 0.000608867756800568 -0.00038387081659869304 0.000608867756800568 0.00277325038117178 -0.0005168249668455151 -0.00038387081659869304 -0.0005168249668455151 -0.00024695209490395605" pbc="T T T"
Si       7.69442857       2.98369987       4.17686855
Si      14.50247612       0.79892385       2.76160794
Si      17.23317841       5.44467851       3.11155669
Si       9.25204070       2.22520901       3.02005134
Si       7.79283618       3.65789632       2.16901734
Si      12.24390086       4.65048816       6.09238666
Si      10.84837022       1.19221339       1.97545706
Si      12.49741843       2.79624687       7.10735837
Si       8.92360199       0.31659972       2.12745004
Si      13.02504487       1.90693037       1.70809148
Si       9.24822457       2.46940516       5.52321720
Si      10.55672900       3.58520307       6.78130500
12
Lattice="11.005471031340319 0.3765239500228346 1.249895540290455 4.746856256151431 5.302116443688937 0.35161289433448223 6.270865591630519 -0.5041878034221051 6.327305607522417" Properties=species:S:1:pos:R:3 unique_starting_index=78 config_type=initial n_minim_iter=19 stress="-7.042049633475794e-05 -0.001752379265065988 0.0004992349980794885 -0.001752379265065988 0.001991626639979458 -0.0005543202188463298 0.0004992349980794885 -0.0005543202188463298 -0.00011151972925444835" pbc="T T T"
Si       7.70496503       2.99759801       4.17611519
Si      14.51325300       0.78948286       2.75527863
Si      17.24357130       5.44940604       3.12194335
Si       9.26262028       2.23372098       3.02380977
Si       7.79162227       3.65842603       2.16211603
Si      12.24060736       4.66365684       6.09891403
Si      10.85363851       1.18942352       1.98001211
Si      12.48704867       2.81041475       7.11155164
Si       8.92444523       0.32540862       2.13205677
Si      13.03605587       1.90030553       1.70336386
Si       9.25930011       2.46494983       5.51404896
Si      10.54640843       3.60256750       6.77957274
12
Lattice="11.011909741222167 0.379285348336349 1.235636644865222 4.750636324831614 5.309090708069448 0.34849959135707675 6.266828441920635 -0.49999901583001966 6.32033523081357" Properties=species:S:1:pos:R:3 unique_starting_index=78 config_type=initial n_minim_iter=20 stress="0.0029834207516028183 -0.0007929786281766719 -0.0004340689795936354 -0.0007929786281766719 0.00309505572874446 -0.0008805762034017172 -0.0004340689795936354 -0.0008805762034017172 0.001113898200822744" pbc="T T T"
Si       7.71307382       3.01021432       4.16585849
Si      14.52398820       0.78555999       2.73321915
Si      17.25595883       5.46154037       3.10500304
Si       9.27151419       2.24500476       3.01774921
Si       7.79500757       3.66127829       2.14836720
Si      12.23794650       4.67713143       6.09090947
Si      10.85783672       1.19260805       1.97231378
Si      12.47097104       2.82154565       7.10343083
Si       8.92684732       0.33553800       2.12693903
Si      13.04810619       1.89928367       1.68256812
Si       9.26848519       2.46146736       5.49650897
Si      10.53367979       3.61855093       6.76787330
12
Lattice="11.001724310705665 0.3862666443654345 1.2216278442790773 4.748926757789162 5.312550971351944 0.3491776010051467 6.252180987566726 -0.48822607180579664 6.320424283563099" Properties=species:S:1:pos:R:3 unique_starting_index=78 config_type=initial n_minim_iter=21 stress="-0.001138285472628671 -0.0005064526106785028 0.0006735365770270317 -0.0005064526106785028 -0.00029307888502938794 0.0011798224157629435 0.0006735365770270317 0.0011798224157629435 0.0005298005178999645" pbc="T T T"
Si       7.71288131       3.02589193       4.16173937
Si      14.51477382       0.78516158       2.71026027
Si      17.24124317       5.47784290       3.09264573
Si       9.26925173       2.25966929       3.02053047
Si       7.78625454       3.66331073       2.14050443
Si      12.20982457       4.69220560       6.09356450
Si      10.84658948       1.20382608       1.96842648
Si      12.43201142       2.83614850       7.11039225
Si       8.91398160       0.35221411       2.13060684
Si      13.04535993       1.90337249       1.65794017
Si       9.26905920       2.45690883       5.48235365
Si      10.50362469       3.64598634       6.75951881
