12
Lattice="7.248192647508378 0.5115611742453402 0.5291312304695549 3.139640072880448 6.236461632759692 -0.42103579679352415 3.867527109064658 -1.071507307421966 6.382842815150654" Properties=species:S:1:pos:R:3 unique_starting_index=78 config_type=initial n_minim_iter=1 energy=-1954.0970456760026 free_energy=-1954.0970456760026 pbc="T T T"
Si       4.14929756       2.65196460       3.11466622
Si       9.58179364       2.53597071       2.61782649
Si      11.30836729       6.91788075       2.71521140
Si       5.98734901       1.67263680       2.71164433
Si       5.21222796       4.05189794       1.91604541
Si       8.64827076       4.89863475       5.44138510
Si       7.26193842       0.84831813       1.22958976
Si       8.66096595       2.89591974       6.17016658
Si       5.34710166       0.19990538       0.59119645
Si       8.59488466       2.39413150       0.66897514
Si       5.13385341       2.56669966       4.99839841
Si       6.83907909       3.76154189       5.47109044
12
Lattice="7.251462779452772 0.5228367282950622 0.5322073286004355 3.1487261367940613 6.259907183529505 -0.4183142130560983 3.8691314682531046 -1.067116121261812 6.394795750552601" Properties=species:S:1:pos:R:3 unique_starting_index=78 config_type=initial n_minim_iter=2 stress="0.024602747200404555 0.0034457068323399333 0.0011596542189836257 0.0034457068323399333 0.004738376063042311 -0.005622579972387209 0.0011596542189836257 -0.005622579972387209 0.011777654853490891" pbc="T T T"
Si       4.15525514       2.66695779       3.12263094
Si       9.58918112       2.55750335       2.62598520
Si      11.32250728       6.95551232       2.72662306
Si       5.99221621       1.68683919       2.71865855
Si       5.21965382       4.07204248       1.92246119
Si       8.65894605       4.92775051       5.45558698
Si       7.26539787       0.86114248       1.23396089
Si       8.66917597       2.91884149       6.18483255
Si       5.34885298       0.20775336       0.59359697
Si       8.60178720       2.41384254       0.67322507
Si       5.14081565       2.58381063       5.00972598
Si       6.84690774       3.78336932       5.48397589
12
Lattice="7.221220117306677 0.5315938773061248 0.533641523172022 3.140939235625647 6.279708378165559 -0.40816523736112026 3.85237245289814 -1.0566595536486967 6.392773514081105" Properties=species:S:1:pos:R:3 unique_starting_index=78 config_type=initial n_minim_iter=3 stress="-0.018857830089390952 0.014632088755050043 0.005308986147769116 0.014632088755050043 0.0013023991565953251 -0.007967553899411235 0.005308986147769116 -0.007967553899411235 -0.001419105906363664" pbc="T T T"
Si       4.14133494       2.68330369       3.12738544
Si       9.55140560       2.57733899       2.63031192
Si      11.28196365       6.98974506       2.73898846
Si       5.96866114       1.70103917       2.72100143
Si       5.20073017       4.09049127       1.92906612
Si       8.62658061       4.95795399       5.46413832
Si       7.23511926       0.87287685       1.23573566
Si       8.63517714       2.94474082       6.18976838
Si       5.32577862       0.21416756       0.59411851
Si       8.56832646       2.43012243       0.67750924
Si       5.12333948       2.60441261       5.01340050
Si       6.81955816       3.80606952       5.48956270
12
Lattice="7.215333432942853 0.5254485060902248 0.5306782384653668 3.1320715950063827 6.285889446353122 -0.3976714699874334 3.8473603665875378 -1.0502205154264137 6.388877171578264" Properties=species:S:1:pos:R:3 unique_starting_index=78 config_type=initial n_minim_iter=4 stress="-0.012651523658435956 -0.0005019657551626747 -0.004451839483861821 -0.0005019657551626747 0.003431087181889279 0.001297525937157994 -0.004451839483861821 0.001297525937157994 0.0020886735280041266" pbc="T T T"
Si       4.13423644       2.68981046       3.13103515
Si       9.54087275       2.57609984       2.62987956
Si      11.26585982       6.99443250       2.74703031
Si       5.96159970       1.70221573       2.72065128
Si       5.19094134       4.09458528       1.93421023
Si       8.61187790       4.96699204       5.46966307
Si       7.22850376       0.86961757       1.23325300
Si       8.62242844       2.95238762       6.19132129
Si       5.32027255       0.21001431       0.59140412
Si       8.55980022       2.42628574       0.67741649
Si       5.11551867       2.61357883       5.01559848
Si       6.80587081       3.81346297       5.49322603
12
Lattice="7.220477962419002 0.5260210723584899 0.5379310298336866 3.1336985835091045 6.286181411539831 -0.38873797817673184 3.8563481494007092 -1.0449333343722937 6.38458074722383" Properties=species:S:1:pos:R:3 unique_starting_index=78 config_type=initial n_minim_iter=5 stress="-0.006166328096784271 -0.0007568633240211419 0.006840871202787951 -0.0007568633240211419 0.000527890844274429 0.002197594924183122 0.006840871202787951 0.002197594924183122 -0.0032865622076631252" pbc="T T T"
Si       4.14011717       2.69331924       3.13472557
Si       9.55019821       2.57864276       2.63843347
Si      11.27713439       6.99786598       2.76193626
Si       5.96951006       1.70383831       2.72375385
Si       5.19559410       4.09595494       1.94046744
Si       8.62220404       4.97151678       5.47711394
Si       7.23454194       0.87169467       1.23972418
Si       8.63445257       2.95830467       6.19599463
Si       5.32262975       0.21051629       0.59582397
Si       8.56656268       2.42760337       0.68737477
Si       5.12512371       2.61848611       5.01690529
Si       6.81370778       3.81770475       5.49761803
12
Lattice="7.224209587021377 0.5298056658883745 0.5273910233030072 3.1395660936816 6.284674782369029 -0.3925214641198508 3.8490696660429777 -1.0419660244657343 6.3738832568395765" Properties=species:S:1:pos:R:3 unique_starting_index=78 config_type=initial n_minim_iter=6 stress="-0.0027163349344490433 0.0012298036370494815 -0.0023089521763072153 0.0012298036370494815 0.003249557094684874 0.0004201837296657752 -0.0023089521763072153 0.0004201837296657752 -0.010806511205981535" pbc="T T T"
Si       4.13959105       2.69438564       3.12801922
Si       9.55443201       2.58274844       2.62232938
Si      11.28563184       7.00129920       2.74471887
Si       5.97113463       1.70569261       2.71185042
Si       5.19754629       4.09632494       1.93082474
Si       8.62130418       4.97255298       5.46161369
Si       7.23670836       0.87520356       1.22746091
Si       8.63256207       2.96256284       6.17962025
Si       5.32352049       0.21353953       0.58725512
Si       8.57311749       2.43206504       0.67470148
Si       5.12397315       2.62034665       5.00516534
Si       6.80942582       3.82011462       5.48564333
12
Lattice="7.223405136674892 0.5300430287073234 0.5249222204417994 3.140132332878182 6.277684753933554 -0.3935312508181509 3.845852877930015 -1.0394568172710437 6.37938045050325" Properties=species:S:1:pos:R:3 unique_starting_index=78 config_type=initial n_minim_iter=7 stress="-0.0056621670925406055 -0.001482806487113768 0.0007854804668932021 -0.001482806487113768 -0.0035109868124629335 0.0002378421556784826 0.0007854804668932021 0.0002378421556784826 0.0005311878194973305" pbc="T T T"
Si       4.13832676       2.69190615       3.13084921
Si       9.55363789       2.58113891       2.62085091
Si      11.28607949       6.99537927       2.74443608
Si       5.96985087       1.70449460       2.71165246
Si       5.19609327       4.09189771       1.93050575
Si       8.61765998       4.96728741       5.46554757
Si       7.23525385       0.87518150       1.22399456
Si       8.62949224       2.96143859       6.18392986
Si       5.32156402       0.21428069       0.58519294
Si       8.57299637       2.43052408       0.67205821
Si       5.12289894       2.61834492       5.00898476
Si       6.80496443       3.81789643       5.49148363
12
Lattice="7.2259574871792935 0.5395712688272537 0.5135716953777906 3.1496996735080196 6.281231659324609 -0.39153825538190434 3.8353946789607876 -1.0272407962377055 6.373270222068237" Properties=species:S:1:pos:R:3 unique_starting_index=78 config_type=initial n_minim_iter=8 stress="0.0018597849719244823 0.005330851233196103 -0.0010063343408281478 0.005330851233196103 -0.003981294283289848 0.004885244163976521 -0.0010063343408281478 0.004885244163976521 -0.0010672360841639768" pbc="T T T"
Si       4.14012850       2.69876400       3.12751585
Si       9.55963023       2.59596117       2.60587661
Si      11.29932788       7.01534360       2.73148430
Si       5.96860277       1.71519585       2.70093728
Si       5.19749076       4.09834309       1.92447380
Si       8.61432900       4.98210906       5.46018740
Si       7.23786119       0.88744182       1.21073184
Si       8.62600822       2.97939653       6.17718981
Si       5.31702592       0.22467511       0.57613788
Si       8.57886818       2.44060634       0.66149902
Si       5.12218747       2.62702285       5.00572691
Si       6.80159461       3.83663414       5.49417583
12
Lattice="7.2197111018285725 0.5341403760545986 0.4960265514081269 3.1435417486036266 6.295710791030364 -0.4082958338158523 3.8183819607690044 -1.0420612206637978 6.374340453965331" Properties=species:S:1:pos:R:3 unique_starting_index=78 config_type=initial n_minim_iter=9 stress="0.00964808904787727 -0.0004142028365282886 -0.0017279554108328094 -0.0004142028365282886 0.001960141612255957 -0.004224241675320531 -0.0017279554108328094 -0.004224241675320531 0.0021228818215884176" pbc="T T T"
Si       4.13056236       2.69445623       3.11630652
Si       9.55233621       2.59089167       2.57733047
Si      11.28949820       7.02604030       2.69164588
Si       5.95708397       1.70966844       2.67916146
Si       5.18151717       4.09734188       1.90428903
Si       8.58571583       4.97723791       5.44270675
Si       7.22636246       0.88670417       1.19120845
Si       8.60372753       2.96938398       6.16685417
Si       5.30310078       0.22725353       0.56361372
Si       8.57111432       2.43571599       0.64020501
Si       5.11059604       2.61559166       5.00022927
Si       6.77622708       3.84089937       5.49643494
12
Lattice="7.222121806106152 0.5409895435885893 0.4910891770640559 3.1502899056920275 6.295902721825574 -0.4019609238568521 3.813060438931211 -1.0284795858369806 6.378297175857362" Properties=species:S:1:pos:R:3 unique_starting_index=78 config_type=initial n_minim_iter=10 stress="0.012459407383358585 0.001814746777234022 -0.0014184434922425097 0.001814746777234022 -0.0005750088192562803 1.1640493786009901e-05 -0.0014184434922425097 1.1640493786009901e-05 0.005261474196743319" pbc="T T T"
Si       4.13269268       2.70152022       3.12042807
Si       9.55836460       2.60234752       2.57365538
Si      11.30048111       7.04035232       2.69208399
Si       5.95850328       1.71792897       2.67714803
Si       5.18300055       4.10100837       1.90895165
Si       8.58650714       4.99052975       5.45130118
Si       7.22586095       0.89754450       1.18822276
Si       8.60352012       2.98512370       6.17296673
Si       5.30386810       0.23534150       0.56005640
Si       8.57612054       2.44191572       0.63847688
Si       5.11158601       2.62366072       5.00748183
Si       6.77306557       3.85624253       5.51050705
12
Lattice="7.2304959612015605 0.5473043173754456 0.47604089774273917 3.1589035986126115 6.31567413368423 -0.40297853669265155 3.802979872783659 -1.0225519896924113 6.377548215023632" Properties=species:S:1:pos:R:3 unique_starting_index=78 config_type=initial n_minim_iter=11 stress="0.011417428953933684 -0.0013914818950672243 -0.0024239031571414893 -0.0013914818950672243 0.006619828228877443 0.0013528604439956046 -0.0024239031571414893 0.0013528604439956046 0.004958394328905385" pbc="T T T"
Si       4.13614534       2.71320985       3.11957253
Si       9.57556417       2.61803250       2.54849821
Si      11.32495729       7.07847892       2.66384131
Si       5.96103021       1.72855056       2.66315030
Si       5.18249654       4.11055577       1.90742436
Si       8.57802976       5.01735348       5.45226260
Si       7.23088747       0.91252531       1.16893578
Si       8.60229730       3.00218452       6.16475965
Si       5.30805147       0.25006347       0.55063718
Si       8.58979127       2.44972464       0.62805453
Si       5.11274315       2.63006213       5.00519990
Si       6.75825923       3.87810589       5.52493493
12
Lattice="7.2534013232389185 0.563189515119694 0.4477312398087378 3.18504000479962 6.320592474477039 -0.42009402835957943 3.787418033258998 -1.0167805465333344 6.378895085062596" Properties=species:S:1:pos:R:3 unique_starting_index=78 config_type=initial n_minim_iter=12 stress="-0.004045605455304853 -0.0029660582306780896 0.002253289855131235 -0.0029660582306780896 0.004358140499168869 -0.0007097941840038481 0.002253289855131235 -0.0007097941840038481 -0.004699068340238603" pbc="T T T"
Si       4.15188921       2.71241443       3.11182792
Si       9.62158463       2.63713422       2.49352964
Si      11.39425941       7.11688660       2.59604664
Si       5.97315783       1.73875290       2.63153279
Si       5.19214160       4.10691145       1.89499266
Si       8.57495962       5.03136938       5.44413408
Si       7.23947710       0.94534775       1.13367077
Si       8.60776083       3.01550127       6.13891350
Si       5.31301431       0.28721560       0.53604145
Si       8.62891313       2.46015266       0.60586214
Si       5.12558090       2.62089934       4.99536091
Si       6.75061561       3.87857769       5.54199066
12
Lattice="7.261354797080123 0.5671629456574924 0.4434782687173233 3.1932299609058408 6.313444961672779 -0.42796380430090963 3.7874776401670394 -1.0185779204721277 6.378600440257087" Properties=species:S:1:pos:R:3 unique_starting_index=78 config_type=initial n_minim_iter=13 stress="-0.0073616509047923035 -0.0020228058966544403 0.0007489299046253334 -0.0020228058966544403 0.0006308247139056415 -0.0022448489279578046 0.0007489299046253334 -0.0022448489279578046 -0.004253008099432876" pbc="T T T"
Si       4.15609104       2.70658782       3.10672760
Si       9.63553533       2.63789256       2.48577106
Si      11.41292362       7.11375358       2.57992485
Si       5.97795163       1.73866205       2.62892892
Si       5.19953291       4.10256143       1.88719749
Si       8.58413347       5.02420660       5.43589531
Si       7.24753834       0.95127830       1.12939140
Si       8.61513536       3.01039785       6.13231223
Si       5.31801293       0.29038576       0.53258848
Si       8.63961606       2.46120724       0.59953681
Si       5.13262609       2.61531327       4.99184738
Si       6.75442878       3.86913528       5.53719064
12
Lattice="7.2993347069770325 0.5755595120404513 0.4552576811960392 3.216717449898574 6.294614650049327 -0.416549682804442 3.818758817639738 -1.0073198516105377 6.341910668087927" Properties=species:S:1:pos:R:3 unique_starting_index=78 config_type=initial n_minim_iter=14 stress="-0.0017719969830269052 0.0001449678450720538 -0.0010774141533195592 0.0001449678450720538 -0.004281952260283946 0.003181574751938485 -0.0010774141533195592 0.003181574751938485 0.0051230901215078666" pbc="T T T"
Si       4.17848219       2.70558492       3.09112921
Si       9.70467158       2.64445267       2.49733645
Si      11.49461774       7.11190383       2.58272777
Si       6.01212219       1.74429260       2.64346227
Si       5.23375954       4.09767878       1.87686823
Si       8.64644572       5.01831120       5.41530003
Si       7.28032621       0.96376834       1.12933390
Si       8.66786357       3.00944484       6.11230691
Si       5.35574020       0.28998530       0.53658467
Si       8.68533498       2.46657886       0.60911975
Si       5.17083534       2.61310584       4.96919963
Si       6.80488882       3.85755624       5.51495114
12
Lattice="7.312309670387159 0.5773772952817617 0.4466195293521832 3.226078692746096 6.2944612996433 -0.4393482271321354 3.81798471566233 -1.0235383556324527 6.355149135387369" Properties=species:S:1:pos:R:3 unique_starting_index=78 config_type=initial n_minim_iter=15 stress="0.0005302923506752861 -0.0007316640497641388 -0.0031270361534961933 -0.0007316640497641388 -0.0008034973070222391 0.002543074122922051 -0.0031270361534961933 0.002543074122922051 0.011180965123945783" pbc="T T T"
Si       4.18531172       2.69895723       3.08892396
Si       9.73039872       2.63912788       2.47644453
Si      11.53044587       7.11786796       2.53842599
Si       6.02302150       1.73755710       2.64190174
Si       5.23926007       4.08926916       1.86768210
Si       8.65170999       5.00313929       5.40869340
Si       7.28877123       0.97317703       1.11871864
Si       8.66960111       2.98958269       6.10081573
Si       5.36193271       0.29517048       0.53003260
Si       8.70358636       2.46500996       0.59911597
Si       5.17775220       2.59270735       4.96524978
Si       6.80702511       3.83753156       5.52488227
12
Lattice="7.349062858709853 0.5772156997811185 0.44217451218265763 3.244332899456982 6.288655832520688 -0.4640767717087984 3.8351391396954884 -1.0450853727893772 6.356338451479993" Properties=species:S:1:pos:R:3 unique_starting_index=78 config_type=initial n_minim_iter=16 stress="0.00187137951743878 0.0013948251174063717 -0.0010474614176566558 0.0013948251174063717 -0.001770447731037844 -0.0020870569191080903 -0.0010474614176566558 -0.0020870569191080903 0.0046177200097066926" pbc="T T T"
Si       4.21524201       2.68578815       3.07845960
Si       9.79484483       2.62672795       2.44895267
Si      11.61419140       7.12090527       2.48037977
Si       6.05077533       1.72846604       2.64020410
Si       5.25828761       4.07141461       1.85430365
Si       8.68488399       4.97482346       5.39515050
Si       7.31434277       0.98261262       1.10767374
Si       8.70462806       2.95715558       6.07852204
Si       5.38363627       0.30468910       0.52705953
Si       8.75315240       2.45976370       0.59489975
Si       5.20762671       2.56013360       4.95101222
Si       6.82711770       3.80509067       5.53120748
12
Lattice="7.408511885798405 0.588800919502437 0.44074203510604126 3.281883218998053 6.290156767426973 -0.48947183268983624 3.864886663195034 -1.0627930225874584 6.359752661746714" Properties=species:S:1:pos:R:3 unique_starting_index=78 config_type=initial n_minim_iter=17 stress="0.018244076434772737 0.0002450743136564036 0.00655347042486307 0.0002450743136564036 0.015083300845850633 0.0015186159642926582 0.00655347042486307 0.0015186159642926582 0.014403321600559064" pbc="T T T"
Si       4.25770140       2.67922017       3.07293577
Si       9.91263978       2.62745457       2.42114105
Si      11.76806325       7.16345868       2.39709500
Si       6.10496946       1.72752613       2.65110661
Si       5.29595360       4.06520073       1.83315936
Si       8.74378862       4.95309257       5.39806459
Si       7.35381196       1.01914201       1.09304067
Si       8.76518172       2.93318454       6.05687208
Si       5.42340344       0.33231215       0.52730299
Si       8.82918180       2.46408662       0.59424234
Si       5.26002374       2.52233473       4.93974503
Si       6.86659312       3.76918760       5.55753166
12
Lattice="7.43301453575441 0.5982253205321998 0.4354428294435378 3.303930691470335 6.271871952546306 -0.513123723509783 3.8723927164856815 -1.073706849534267 6.363570469744864" Properties=species:S:1:pos:R:3 unique_starting_index=78 config_type=initial n_minim_iter=18 stress="0.02000397611787019 0.0008995850364450375 0.010550396132760192 0.0008995850364450375 0.01305029654535044 0.00036454214462685724 0.010550396132760192 0.00036454214462685724 0.021990924369041737" pbc="T T T"
Si       4.27617210       2.67223499       3.06265756
Si       9.96441346       2.62127587       2.40495461
Si      11.84025937       7.16665776       2.33937463
Si       6.13032399       1.72155648       2.65735366
Si       5.31138047       4.05070240       1.81389836
Si       8.77382180       4.92784486       5.38959257
Si       7.36954930       1.03362071       1.08145947
Si       8.78527874       2.90544896       6.04175500
Si       5.43755244       0.34487252       0.52350594
Si       8.85926012       2.46576127       0.58055547
Si       5.27968007       2.49392692       4.93064036
Si       6.88500323       3.73494681       5.55997824
12
Lattice="7.448460089697708 0.6128248733311641 0.4193547106645117 3.327130733611109 6.257733616478022 -0.5407332186991395 3.865310422611096 -1.0819695180175635 6.357835273405696" Properties=species:S:1:pos:R:3 unique_starting_index=78 config_type=initial n_minim_iter=19 stress="0.015612298559115884 0.0007064930762549593 0.007041758095016238 0.0007064930762549593 0.01163228992103972 -0.000544506851118745 0.007041758095016238 -0.000544506851118745 0.019136556508996223" pbc="T T T"
Si       4.28858554       2.66984325       3.04534073
Si       9.99873156       2.62014986       2.37074751
Si      11.90244269       7.18096399       2.26603550
Si       6.14717815       1.72000397       2.65288243
Si       5.32024177       4.04340074       1.78310801
Si       8.79289726       4.91059015       5.36619431
Si       7.37598756       1.05693966       1.05721036
Si       8.79020433       2.88271851       6.01378912
Si       5.44272375       0.35978958       0.51143538
Si       8.87740394       2.47147260       0.55676763
Si       5.28476393       2.46922099       4.91092815
Si       6.88933781       3.70942406       5.54811557
12
Lattice="7.4418229613186755 0.6302168569917384 0.39461929227972375 3.3437594624691704 6.239422106416612 -0.5655286394263206 3.837499970220882 -1.080088617895507 6.354860816639694" Properties=species:S:1:pos:R:3 unique_starting_index=78 config_type=initial n_minim_iter=20 stress="-0.004881291009107175 0.0014721333191175271 -0.006263372964728771 0.0014721333191175271 -0.004554281280226747 -0.0020030177450914097 -0.006263372964728771 -0.0020030177450914097 -0.003122332310015251" pbc="T T T"
Si       4.28511355       2.67683735       3.02468592
Si       9.99285590       2.61754178       2.33071173
Si      11.92705355       7.19767986       2.18722040
Si       6.14852992       1.72165151       2.64559426
Si       5.31120311       4.04245131       1.75015773
Si       8.78245705       4.89760444       5.35326667
Si       7.36160896       1.07624508       1.02886447
Si       8.76850908       2.86896103       5.98990816
Si       5.42812400       0.37540977       0.49448342
Si       8.86947738       2.48034318       0.52167944
Si       5.26606926       2.45118134       4.90064428
Si       6.86973430       3.69462916       5.53181707
12
Lattice="7.439567539534264 0.6352822312650852 0.38599814949693834 3.349974378353882 6.225884043134447 -0.5843949434344157 3.8280162367243915 -1.0879837053320724 6.361666043171258" Properties=species:S:1:pos:R:3 unique_starting_index=78 config_type=initial n_minim_iter=21 stress="-0.007338450076016901 -0.0009648491048560709 0.0029719673642418197 -0.0009648491048560709 -0.010977856667663084 -0.001285629366481715 0.0029719673642418197 -0.001285629366481715 -0.0052749293135629415" pbc="T T T"
Si       4.29343889       2.67675375       3.01855916
Si       9.99314211       2.59974268       2.31823627
Si      11.95343078       7.20418030       2.13432817
Si       6.15273890       1.71737615       2.65175853
Si       5.30388361       4.04267811       1.73129996
Si       8.78193075       4.87658138       5.36080698
Si       7.34758861       1.08538560       1.01883679
Si       8.76328385       2.84346633       5.98240600
Si       5.41715844       0.37871915       0.48939017
Si       8.86047748       2.47425936       0.49927437
Si       5.25311472       2.43000751       4.89703906
Si       6.85993041       3.67370269       5.52674995
