12
Lattice="6.065210604109127 -2.0931294600377143e-18 -5.2796892412984785e-17 2.8582452639396947e-18 8.282268161128762 1.0007882478714203e-15 7.38004929344107e-17 -1.0244474745399957e-15 8.478065883744751" Properties=species:S:1:pos:R:3 unique_starting_index=60 config_type=initial n_minim_iter=1 energy=-1944.039365643493 free_energy=-1944.039365643493 pbc="T T T"
Si       3.21287927       3.08298229       0.02167859
Si       3.21287927       5.19928587       8.45638730
Si       0.18027397       1.05815179       4.26071153
Si       0.18027397       7.22411637       4.21735436
Si       4.81430066       5.88481136       3.42534216
Si       4.81430066       2.39745680       5.05272372
Si       1.78169535       6.53859088       7.66437511
Si       1.78169535       1.74367728       0.81369078
Si       0.81810973       3.16932317       8.05703786
Si       0.81810973       5.11294499       0.42102802
Si       3.85071503       0.97181091       3.81800492
Si       3.85071503       7.31045725       4.66006096
12
Lattice="6.017520416054315 -2.0712050124147752e-18 -5.297582738898992e-17 2.8754325167529736e-18 8.310441481886375 1.0418563391750197e-15 7.21550332918026e-17 -9.745792899065926e-16 8.384433907600135" Properties=species:S:1:pos:R:3 unique_starting_index=60 config_type=initial n_minim_iter=2 stress="-0.01118853085351736 2.5419444120250637e-17 7.069782895944709e-17 2.5419444120250637e-17 -0.020618090228001762 1.1702211800984135e-15 7.069782895944709e-17 1.1702211800984135e-15 -0.0132776594762222" pbc="T T T"
Si       3.19429423       3.09780904       0.02320744
Si       3.19429423       5.21263245       8.36122646
Si       0.18553402       1.05741171       4.21542440
Si       0.18553402       7.25302978       4.16900951
Si       4.77363272       5.92037190       3.39425829
Si       4.77363272       2.39006958       4.99017562
Si       1.76487251       6.54529032       7.58647524
Si       1.76487251       1.76515116       0.79795866
Si       0.80781302       3.18466910       7.96275405
Si       0.80781302       5.12577238       0.42167986
Si       3.81657323       0.97055164       3.77053710
Si       3.81657323       7.33988984       4.61389681
12
Lattice="6.00936295987889 -2.093521614103493e-18 -5.328798531770244e-17 2.854397909988876e-18 8.352438519409246 9.756158661206998e-16 7.144998071805561e-17 -1.044463287754402e-15 8.364836983933424" Properties=species:S:1:pos:R:3 unique_starting_index=60 config_type=initial n_minim_iter=3 stress="-0.011485587051142318 4.3366549927986985e-17 9.255056387070394e-18 4.3366549927986985e-17 0.017550307866728423 4.3353328418862596e-16 9.255056387070394e-18 4.3353328418862596e-16 -0.009911660778751132" pbc="T T T"
Si       3.19300810       3.11538482       0.02394927
Si       3.19300810       5.23705369       8.34088771
Si       0.18832662       1.06083443       4.20636776
Si       0.18832662       7.29160408       4.15846922
Si       4.76601894       5.95691107       3.38906511
Si       4.76601894       2.39552745       4.97577187
Si       1.76133746       6.57174671       7.57148360
Si       1.76133746       1.78069181       0.79335338
Si       0.80481638       3.20282456       7.94139557
Si       0.80481638       5.14961396       0.42344142
Si       3.80949786       0.97339470       3.75897708
Si       3.80949786       7.37904382       4.60585991
12
Lattice="6.041587477149212 -2.09732348799145e-18 -5.3784280803948396e-17 2.895312350390909e-18 8.441312115334576 9.53966661478549e-16 7.102401545963093e-17 -1.0766482186005246e-15 8.350934637677126" Properties=species:S:1:pos:R:3 unique_starting_index=60 config_type=initial n_minim_iter=4 stress="-0.0038011444839527574 1.5784406838738603e-16 -4.6271382557821663e-17 1.5784406838738603e-16 0.012790349074671036 2.3256257557406567e-16 -4.6271382557821663e-17 2.3256257557406567e-16 -0.0057717877558036" pbc="T T T"
Si       3.22862598       3.16431696       0.02856105
Si       3.22862598       5.27699516       8.32237358
Si       0.20783224       1.05633910       4.20402837
Si       0.20783224       7.38497302       4.14690626
Si       4.78550220       6.05763217       3.39806916
Si       4.78550220       2.38367994       4.95286548
Si       1.76470846       6.60433600       7.57353648
Si       1.76470846       1.83697612       0.77739816
Si       0.79671034       3.25430274       7.91169722
Si       0.79671034       5.18700937       0.43923741
Si       3.81750408       0.96635331       3.73622991
Si       3.81750408       7.47495880       4.61470473
12
Lattice="6.027373562669937 -2.1271470367003837e-18 -5.3601559872461586e-17 2.8633975454124803e-18 8.485196197221754 8.249459668734729e-16 7.13817003942661e-17 -1.2179929472287529e-15 8.382070857203088" Properties=species:S:1:pos:R:3 unique_starting_index=60 config_type=initial n_minim_iter=5 stress="-0.002977473150677892 1.1304546706286484e-16 -8.002531345343697e-17 1.1304546706286484e-16 0.020302072905396828 2.488813146561584e-16 -8.002531345343697e-17 2.488813146561584e-16 -0.00530159412769264" pbc="T T T"
Si       3.23264443       3.18162611       0.03190395
Si       3.23264443       5.30357009       8.35016690
Si       0.21895764       1.06097199       4.22293938
Si       0.21895764       7.42422421       4.15913147
Si       4.77229489       6.11124734       3.41970320
Si       4.77229489       2.37394885       4.96236766
Si       1.75860811       6.61654695       7.61073863
Si       1.75860811       1.86864924       0.77133223
Si       0.78517013       3.28950439       7.92968501
Si       0.78517013       5.19569180       0.45238584
Si       3.79885691       0.95309371       3.73864959
Si       3.79885691       7.53210249       4.64342127
12
Lattice="5.986682123424807 -2.1599033381410898e-18 -5.29081062547814e-17 2.79744990699162e-18 8.477511200274945 8.238061053040632e-16 7.259721209359011e-17 -1.2264145505201501e-15 8.465957380859882" Properties=species:S:1:pos:R:3 unique_starting_index=60 config_type=initial n_minim_iter=6 stress="-0.0009727488865858585 1.7530626124716269e-15 1.874636193305572e-15 1.7530626124716269e-15 0.013281798624994613 1.490148439254753e-15 1.874636193305572e-15 1.490148439254753e-15 0.007700421062776757" pbc="T T T"
Si       3.22057269       3.18218243       0.03422914
Si       3.22057269       5.29532877       8.43172824
Si       0.22723163       1.05657317       4.26720783
Si       0.22723163       7.42093803       4.19874955
Si       4.73948489       6.12157033       3.46129356
Si       4.73948489       2.35594087       5.00466382
Si       1.74614382       6.59469647       7.69427225
Si       1.74614382       1.88281473       0.77168513
Si       0.77070891       3.29375787       7.99314153
Si       0.77070891       5.18375333       0.47281585
Si       3.76404997       0.94499773       3.76016284
Si       3.76404997       7.53251347       4.70579454
12
Lattice="6.084017698570644 -2.216121852726335e-18 -5.4029827622557535e-17 2.737985754728634e-18 8.408027121842984 8.67781281447113e-16 7.180331802936798e-17 -1.1668083920011508e-15 8.421263042604314" Properties=species:S:1:pos:R:3 unique_starting_index=60 config_type=initial n_minim_iter=7 stress="0.003476936486316112 2.4083950717788125e-16 -6.33991640083026e-17 2.4083950717788125e-16 0.008723497121703087 1.236670278430244e-15 -6.33991640083026e-17 1.236670278430244e-15 0.0008629072196974959" pbc="T T T"
Si       3.29320867       3.15269967       0.03496898
Si       3.29320867       5.25532746       8.38629406
Si       0.25119982       1.05131390       4.24560051
Si       0.25119982       7.35671323       4.17566254
Si       4.80981271       6.09552537       3.45891541
Si       4.80981271       2.31250175       4.96234763
Si       1.76780386       6.51651531       7.66954693
Si       1.76780386       1.89151181       0.75171611
Si       0.76969588       3.26907648       7.92241231
Si       0.76969588       5.13895064       0.49885074
Si       3.81170473       0.93493708       3.71178079
Si       3.81170473       7.47309004       4.70948226
12
Lattice="6.052817512689673 -2.2226879219293503e-18 -5.4623300536282254e-17 2.6931888914268842e-18 8.347890158957998 9.391757421413957e-16 6.971483481908463e-17 -1.0750210105744569e-15 8.32112850834945" Properties=species:S:1:pos:R:3 unique_starting_index=60 config_type=initial n_minim_iter=8 stress="0.004888175519668144 3.3611506673585837e-15 4.895571794550094e-16 3.3611506673585837e-15 0.005177653257169596 1.964962109446846e-15 4.895571794550094e-16 1.964962109446846e-15 -0.0006818346619269425" pbc="T T T"
Si       3.28695251       3.12444453       0.02873069
Si       3.28695251       5.22344563       8.29239782
Si       0.26054375       1.04950055       4.18929494
Si       0.26054375       7.29838961       4.13183357
Si       4.78183894       6.03955338       3.41943009
Si       4.78183894       2.30833678       4.90169842
Si       1.75543018       6.48228186       7.57999434
Si       1.75543018       1.86560830       0.74113416
Si       0.75842456       3.25093569       7.80337645
Si       0.75842456       5.09695447       0.51775205
Si       3.78483332       0.92300939       3.64281220
Si       3.78483332       7.42488077       4.67831631
12
Lattice="5.98086193229111 -2.20880263025367e-18 -5.359191469908284e-17 2.6634790990505235e-18 8.301292167311862 9.38601864076374e-16 7.110536704854222e-17 -1.0787577703487976e-15 8.41167369326105" Properties=species:S:1:pos:R:3 unique_starting_index=60 config_type=initial n_minim_iter=9 stress="-0.0075431496531011555 2.8657420570581074e-16 -4.599010907894736e-17 2.8657420570581074e-16 0.0011827300330378547 1.5111605494755856e-15 -4.599010907894736e-17 1.5111605494755856e-15 -0.003930850214851809" pbc="T T T"
Si       3.25314754       3.10350638       0.02637208
Si       3.25314754       5.19778578       8.38530162
Si       0.26271657       1.04713970       4.23220892
Si       0.26271657       7.25415247       4.17946477
Si       4.71676716       6.00604633       3.46439052
Si       4.71676716       2.29524584       4.94728317
Si       1.72633620       6.44589193       7.67022737
Si       1.72633620       1.85540024       0.74144632
Si       0.75236381       3.23368561       7.87752019
Si       0.75236381       5.06760656       0.53415350
Si       3.74279478       0.91696048       3.67168334
Si       3.74279478       7.38433169       4.73999035
12
Lattice="5.988033188192015 -2.2148697226002475e-18 -5.32328740982359e-17 2.650446771788403e-18 8.279942773269015 9.734804221044485e-16 7.2445360953245e-17 -1.0498771396565058e-15 8.496340641293836" Properties=species:S:1:pos:R:3 unique_starting_index=60 config_type=initial n_minim_iter=10 stress="0.0022777811628910158 4.214596306227437e-15 3.4973387727003773e-16 4.214596306227437e-15 0.0032957153281735073 5.511668858589525e-15 3.4973387727003773e-16 5.511668858589525e-15 0.006599543237418238" pbc="T T T"
Si       3.26221868       3.09266443       0.02041144
Si       3.26221868       5.18727834       8.47592920
Si       0.26820209       1.04730695       4.26858176
Si       0.26820209       7.23263582       4.22775888
Si       4.70776567       5.98700361       3.50982993
Si       4.70776567       2.29293916       4.98651071
Si       1.71374908       6.43291055       7.75800025
Si       1.71374908       1.84703223       0.73834039
Si       0.76275247       3.23429328       7.94701275
Si       0.76275247       5.04564949       0.54932789
Si       3.75676907       0.90567810       3.69884243
Si       3.75676907       7.37426467       4.79749821
12
Lattice="5.975974191124632 -2.2118128146697304e-18 -5.318308759007077e-17 2.6457704778347846e-18 8.270249096072504 9.621165583632457e-16 7.23270307262785e-17 -1.0596974694044527e-15 8.49134289934721" Properties=species:S:1:pos:R:3 unique_starting_index=60 config_type=initial n_minim_iter=11 stress="0.016293870069915582 3.879879411855212e-15 -1.6875597141841263e-15 3.879879411855212e-15 0.00893788751350825 1.2971511472916316e-14 -1.6875597141841263e-15 1.2971511472916316e-14 0.008199889034268402" pbc="T T T"
Si       3.26198736       3.08859655       0.01596619
Si       3.26198736       5.18165254       8.47537671
Si       0.27400026       1.04652799       4.26163764
Si       0.27400026       7.22372110       4.22970526
Si       4.68822359       5.97985229       3.51757844
Si       4.68822359       2.29039681       4.97376446
Si       1.70023650       6.42552136       7.76324989
Si       1.70023650       1.84472774       0.72809301
Si       0.76493946       3.23876269       7.92784914
Si       0.76493946       5.03148641       0.56349376
Si       3.75292655       0.89636186       3.68217769
Si       3.75292655       7.37388723       4.80916521
12
Lattice="5.80748491854496 -2.164915443977209e-18 -5.18368976719861e-17 2.6009859958523232e-18 8.175186431057814 9.96706900282887e-16 7.214891010572568e-17 -1.0114576210787987e-15 8.484883813432816" Properties=species:S:1:pos:R:3 unique_starting_index=60 config_type=initial n_minim_iter=12 stress="0.015091075071140665 5.039614183327176e-15 -1.8853768253385764e-15 5.039614183327176e-15 0.033708510042714024 1.0166180038689774e-14 -1.8853768253385764e-15 1.0166180038689774e-14 0.029978972517951535" pbc="T T T"
Si       3.20123641       3.04486551      -0.00806086
Si       3.20123641       5.13032092       8.49294468
Si       0.29749395       1.04272770       4.23438104
Si       0.29749395       7.13245873       4.25050277
Si       4.50507689       5.91576259       3.58149775
Si       4.50507689       2.25942384       4.90338607
Si       1.60133443       6.34701705       7.82393965
Si       1.60133443       1.82816938       0.66094416
Si       0.76311829       3.25662177       7.81752300
Si       0.76311829       4.91856466       0.66736081
Si       3.66686075       0.83097144       3.57508110
Si       3.66686075       7.34421499       4.90980272
12
Lattice="5.685705473054218 -2.1119316243195902e-18 -5.091700551093323e-17 2.60740931019347e-18 8.141776855792244 9.541435738827478e-16 7.153598811191437e-17 -1.044818069597454e-15 8.434166403079063" Properties=species:S:1:pos:R:3 unique_starting_index=60 config_type=initial n_minim_iter=13 stress="0.003363275161955134 3.0366525043747702e-15 -8.889011825709834e-16 3.0366525043747702e-15 0.030822132809784516 2.5942635041237122e-15 -8.889011825709834e-16 2.5942635041237122e-15 0.03525874868299559" pbc="T T T"
Si       3.14875877       3.02886679      -0.02493249
Si       3.14875877       5.11291006       8.45909890
Si       0.30590603       1.04202163       4.19215071
Si       0.30590603       7.09975522       4.24201570
Si       4.37581180       5.89132428       3.60710313
Si       4.37581180       2.25045258       4.82706328
Si       1.53295907       6.32134101       7.82418633
Si       1.53295907       1.82043585       0.60998007
Si       0.76726216       3.28432998       7.70634441
Si       0.76726216       4.85744688       0.72782199
Si       3.61011489       0.78655845       3.48926121
Si       3.61011489       7.35521841       4.94490519
12
Lattice="5.581417141683236 -2.039168567677521e-18 -5.0846077507088107e-17 2.6953497186670124e-18 8.23855874252304 7.561329479402463e-16 6.786662226547588e-17 -1.2239225923420037e-15 8.149398819793785" Properties=species:S:1:pos:R:3 unique_starting_index=60 config_type=initial n_minim_iter=14 stress="-0.008488796916807996 5.089044504757022e-15 -7.329740993636183e-16 5.089044504757022e-15 -0.019203589596831477 2.430161701709814e-15 -7.329740993636183e-16 2.430161701709814e-15 -0.009824662661004463" pbc="T T T"
Si       3.07890238       3.07030849      -0.03816177
Si       3.07890238       5.16825025       8.18756059
Si       0.28819381       1.04897088       4.03653764
Si       0.28819381       7.18958786       4.11286118
Si       4.26570856       5.95233638       3.53389560
Si       4.26570856       2.28622237       4.61550322
Si       1.47499999       6.40550174       7.60859501
Si       1.47499999       1.83305700       0.54080381
Si       0.79513135       3.37376130       7.40586537
Si       0.79513135       4.86479744       0.74353345
Si       3.58583992       0.74551807       3.33116596
Si       3.58583992       7.49304067       4.81823286
12
Lattice="5.406825579349317 -1.937473819278916e-18 -4.8562067359342734e-17 2.7435005361178635e-18 8.206031803071502 9.415033295718227e-16 6.728274264161292e-17 -1.0052999705804466e-15 7.960571175868628" Properties=species:S:1:pos:R:3 unique_starting_index=60 config_type=initial n_minim_iter=15 stress="-0.0013364901834911536 9.55259014341042e-16 -1.785413360137255e-16 9.55259014341042e-16 0.04528519216105263 2.1913355745645877e-15 -1.785413360137255e-16 2.1913355745645877e-15 0.059055530966965745" pbc="T T T"
Si       2.99300088       3.04933858      -0.06456003
Si       2.99300088       5.15669322       8.02513121
Si       0.28958809       1.05367732       3.91572555
Si       0.28958809       7.15235448       4.04484562
Si       4.06170847       5.91815561       3.54172641
Si       4.06170847       2.28787620       4.41884476
Si       1.35829569       6.39089210       7.52201200
Si       1.35829569       1.81513971       0.43855917
Si       0.83041476       3.44486345       7.12401830
Si       0.83041476       4.76116836       0.83655287
Si       3.53382755       0.65815245       3.14373272
Si       3.53382755       7.54787935       4.81683846
12
Lattice="4.824629739690227 -6.32854695299449e-19 -7.478578620482105e-17 4.166848296329994e-18 8.062712038848877 2.9351396625371765e-15 1.2593964331646511e-17 1.25974462332972e-15 6.764034517719581" Properties=species:S:1:pos:R:3 unique_starting_index=60 config_type=initial n_minim_iter=16 stress="0.12898404096516566 4.965487987733951e-15 -2.5084828422058412e-15 4.965487987733951e-15 0.141306997560476 -1.848608392272341e-15 -2.5084828422058412e-15 -1.848608392272341e-15 0.003441022293430347" pbc="T T T"
Si       2.69565315       2.95636783      -0.14402820
Si       2.69565315       5.10634421       6.90806272
Si       0.28333828       1.07498819       3.23798906
Si       0.28333828       6.98772385       3.52604546
Si       3.35453819       5.75921325       3.34608749
Si       3.35453819       2.30349879       3.41794703
Si       0.94222332       6.33485481       6.72810474
Si       0.94222332       1.72785723       0.03592977
Si       0.98587885       3.75113440       5.62959068
Si       0.98587885       4.31157764       1.13444384
Si       3.39819372       0.28022162       2.24757342
Si       3.39819372       7.78249042       4.51646110
12
Lattice="4.808074853509201 -2.444607771225806e-19 -7.816580123208665e-17 4.685098901132551e-18 8.059442407039729 4.984830106867969e-15 7.445235243596132e-18 3.36335875095427e-15 6.7392991491426235" Properties=species:S:1:pos:R:3 unique_starting_index=60 config_type=initial n_minim_iter=17 stress="0.09583814730040631 5.9857963016914356e-15 -7.41890136795577e-15 5.9857963016914356e-15 0.13240812023920934 3.8452789452272046e-16 -7.41890136795577e-15 3.8452789452272046e-16 -0.009191457733842551" pbc="T T T"
Si       2.68646272       2.95424779      -0.14586291
Si       2.68646272       5.10519462       6.88516206
Si       0.28242530       1.07547341       3.22378667
Si       0.28242530       6.98396899       3.51551248
Si       3.33642903       5.75447411       3.34161091
Si       3.33642903       2.30496830       3.39768824
Si       0.93239160       6.33468950       6.71126049
Si       0.93239160       1.72475291       0.02803866
Si       0.98903538       3.75824962       5.59937668
Si       0.98903538       4.30119279       1.13992247
Si       3.39307280       0.27147159       2.22972711
Si       3.39307280       7.78797082       4.50957204
12
Lattice="4.868178056728574 3.04688912327688e-19 -8.278925242504759e-17 5.4843387642700055e-18 8.02858728814925 4.58477763234573e-15 4.664561626588411e-18 2.8420349931411913e-15 6.9608673565909625" Properties=species:S:1:pos:R:3 unique_starting_index=60 config_type=initial n_minim_iter=18 stress="0.012494649970907303 6.901793047192907e-15 -1.4750526954434956e-14 6.901793047192907e-15 0.11619032457369867 5.256429742854126e-15 -1.4750526954434956e-14 5.256429742854126e-15 -0.0006531273576316872" pbc="T T T"
Si       2.70782866       2.94660997      -0.13335035
Si       2.70782866       5.08197731       7.09421770
Si       0.27373963       1.06768367       3.34708333
Si       0.27373963       6.96090362       3.61378402
Si       3.41901849       5.72827892       3.38986724
Si       3.41901849       2.30030837       3.57100011
Si       0.98492946       6.31460201       6.87030092
Si       0.98492946       1.71398528       0.09056644
Si       0.97273237       3.67936732       5.86004043
Si       0.97273237       4.34921997       1.10082693
Si       3.40682140       0.33492633       2.37960675
Si       3.40682140       7.69366096       4.58126060
12
Lattice="4.877804325237694 5.71640930090106e-19 -8.417224046025377e-17 5.8570062400314846e-18 7.991856314770766 3.5156753138364483e-15 4.104713176566077e-18 1.6969234698350967e-15 7.043362333878567" Properties=species:S:1:pos:R:3 unique_starting_index=60 config_type=initial n_minim_iter=19 stress="-0.004121476655114855 -1.661881217912236e-15 -1.2142043832622281e-14 -1.661881217912236e-15 0.04469786019591175 1.075815369434865e-14 -1.2142043832622281e-14 1.075815369434865e-14 0.015262671108511679" pbc="T T T"
Si       2.71191944       2.93965609      -0.12001504
Si       2.71191944       5.05220023       7.16337738
Si       0.27301727       1.05627207       3.40166612
Si       0.27301727       6.93558425       3.64169621
Si       3.43984958       5.70524982       3.40870133
Si       3.43984958       2.28660650       3.63466101
Si       1.00094742       6.28253465       6.93038249
Si       1.00094742       1.70932166       0.11297984
Si       0.96184912       3.63988728       5.95292218
Si       0.96184912       4.35196903       1.09044015
Si       3.40075128       0.35604087       2.43124101
Si       3.40075128       7.63581544       4.61212132
12
Lattice="4.860496992575765 9.303131069481442e-19 -8.424677237539098e-17 6.3284628834894546e-18 7.990134648471321 4.5468482843968784e-15 3.502367412279326e-18 2.7631261566640933e-15 7.014392268888393" Properties=species:S:1:pos:R:3 unique_starting_index=60 config_type=initial n_minim_iter=20 stress="-0.02226200115454581 2.6246492323073254e-15 -1.745789104857275e-14 2.6246492323073254e-15 -0.0040208190959919775 4.5910983853947234e-15 -1.745789104857275e-14 4.5910983853947234e-15 -0.003863203617998579" pbc="T T T"
Si       2.70009892       2.94600882      -0.11040664
Si       2.70009892       5.04412583       7.12479891
Si       0.26985042       1.04905851       3.39678950
Si       0.26985042       6.94107614       3.61760277
Si       3.41351943       5.70791022       3.41771327
Si       3.41351943       2.28222443       3.59667900
Si       0.98327093       6.27729175       6.92490940
Si       0.98327093       1.71284289       0.08948287
Si       0.97475938       3.66043115       5.90660446
Si       0.97475938       4.32970350       1.10778781
Si       3.40500787       0.33463617       2.39940832
Si       3.40500787       7.65549847       4.61498394
12
Lattice="4.795864202744768 1.974757443323729e-18 -8.393560572103525e-17 7.675213954024696e-18 8.001796286483653 5.5994164491714346e-15 2.2827229336825704e-18 3.900232928734512e-15 6.918608806445201" Properties=species:S:1:pos:R:3 unique_starting_index=60 config_type=initial n_minim_iter=21 stress="0.03772150481160883 7.350325074801761e-15 -8.680057338874444e-15 7.350325074801761e-15 0.015365887999480445 4.41153314024113e-15 -8.680057338874444e-15 4.41153314024113e-15 -0.0014967747967567014" pbc="T T T"
Si       2.66675174       2.95512453      -0.10144438
Si       2.66675174       5.04667175       7.02005318
Si       0.26881964       1.04577361       3.35786003
Si       0.26881964       6.95602268       3.56074878
Si       3.32638166       5.73435558       3.43816304
Si       3.32638166       2.26744070       3.48044577
Si       0.92844955       6.26833885       6.89746744
Si       0.92844955       1.73345744       0.02114136
Si       1.00098615       3.73427325       5.75807863
Si       1.00098615       4.26752304       1.16053017
Si       3.39891825       0.26662489       2.29877423
Si       3.39891825       7.73517139       4.61983458
