12
Lattice="7.168766044651934 -0.04855639024674833 -0.36389299769431943 -1.6930637286799621 6.973865627659337 0.8846985252438223 -1.1159720622127038 0.18886898689987291 7.221691997468725" Properties=species:S:1:pos:R:3 unique_starting_index=44 config_type=initial n_minim_iter=1 energy=-1962.6260337406438 free_energy=-1962.6260337406438 pbc="T T T"
Si      -1.26036844       3.38166962       5.98886295
Si       0.06790339       3.79362086       3.74829309
Si      -0.91508512       5.21153219       4.97544274
Si       2.00032764       3.12435022       4.33766585
Si       5.88631615       5.16475695       6.70269605
Si       3.88149568       2.74455991       5.25268706
Si       5.54013804       3.48535811      -0.12411813
Si      -0.07282820       3.88246558       1.62897682
Si       0.26688119       2.19163397       5.12914046
Si       5.23330908       3.12373207       3.63416267
Si       0.74040792       0.09690607       5.21256760
Si       2.21650473       1.51204511       5.68346353
12
Lattice="7.178504460623583 -0.053401115547494084 -0.37196405725801096 -1.7007236339967746 6.982406375929424 0.8904361996884371 -1.1259260257879458 0.19439364124428443 7.217415002324705" Properties=species:S:1:pos:R:3 unique_starting_index=44 config_type=initial n_minim_iter=2 stress="0.00790247707410085 -0.004520289591899331 -0.002578397233679586 -0.004520289591899331 0.004562788448989236 0.005610581997839263 -0.002578397233679586 0.005610581997839263 0.008253085439170891" pbc="T T T"
Si      -1.27146614       3.39024108       5.98796186
Si       0.06128059       3.79926088       3.74748329
Si      -0.92568740       5.22084643       4.97639390
Si       1.99617635       3.12910311       4.33381936
Si       5.88292975       5.17017832       6.69388819
Si       3.87880817       2.74833332       5.24576029
Si       5.54522187       3.48509880      -0.12828783
Si      -0.07736537       3.88756089       1.63007658
Si       0.26010936       2.19643240       5.12579322
Si       5.23401468       3.12569230       3.62754611
Si       0.73537503       0.10022365       5.20761166
Si       2.21154675       1.51536668       5.67742854
12
Lattice="7.176980944094839 -0.05158828027750863 -0.37533203357868855 -1.6992137821138795 6.982178915724834 0.8865685327622672 -1.1298222043711441 0.19110927540318207 7.202324251975058" Properties=species:S:1:pos:R:3 unique_starting_index=44 config_type=initial n_minim_iter=3 stress="0.0013643303619250448 -0.0021518140355281322 -0.0027693129724482074 -0.0021518140355281322 -0.002996651627436491 0.004170901650943541 -0.0027693129724482074 0.004170901650943541 -0.012499760743428304" pbc="T T T"
Si      -1.27405650       3.38845692       5.97456587
Si       0.05965422       3.79767397       3.73801628
Si      -0.92736755       5.21914262       4.96432366
Si       1.99435441       3.12830858       4.32173332
Si       5.87889080       5.16859350       6.67356060
Si       3.87571092       2.74754584       5.23080908
Si       5.54501867       3.48649287      -0.13308033
Si      -0.07756119       3.88741300       1.62452714
Si       0.25741983       2.19401820       5.11323525
Si       5.23163965       3.12533039       3.61603187
Si       0.73244946       0.09898786       5.19572784
Si       2.20746677       1.51279392       5.66326528
12
Lattice="7.176886876554403 -0.048822210030165264 -0.37783448844317075 -1.6970364042825838 6.986801503993328 0.8814821739079187 -1.132241094231424 0.1848901210500053 7.2034401866830375" Properties=species:S:1:pos:R:3 unique_starting_index=44 config_type=initial n_minim_iter=4 stress="0.0037045746450388712 0.00031911403735446924 -0.004010510895644756 0.00031911403735446924 0.003813160104960224 -0.0018162851217907595 -0.004010510895644756 -0.0018162851217907595 -0.007970632096576415" pbc="T T T"
Si      -1.27482285       3.38667928       5.97311797
Si       0.05921367       3.79746455       3.73606580
Si      -0.92750969       5.21950391       4.96119935
Si       1.99441786       3.12853705       4.31867273
Si       5.87823515       5.16902420       6.66790043
Si       3.87500221       2.74713520       5.22750313
Si       5.54641960       3.49135069      -0.13815566
Si      -0.07701035       3.88961327       1.62070201
Si       0.25600262       2.19110904       5.11161984
Si       5.23173960       3.12638018       3.61302985
Si       0.73103347       0.09610621       5.19587282
Si       2.20522839       1.50899023       5.66207094
12
Lattice="7.169460875808165 -0.04961752329229278 -0.37770536785745984 -1.6959432901304798 6.985397987619862 0.8835814498701109 -1.1306577694364346 0.18646694441730124 7.209498153541366" Properties=species:S:1:pos:R:3 unique_starting_index=44 config_type=initial n_minim_iter=5 stress="-0.0015089048920051418 -0.0010708219627178464 -0.0034809672237311276 -0.0010708219627178464 -0.0037257109222517976 0.0013735948173523185 -0.0034809672237311276 0.0013735948173523185 -0.0032728593007705286" pbc="T T T"
Si      -1.27254780       3.38962986       5.97843221
Si       0.05780501       3.79576242       3.74220005
Si      -0.92773254       5.21962329       4.96760861
Si       1.99331397       3.12952115       4.32240920
Si       5.87198863       5.16768742       6.67478579
Si       3.87152898       2.74740670       5.23168528
Si       5.54122952       3.48979001      -0.13750138
Si      -0.07783493       3.88963870       1.62088905
Si       0.25469374       2.19070772       5.11513153
Si       5.22740625       3.12457215       3.61977431
Si       0.73162820       0.09991341       5.19994593
Si       2.20149558       1.50662283       5.66757418
12
Lattice="7.171310664475027 -0.049561338643787034 -0.3704256088491397 -1.6953968895364633 6.992506659440151 0.8832281603896456 -1.1237959117133556 0.18836698020238854 7.2055967795717555" Properties=species:S:1:pos:R:3 unique_starting_index=44 config_type=initial n_minim_iter=6 stress="0.0014573758566656997 -0.0002842664056115983 0.0006460328853048196 -0.0002842664056115983 0.0013002100000519745 0.001086665762461446 0.0006460328853048196 0.001086665762461446 -0.003484718939185884" pbc="T T T"
Si      -1.26550714       3.39482807       5.97487793
Si       0.06039484       3.79993544       3.74190215
Si      -0.92337507       5.22656046       4.96633600
Si       1.99862028       3.13406746       4.32321213
Si       5.88068464       5.17521434       6.67930821
Si       3.87817044       2.75127107       5.23374920
Si       5.54328372       3.49326304      -0.13115089
Si      -0.07642656       3.89424989       1.62123913
Si       0.25875184       2.19387604       5.11317192
Si       5.23368940       3.12766777       3.62624733
Si       0.73776392       0.10279742       5.19838226
Si       2.20724328       1.50789473       5.66780158
12
Lattice="7.165979052874412 -0.050830280967596744 -0.3746625199993165 -1.6958717513523989 6.9909867592496315 0.8838895957334943 -1.1270929998209889 0.18784116206149729 7.209105723608101" Properties=species:S:1:pos:R:3 unique_starting_index=44 config_type=initial n_minim_iter=7 stress="-0.0012160942671369216 0.001006910387169851 -0.0028230271943326677 0.001006910387169851 0.0012781966494166607 6.376078522660668e-05 -0.0028230271943326677 6.376078522660668e-05 -0.0008427985079826592" pbc="T T T"
Si      -1.26532409       3.39436294       5.97614901
Si       0.05421565       3.79872222       3.74268093
Si      -0.92679806       5.22676689       4.96731515
Si       1.99411959       3.13200337       4.32405693
Si       5.87137883       5.17440697       6.67821315
Si       3.87050613       2.74828705       5.23376558
Si       5.53860339       3.49112197      -0.13454495
Si      -0.07867471       3.89374018       1.62342263
Si       0.25385831       2.19116377       5.11305911
Si       5.23002360       3.12301811       3.62825686
Si       0.73576141       0.10491267       5.19940104
Si       2.20064117       1.50440868       5.66712947
12
Lattice="7.167803119569098 -0.05574725974549575 -0.3700619860154352 -1.700682907195307 6.987473679859044 0.8811114621200734 -1.1227722855248436 0.18641465660723444 7.211260446867826" Properties=species:S:1:pos:R:3 unique_starting_index=44 config_type=initial n_minim_iter=8 stress="0.001499133608433047 -0.0021743925081682243 0.00017982026583828617 -0.0021743925081682243 0.00020314197755629673 -0.0034871648918992997 0.00017982026583828617 -0.0034871648918992997 0.0018545471311748063" pbc="T T T"
Si      -1.26290324       3.39288629       5.97718701
Si       0.05131881       3.79559439       3.74331463
Si      -0.92750749       5.22468724       4.96582549
Si       1.99438627       3.12659895       4.32682220
Si       5.87386308       5.16682960       6.68322458
Si       3.87247059       2.74103929       5.23876276
Si       5.53861109       3.48460648      -0.13275962
Si      -0.08100974       3.89159228       1.62431613
Si       0.25532153       2.18623527       5.11242790
Si       5.23451095       3.11368866       3.63560545
Si       0.74065955       0.10450698       5.20136936
Si       2.20314261       1.49884105       5.66874467
12
Lattice="7.1637722101513654 -0.04817129043187494 -0.3682261653869846 -1.691780974677696 6.987020229578914 0.8881337548412603 -1.119898134988677 0.19255742173252335 7.214335150672466" Properties=species:S:1:pos:R:3 unique_starting_index=44 config_type=initial n_minim_iter=9 stress="-0.0025426259934776957 0.0008349639149659022 0.0011236136151817025 0.0008349639149659022 0.00022228262533980904 0.0008422026841319218 0.0011236136151817025 0.0008422026841319218 0.0016898513024206654" pbc="T T T"
Si      -1.25541968       3.39901741       5.98394700
Si       0.05451134       3.79978167       3.74952649
Si      -0.92002044       5.23292492       4.97148606
Si       1.99599135       3.13247131       4.33329160
Si       5.87860974       5.18278949       6.69361871
Si       3.87396581       2.74921956       5.24676801
Si       5.54093669       3.49020991      -0.12894250
Si      -0.07717310       3.89511453       1.62950194
Si       0.25789385       2.19024453       5.11416798
Si       5.23967092       3.11979287       3.64578697
Si       0.74338162       0.11169483       5.20307406
Si       2.20449399       1.50604027       5.67093724
12
Lattice="7.169364948716326 -0.042061935402723495 -0.3699823454358661 -1.6874031094726083 6.97901763516992 0.888653688424233 -1.122223866699685 0.19120850497092304 7.217530968446266" Properties=species:S:1:pos:R:3 unique_starting_index=44 config_type=initial n_minim_iter=10 stress="0.003435556950455454 0.0029416604912185676 0.0012272959208001527 0.0029416604912185676 -0.005350335849551094 -6.0088936047098215e-05 0.0012272959208001527 -6.0088936047098215e-05 0.002554821674706764" pbc="T T T"
Si      -1.25212510       3.39750430       5.98634867
Si       0.05600487       3.79727106       3.75090566
Si      -0.91819267       5.23036907       4.97370784
Si       1.99608474       3.13095915       4.33453970
Si       5.88633951       5.18410172       6.69446125
Si       3.87739152       2.74780991       5.25075569
Si       5.54934675       3.49128788      -0.13118758
Si      -0.07562044       3.89383331       1.63004758
Si       0.25572678       2.18694757       5.11399554
Si       5.24909096       3.11640093       3.65000871
Si       0.74444852       0.11096575       5.20380333
Si       2.20674220       1.50471027       5.67060576
12
Lattice="7.156412302889467 -0.04329996732241898 -0.3715562795271054 -1.68565924769094 6.985996633604227 0.8893658008785098 -1.1216762983146051 0.19162248675854254 7.220418604049934" Properties=species:S:1:pos:R:3 unique_starting_index=44 config_type=initial n_minim_iter=11 stress="-0.003113912428978565 -3.110455272218628e-05 0.0018948833927561373 -3.110455272218628e-05 -0.00040109723802260455 -0.0020404332633942187 0.0018948833927561373 -0.0020404332633942187 0.0039774852540705825" pbc="T T T"
Si      -1.24914211       3.40453469       5.98851142
Si       0.05365662       3.80302807       3.75170843
Si      -0.91928442       5.23907482       4.97634157
Si       1.98757473       3.13358934       4.33586041
Si       5.87353184       5.18961720       6.69533617
Si       3.86810575       2.74770104       5.25467592
Si       5.54039350       3.49371257      -0.13324231
Si      -0.07799272       3.90061182       1.63075603
Si       0.25079157       2.18722410       5.11358833
Si       5.24194621       3.11264181       3.65511619
Si       0.74383988       0.10912251       5.20405076
Si       2.20220546       1.50392546       5.67003485
12
Lattice="7.149168000710265 -0.034305959778562205 -0.3755928109336218 -1.6751572444805387 6.9961578625331375 0.898643416820505 -1.1241840223464208 0.19885339275381841 7.223274017716773" Properties=species:S:1:pos:R:3 unique_starting_index=44 config_type=initial n_minim_iter=12 stress="-0.0012732843195640156 0.0007313159924431502 0.002428535845440914 0.0007313159924431502 -0.001108184523884287 0.00053756056223195 0.002428535845440914 0.00053756056223195 0.0025663001280354252" pbc="T T T"
Si      -1.24395895       3.42178136       5.99371908
Si       0.05343521       3.82015872       3.75797458
Si      -0.91403083       5.25444624       4.98394895
Si       1.98428778       3.14599538       4.34047600
Si       5.87045858       5.21570581       6.70006444
Si       3.86445172       2.76072119       5.25978005
Si       5.54171102       3.50763186      -0.13242476
Si      -0.07601022       3.91424280       1.63595039
Si       0.24666387       2.19387551       5.11289905
Si       5.24308770       3.11829313       3.66476146
Si       0.74310534       0.11263780       5.20246680
Si       2.19989477       1.51273935       5.66891619
12
Lattice="7.1365839024819335 -0.024553268659887512 -0.3895315533215459 -1.6638491623007499 7.004413044137438 0.9087455648711512 -1.135346936731359 0.20343969637309342 7.2357194494617385" Properties=species:S:1:pos:R:3 unique_starting_index=44 config_type=initial n_minim_iter=13 stress="0.0007741476649464588 8.188019313090707e-05 0.0003803181183363733 8.188019313090707e-05 0.002428412084933992 -0.0020321808252003054 0.0003803181183363733 -0.0020321808252003054 0.0038553581056459266" pbc="T T T"
Si      -1.24475596       3.43714653       6.00697678
Si       0.04643929       3.83621876       3.76872851
Si      -0.91458999       5.27204246       4.99744812
Si       1.97557577       3.15577280       4.34789137
Si       5.85245188       5.23897288       6.69878728
Si       3.85337969       2.77192153       5.26629645
Si       5.54068613       3.52348803      -0.14156743
Si      -0.07685099       3.92983642       1.64650238
Si       0.23231418       2.20223639       5.10997673
Si       5.23604765       3.11224162       3.67541854
Si       0.73668225       0.11176319       5.20321864
Si       2.18813034       1.51610925       5.66933301
12
Lattice="7.1205337065141965 -0.008767613236105393 -0.4003059920818734 -1.6449823876995973 6.9997520990657875 0.9300400045288735 -1.141772917683768 0.21723642239524318 7.263695843426107" Properties=species:S:1:pos:R:3 unique_starting_index=44 config_type=initial n_minim_iter=14 stress="0.0022868330816972196 -0.004011094537098392 0.0007550968266274922 -0.004011094537098392 -0.0025483952718203706 -0.0003280286758825959 0.0007550968266274922 -0.0003280286758825959 -0.0016102813173810941" pbc="T T T"
Si      -1.23636711       3.45342882       6.03695623
Si       0.04134396       3.85777902       3.78804500
Si      -0.90974235       5.29079250       5.03289190
Si       1.97356623       3.16722102       4.37228752
Si       5.83791490       5.26315457       6.72614509
Si       3.85042873       2.78975494       5.29848954
Si       5.54167555       3.53907326      -0.14822751
Si      -0.07408454       3.95100515       1.66705716
Si       0.22204410       2.21174190       5.11927584
Si       5.23252821       3.09507214       3.70378604
Si       0.73446203       0.12307176       5.21278747
Si       2.17701154       1.52421356       5.68316741
12
Lattice="7.1080328356980305 0.008414295559905893 -0.40626031861432726 -1.625344475567749 7.006685381222968 0.9430153360982306 -1.144523768298746 0.22506164615897156 7.279371855091978" Properties=species:S:1:pos:R:3 unique_starting_index=44 config_type=initial n_minim_iter=15 stress="0.003416607806168914 -0.00214501544135141 -0.0011231359032386518 -0.00214501544135141 0.00132067812940671 0.00042734606370635773 -0.0011231359032386518 0.00042734606370635773 0.0010844050369931157" pbc="T T T"
Si      -1.22855364       3.46646400       6.05374002
Si       0.04441759       3.87588659       3.80170542
Si      -0.90084060       5.30493244       5.05596484
Si       1.97359784       3.18323667       4.38518060
Si       5.83565078       5.29568819       6.73799920
Si       3.84883031       2.80893311       5.31835559
Si       5.54114026       3.55762479      -0.15095483
Si      -0.06723195       3.96890593       1.68060410
Si       0.22335686       2.22255414       5.12437469
Si       5.23065302       3.09741050       3.71592592
Si       0.73179070       0.13508407       5.21950592
Si       2.17239427       1.53598750       5.69273903
12
Lattice="7.102306198655575 0.006236356592563054 -0.41104163924960757 -1.6265342062759895 7.01243700611685 0.9455296474858393 -1.1484937009055871 0.22704984765272793 7.279354666485872" Properties=species:S:1:pos:R:3 unique_starting_index=44 config_type=initial n_minim_iter=16 stress="0.002558270756494163 -0.0019234640631029185 -0.0023576469371459218 -0.0019234640631029185 0.002465401056204872 0.00018452711462577467 -0.0023576469371459218 0.00018452711462577467 -0.002277367125743491" pbc="T T T"
Si      -1.23217136       3.46744221       6.05387131
Si       0.03766758       3.88511912       3.80552931
Si      -0.90606266       5.31157113       5.05887149
Si       1.96833189       3.18760985       4.38402902
Si       5.82569712       5.29778213       6.73189291
Si       3.84014171       2.80725326       5.32058771
Si       5.53516503       3.55877181      -0.15361215
Si      -0.07104152       3.98293361       1.68171472
Si       0.22078771       2.22811407       5.11796691
Si       5.22357194       3.08169935       3.71256470
Si       0.72806184       0.13971838       5.21708660
Si       2.16948365       1.53639637       5.69096911
12
Lattice="7.099674122516508 0.014002651498788312 -0.41242975837942697 -1.61844037932661 7.003875163341006 0.9484128609464295 -1.148890280945889 0.22745069828797423 7.286933761863863" Properties=species:S:1:pos:R:3 unique_starting_index=44 config_type=initial n_minim_iter=17 stress="0.0014047663519416353 0.0015627138523615664 -0.001991504691575556 0.0015627138523615664 0.002709361880007697 -0.00023223538256345833 -0.001991504691575556 -0.00023223538256345833 0.00014425703536194908" pbc="T T T"
Si      -1.23084385       3.46276364       6.06152842
Si       0.04052768       3.88545951       3.80949754
Si      -0.90296985       5.30826437       5.06711451
Si       1.97291052       3.19070208       4.38818263
Si       5.82998370       5.29989977       6.73638741
Si       3.83914017       2.80583205       5.32526123
Si       5.53859668       3.56129888      -0.15198210
Si      -0.06832182       3.98818232       1.68757155
Si       0.22365581       2.22841169       5.12192082
Si       5.22329287       3.07075115       3.71558844
Si       0.72613795       0.14424372       5.22222141
Si       2.17264113       1.53980595       5.69757965
12
Lattice="7.096568641450341 0.014076893702569622 -0.4175884819031927 -1.6182989558811214 6.994777511022985 0.9490832869758539 -1.153241364201834 0.22589270156111252 7.29424034110736" Properties=species:S:1:pos:R:3 unique_starting_index=44 config_type=initial n_minim_iter=18 stress="0.004381149363863558 0.00481197698675395 -0.0019847127188654533 0.00481197698675395 0.0018856874909550425 -0.0016169941564975802 -0.0019847127188654533 -0.0016169941564975802 0.00011743271305728994" pbc="T T T"
Si      -1.23641465       3.45561723       6.06489722
Si       0.03715248       3.88237031       3.81265106
Si      -0.90830568       5.30180508       5.07161031
Si       1.96943496       3.18846361       4.38924456
Si       5.82468829       5.29376534       6.73670573
Si       3.83649067       2.79920421       5.32662981
Si       5.53753850       3.55513040      -0.15628247
Si      -0.07117328       3.99168865       1.69103628
Si       0.22114360       2.22622454       5.12552719
Si       5.21732831       3.05141863       3.71545775
Si       0.72129436       0.14367813       5.22683021
Si       2.16906872       1.53811260       5.70133492
12
Lattice="7.087378809626916 0.005872749991884592 -0.4237183721574296 -1.6248972364793097 6.987591806900673 0.9494298495981183 -1.157676293564425 0.224702031176532 7.304756992401044" Properties=species:S:1:pos:R:3 unique_starting_index=44 config_type=initial n_minim_iter=19 stress="-0.006210981059807426 0.001901639774421421 0.0010868654641039235 0.001901639774421421 -0.003052042491622185 -0.0015474481750188823 0.0010868654641039235 -0.0015474481750188823 -0.0003855644920917667" pbc="T T T"
Si      -1.24697849       3.44970231       6.06849775
Si       0.02311574       3.87581174       3.81807515
Si      -0.92194394       5.29555466       5.07660729
Si       1.96139234       3.18516584       4.39075848
Si       5.81042082       5.28147789       6.73854087
Si       3.82848652       2.78654012       5.32755254
Si       5.52946192       3.53907988      -0.16192503
Si      -0.08011335       4.00137540       1.69671976
Si       0.21419724       2.22447793       5.13439846
Si       5.20875211       3.01905118       3.71306026
Si       0.71342075       0.14101719       5.23552521
Si       2.16142169       1.53630316       5.70748669
12
Lattice="7.072695498483709 0.005953223511607225 -0.4432818011810069 -1.6231464608499757 7.007759667469609 0.9589336492771754 -1.1736203772434866 0.2272942215219096 7.333486376651153" Properties=species:S:1:pos:R:3 unique_starting_index=44 config_type=initial n_minim_iter=20 stress="-0.001018916466726823 0.003407368603455506 0.004980761441058033 0.003407368603455506 -0.005201898849768408 0.001615378853000633 0.004980761441058033 0.001615378853000633 0.006203977602331579" pbc="T T T"
Si      -1.25425462       3.47253625       6.08243573
Si      -0.00246752       3.89571724       3.83821236
Si      -0.94607070       5.31950889       5.09520170
Si       1.94070292       3.19950645       4.40606861
Si       5.78634251       5.29657908       6.74413103
Si       3.81292223       2.78674433       5.33648928
Si       5.53512160       3.54144919      -0.18111821
Si      -0.09495389       4.06260120       1.72218968
Si       0.19908311       2.24151517       5.14993837
Si       5.20378895       2.95037732       3.71730741
Si       0.69747701       0.14416956       5.25454477
Si       2.14151209       1.54919083       5.71746201
12
Lattice="7.066532407028286 0.002727471634163518 -0.46488072629520677 -1.6273601860009463 7.023775956044124 0.9594422817501503 -1.19415229789656 0.2229917706007679 7.340995636663046" Properties=species:S:1:pos:R:3 unique_starting_index=44 config_type=initial n_minim_iter=21 stress="0.004190943604456948 0.004432466785913228 0.0021043475205003498 0.004432466785913228 -0.003372313344104534 -0.0024335835422872217 0.0021043475205003498 -0.0024335835422872217 0.009023909397251834" pbc="T T T"
Si      -1.26337889       3.48886522       6.07298778
Si      -0.03399934       3.90607821       3.84917894
Si      -0.97446666       5.34361303       5.09442440
Si       1.91460033       3.20863397       4.40389144
Si       5.76260276       5.30411128       6.72114286
Si       3.79690281       2.77915467       5.32104035
Si       5.55203340       3.54088966      -0.20388090
Si      -0.11617542       4.11808384       1.73519772
Si       0.18028607       2.24041354       5.14781444
Si       5.20572706       2.87432170       3.70813263
Si       0.67887888       0.13978739       5.25765216
Si       2.11862238       1.55261397       5.70851623
