16
Lattice="5.4585067014300765 0.22789379500326729 0.46851424124951846 2.295490438791152 5.178468992687873 0.6294705187753028 3.7126988770313063 1.811133057541615 13.125267322032533" Properties=species:S:1:pos:R:3 unique_starting_index=3 config_type=initial n_minim_iter=4 energy=-2610.231963750601 free_energy=-2610.231963750601 pbc="T T T"
Si       6.68528359       6.79368336       7.05171987
Si       6.71715052       3.78388284      13.24729680
Si       1.65471496       2.05569649       3.45816620
Si       5.40914908       2.20602709       2.65781235
Si       6.44422815       1.64174780       5.86233368
Si       7.61790348       2.13227951       7.56902844
Si       3.51710635       3.05697054       3.25700127
Si       7.33783770       3.37544050       2.11918181
Si       3.77472647       1.69756466       8.45271473
Si       5.77749013       1.15845641       8.01134716
Si       8.36272509       3.76848018       9.49886600
Si       2.85794904       2.40808422       5.17774581
Si       5.22644531       7.12580471      11.06043978
Si       4.98549696       2.32398803      10.07230315
Si       6.63056951       3.35295117      11.04296841
Si       4.83805123       0.66954356       1.02791908
