14
Lattice="10.148434437705498 0.23714330774162934 3.0747474347317763 -0.20218966879203842 8.425660827165297 0.33875482651894967 -1.5711943050442525 0.3440376544579022 5.11663833455381" Properties=species:S:1:pos:R:3 unique_starting_index=20 config_type=initial n_minim_iter=1 energy=-2287.1272653555325 free_energy=-2287.1272653555325 pbc="T T T"
Si       6.09289072       5.74788831       7.35108285
Si       7.53577540       3.38429719       2.78392267
Si       2.28215975       3.25895348       1.17905774
Si       0.83927506       5.62254460       5.74621793
Si       7.26704195       5.75393652       5.57012012
Si       7.51830268       3.40549060       4.91668951
Si       1.10800852       3.25290527       2.96002048
Si       0.85674778       5.60135119       3.61345109
Si       2.55218036       4.73736601       2.67910003
Si       1.95700241       4.17191232       4.67161497
Si       5.82287011       4.26947577       5.85104057
Si       6.41804805       4.83492947       3.85852562
Si       4.66290252       4.50751259       2.70863051
Si       3.71214794       4.49932920       5.82151009
14
Lattice="10.149133665784719 0.23673270774717023 3.074631029114466 -0.2027012578854158 8.426455944438946 0.33919807778247535 -1.5714506559242263 0.34441970907043384 5.1168580169632865" Properties=species:S:1:pos:R:3 unique_starting_index=20 config_type=initial n_minim_iter=2 stress="0.0009769052573551788 0.0002021262975306299 -0.00017829252866333767 0.0002021262975306299 -0.000271530177241914 3.803014459395665e-05 -0.00017829252866333767 3.803014459395665e-05 0.000978130446003628" pbc="T T T"
Si       6.09286735       5.74843853       7.35148232
Si       7.53611534       3.38429634       2.78401543
Si       2.28211440       3.25916983       1.17920481
Si       0.83886641       5.62331203       5.74667169
Si       7.26713499       5.75432417       5.57042756
Si       7.51857372       3.40561049       4.91684640
Si       1.10784676       3.25328419       2.96025956
Si       0.85640803       5.60199787       3.61384072
Si       2.55204775       4.73779671       2.67938885
Si       1.95683253       4.17240342       4.67192730
Si       5.82293400       4.26981165       5.85129828
Si       6.41814922       4.83520494       3.85875983
Si       4.66294627       4.50777982       2.70888075
Si       3.71203548       4.49982854       5.82180638
14
Lattice="10.148612886907774 0.23615182436756524 3.074395412472146 -0.20328835849527344 8.427376615603306 0.3394813448012684 -1.5713844685622265 0.3447578998674809 5.116422513263972" Properties=species:S:1:pos:R:3 unique_starting_index=20 config_type=initial n_minim_iter=3 stress="-3.953002281847371e-05 -0.00013359208553382325 -0.0004995063136628042 -0.00013359208553382325 -8.024801817784815e-05 0.0002556654240342914 -0.0004995063136628042 0.0002556654240342914 -0.00014521940401446658" pbc="T T T"
Si       6.09217836       5.74889579       7.35107629
Si       7.53553057       3.38420878       2.78392391
Si       2.28176170       3.25939055       1.17922298
Si       0.83840949       5.62407756       5.74637536
Si       7.26635197       5.75462788       5.57016557
Si       7.51794773       3.40562279       4.91655510
Si       1.10758809       3.25365846       2.96013370
Si       0.85599233       5.60266355       3.61374417
Si       2.55160456       4.73824215       2.67937555
Si       1.95649193       4.17286300       4.67167404
Si       5.82233550       4.27004419       5.85092373
Si       6.41744813       4.83542334       3.85862523
Si       4.66239789       4.50800804       2.70889617
Si       3.71154217       4.50027830       5.82140310
14
Lattice="10.149038282128187 0.23570124050422742 3.0757083977350317 -0.203586122880928 8.428570997564067 0.33925397829768394 -1.5707153100024307 0.34475188098784193 5.116131494216416" Properties=species:S:1:pos:R:3 unique_starting_index=20 config_type=initial n_minim_iter=4 stress="1.3546138139412322e-05 8.124422954856555e-05 0.0005353104793452504 8.124422954856555e-05 0.00023360026672651215 0.00048615331634254273 0.0005353104793452504 0.00048615331634254273 0.00022003739024789443" pbc="T T T"
Si       6.09297350       5.74929820       7.35164731
Si       7.53583520       3.38430318       2.78486322
Si       2.28176335       3.25972592       1.17944656
Si       0.83890165       5.62472094       5.74623065
Si       7.26683774       5.75502779       5.57091204
Si       7.51842633       3.40570121       4.91741446
Si       1.10789911       3.25399633       2.96018183
Si       0.85631052       5.60332291       3.61367941
Si       2.55179591       4.73879999       2.67967065
Si       1.95701245       4.17325041       4.67174486
Si       5.82294094       4.27022413       5.85142322
Si       6.41772440       4.83577371       3.85934901
Si       4.66255419       4.50833688       2.70952460
Si       3.71218266       4.50068724       5.82156927
14
Lattice="10.149537915980144 0.23472103831933772 3.0757810820692457 -0.20404976538966324 8.429294457211721 0.3380175945366994 -1.570716818964415 0.3441246935008911 5.115940811252009" Properties=species:S:1:pos:R:3 unique_starting_index=20 config_type=initial n_minim_iter=5 stress="3.301128392738862e-05 -6.791798597297414e-05 -1.0571502869766514e-05 -6.791798597297414e-05 0.00016164372663120342 -0.00019181360323863517 -1.0571502869766514e-05 -0.00019181360323863517 0.0003061604340404583" pbc="T T T"
Si       6.09311192       5.74840891       7.35070896
Si       7.53610651       3.38379569       2.78449734
Si       2.28165941       3.25973128       1.17903053
Si       0.83866482       5.62434450       5.74524215
Si       7.26688580       5.75434872       5.57002697
Si       7.51858797       3.40490381       4.91693384
Si       1.10788553       3.25379147       2.95971252
Si       0.85618337       5.60323638       3.61280565
Si       2.55173892       4.73875866       2.67907023
Si       1.95705311       4.17283935       4.67101229
Si       5.82303241       4.26938153       5.85066926
Si       6.41771822       4.83530084       3.85872719
Si       4.66252769       4.50800552       2.70911311
Si       3.71224365       4.50013467       5.82062638
14
Lattice="10.151621132520553 0.23498518132103982 3.075865238352155 -0.20384142645623174 8.428863906943807 0.33795927135112963 -1.57072244500426 0.3440677673471836 5.115068846817017" Properties=species:S:1:pos:R:3 unique_starting_index=20 config_type=initial n_minim_iter=6 stress="0.0009498932136011756 -1.2041397899687163e-06 0.00020238264407275737 -1.2041397899687163e-06 -4.2356301611505864e-05 -9.462927467923322e-05 0.00020238264407275737 -9.462927467923322e-05 -0.0008105838983059206" pbc="T T T"
Si       6.09487252       5.74821818       7.34987433
Si       7.53787335       3.38396233       2.78444401
Si       2.28218475       3.25969868       1.17901903
Si       0.83918391       5.62395452       5.74444935
Si       7.26864337       5.75432354       5.56949544
Si       7.52023900       3.40497041       4.91655920
Si       1.10841389       3.25359331       2.95939791
Si       0.85681826       5.60294644       3.61233416
Si       2.55270936       4.73872139       2.67880579
Si       1.95793944       4.17277837       4.67039478
Si       5.82434790       4.26919546       5.85008757
Si       6.41911782       4.83513848       3.85849858
Si       4.66350892       4.50765504       2.70935151
Si       3.71354834       4.50026182       5.81954184
14
Lattice="10.151569118464447 0.2351784229176237 3.076024063680393 -0.20370621236419026 8.42869835016884 0.3380762100729293 -1.5706829535536464 0.3441005318438461 5.11524847524846" Properties=species:S:1:pos:R:3 unique_starting_index=20 config_type=initial n_minim_iter=7 stress="0.00016578689875462366 0.00016245535460169712 -1.4084111775170541e-05 0.00016245535460169712 6.788168048995003e-05 5.608025633835192e-05 -1.4084111775170541e-05 5.608025633835192e-05 1.1416482368262404e-05" pbc="T T T"
Si       6.09497498       5.74825740       7.35022767
Si       7.53794107       3.38411503       2.78459852
Si       2.28220498       3.25971991       1.17912108
Si       0.83923888       5.62386228       5.74475023
Si       7.26868155       5.75443044       5.56976120
Si       7.52020056       3.40510006       4.91680209
Si       1.10849840       3.25354687       2.95958755
Si       0.85697939       5.60287724       3.61254666
Si       2.55290022       4.73876657       2.67898420
Si       1.95809727       4.17283895       4.67063564
Si       5.82427974       4.26921074       5.85036455
Si       6.41908268       4.83513836       3.85871311
Si       4.66348055       4.50754135       2.70971158
Si       3.71369940       4.50043596       5.81963717
14
Lattice="10.153220818413924 0.23186749647414545 3.077833089298459 -0.2061329594097784 8.42634059459039 0.3372855517997847 -1.5701337995733522 0.3439901555345712 5.115240353196436" Properties=species:S:1:pos:R:3 unique_starting_index=20 config_type=initial n_minim_iter=8 stress="0.00012377184193524288 -0.00017537625084308218 0.00012115123247830246 -0.00017537625084308218 -0.0003548359909839628 -2.2789561022996615e-06 0.00012115123247830246 -2.2789561022996615e-06 -7.859790973103024e-06" pbc="T T T"
Si       6.09514886       5.74390339       7.35127299
Si       7.53862796       3.38105369       2.78554419
Si       2.28180520       3.25829486       1.17908601
Si       0.83832610       5.62114456       5.74481481
Si       7.26866992       5.75034931       5.57040773
Si       7.52057440       3.40159492       4.91802064
Si       1.10828414       3.25184894       2.95995126
Si       0.85637966       5.60060332       3.61233836
Si       2.55269307       4.73676426       2.67926214
Si       1.95827476       4.17092777       4.67105451
Si       5.82426099       4.26543398       5.85109686
Si       6.41867930       4.83127048       3.85930448
Si       4.66323349       4.50367869       2.71057107
Si       3.71372057       4.49851956       5.81978792
14
Lattice="10.155614509086474 0.22790837238340209 3.079374306007606 -0.2089047821205554 8.426507109326174 0.3355846158368218 -1.569711979438999 0.3435093927403671 5.114783731392028" Properties=species:S:1:pos:R:3 unique_starting_index=20 config_type=initial n_minim_iter=9 stress="-0.000162695081946709 -0.00018476015875646827 -9.153264410344951e-06 -0.00018476015875646827 -7.183791605269755e-05 -7.086926373229566e-05 -9.153264410344951e-06 -7.086926373229566e-05 -0.00017007293050808314" pbc="T T T"
Si       6.09561671       5.74014275       7.35114718
Si       7.54017265       3.37875582       2.78570180
Si       2.28138104       3.25778212       1.17859547
Si       0.83682510       5.61916905       5.74404085
Si       7.26877609       5.74733506       5.56952839
Si       7.52094001       3.39846495       4.91844203
Si       1.10822165       3.25058982       2.96021426
Si       0.85605774       5.59945992       3.61130063
Si       2.55321194       4.73629096       2.67904557
Si       1.95877679       4.17000747       4.67033852
Si       5.82378581       4.26163391       5.85069708
Si       6.41822096       4.82791741       3.85940414
Si       4.66293057       4.49925470       2.71049259
Si       3.71406718       4.49867017       5.81925006
14
Lattice="10.15597115693224 0.22793095131581625 3.079510789786123 -0.20888665407203338 8.42746307612413 0.3355045097498968 -1.5696442702345434 0.34350509129038537 5.1146079838544605" Properties=species:S:1:pos:R:3 unique_starting_index=20 config_type=initial n_minim_iter=10 stress="-0.00021478114290864584 0.00020231779307013184 -0.0001151365501542455 0.00020231779307013184 0.00014091546067287143 4.719416473445721e-06 -0.0001151365501542455 4.719416473445721e-06 -0.00029228734355717887" pbc="T T T"
Si       6.09602691       5.74062727       7.35090256
Si       7.54070290       3.37938607       2.78571046
Si       2.28141332       3.25827185       1.17872072
Si       0.83673733       5.61951305       5.74391282
Si       7.26899254       5.74816090       5.56939905
Si       7.52093984       3.39896637       4.91833510
Si       1.10844770       3.25073822       2.96022423
Si       0.85650039       5.59993275       3.61128819
Si       2.55354865       4.73711248       2.67906199
Si       1.95926184       4.17083343       4.67024937
Si       5.82389158       4.26178664       5.85056129
Si       6.41817839       4.82806569       3.85937391
Si       4.66326054       4.49868013       2.71055435
Si       3.71417969       4.50021899       5.81906893
14
Lattice="10.154462715317791 0.21971118903674705 3.0822029927920065 -0.21555302065031257 8.428534172337798 0.3352961153609988 -1.5685698565682062 0.3446632152578796 5.115303624159422" Properties=species:S:1:pos:R:3 unique_starting_index=20 config_type=initial n_minim_iter=11 stress="-0.0003352987382671867 -0.00023876176120128805 4.289032664586028e-05 -0.00023876176120128805 4.404068545527442e-06 -6.496847335750687e-05 4.289032664586028e-05 -6.496847335750687e-05 -0.00016917174540861848" pbc="T T T"
Si       6.09177863       5.73556144       7.35272104
Si       7.53785075       3.37435475       2.78788092
Si       2.27856120       3.25734714       1.18008169
Si       0.83248909       5.61855382       5.74492181
Si       7.26347913       5.74334390       5.57169931
Si       7.51693268       3.39356515       4.91995745
Si       1.10686071       3.24956468       2.96110342
Si       0.85340716       5.59934343       3.61284528
Si       2.55039930       4.73601044       2.67984991
Si       1.95660634       4.17086739       4.67139739
Si       5.81994054       4.25689814       5.85295282
Si       6.41373350       4.82204119       3.86140535
Si       4.65919843       4.49129631       2.71231558
Si       3.71114141       4.50161226       5.82048715
14
Lattice="10.150529632066045 0.21243990945422978 3.0831221916278015 -0.2218684172887162 8.431208514712573 0.3363688742480789 -1.568295385157645 0.3465407833825246 5.116978735469351" Properties=species:S:1:pos:R:3 unique_starting_index=20 config_type=initial n_minim_iter=12 stress="-0.00010138874194846306 -0.00015566220526538817 -0.00011177608437893439 -0.00015566220526538817 -0.000392374347395465 0.00022356662900981062 -0.00011177608437893439 0.00022356662900981062 0.00010765429330192459" pbc="T T T"
Si       6.08483361       5.73288314       7.35516173
Si       7.53339039       3.37100111       2.78903205
Si       2.27553222       3.25730606       1.18130807
Si       0.82697544       5.61918810       5.74743775
Si       7.25556241       5.74074607       5.57329978
Si       7.51007420       3.39023008       4.92092195
Si       1.10480342       3.24944314       2.96317002
Si       0.85029163       5.59995913       3.61554786
Si       2.54589275       4.73689794       2.68098792
Si       1.95209161       4.17282765       4.67303922
Si       5.81447308       4.25329126       5.85548188
Si       6.40827421       4.81736156       3.86343058
Si       4.65395234       4.48346040       2.71464336
Si       3.70641349       4.50672880       5.82182644
14
Lattice="10.149438646148546 0.20908219041100487 3.083609318373024 -0.22385642855556684 8.440349919012016 0.3331497415375184 -1.5679951696416017 0.345333285890402 5.117073394601025" Properties=species:S:1:pos:R:3 unique_starting_index=20 config_type=initial n_minim_iter=13 stress="0.00020323578143143571 -5.128470335843219e-05 -0.00011424040598444503 -5.128470335843219e-05 8.198593085468207e-05 7.375166662414376e-06 -0.00011424040598444503 7.375166662414376e-06 0.00017603019098588567" pbc="T T T"
Si       6.08270307       5.73470622       7.35351848
Si       7.53212344       3.37230183       2.78810782
Si       2.27488398       3.26005918       1.18031397
Si       0.82546361       5.62246357       5.74572464
Si       7.25341921       5.74351703       5.57125001
Si       7.50813694       3.39053394       4.91980981
Si       1.10416784       3.25124837       2.96258244
Si       0.84945011       5.60423146       3.61402265
Si       2.54484336       4.74086190       2.67896652
Si       1.95060913       4.17611928       4.67210836
Si       5.81274369       4.25390350       5.85486594
Si       6.40697792       4.81864612       3.86172410
Si       4.65239812       4.48297989       2.71383631
Si       3.70518893       4.51178551       5.81999615
14
Lattice="10.148541166313759 0.20714310071604844 3.084815862615475 -0.2251526451633991 8.443507746903324 0.33206275250577744 -1.56729522556983 0.3450622472716657 5.117033516311046" Properties=species:S:1:pos:R:3 unique_starting_index=20 config_type=initial n_minim_iter=14 stress="0.00020514769182568797 -0.00010265033539445559 -7.34444897179588e-06 -0.00010265033539445559 8.368010023626808e-05 -5.099759456566847e-05 -7.34444897179588e-06 -5.099759456566847e-05 0.0002354064974692606" pbc="T T T"
Si       6.08172286       5.73485207       7.35354879
Si       7.53109136       3.37204843       2.78810818
Si       2.27437044       3.26086103       1.18036334
Si       0.82500194       5.62366467       5.74580395
Si       7.25240510       5.74378303       5.57134976
Si       7.50720890       3.39013799       4.92065118
Si       1.10368820       3.25193007       2.96256237
Si       0.84888440       5.60557511       3.61326095
Si       2.54403956       4.74161599       2.67860150
Si       1.95022966       4.17731228       4.67182319
Si       5.81205374       4.25409710       5.85531063
Si       6.40586364       4.81840081       3.86208895
Si       4.65136143       4.48200471       2.71416332
Si       3.70473186       4.51370839       5.81974881
14
Lattice="10.147700858760388 0.2071385581285465 3.0846636775899574 -0.22529999711102622 8.447324074579315 0.3322808025465753 -1.5669260740871611 0.34542989206751956 5.115962388907312" Properties=species:S:1:pos:R:3 unique_starting_index=20 config_type=initial n_minim_iter=15 stress="0.00011548240069308757 4.1386236028563935e-05 6.680207747194488e-05 4.1386236028563935e-05 -4.425245472479854e-05 1.2173436995260055e-05 6.680207747194488e-05 1.2173436995260055e-05 4.628630828426444e-05" pbc="T T T"
Si       6.08100073       5.73759055       7.35266135
Si       7.53038702       3.37365727       2.78775092
Si       2.27447406       3.26230198       1.18024552
Si       0.82508777       5.62623526       5.74515595
Si       7.25246283       5.74610275       5.57027903
Si       7.50697801       3.39199129       4.92037899
Si       1.10301196       3.25378978       2.96262784
Si       0.84849677       5.60790123       3.61252788
Si       2.54392434       4.74281887       2.67884725
Si       1.95015293       4.18072904       4.67079286
Si       5.81155044       4.25707365       5.85405962
Si       6.40532186       4.81916349       3.86211401
Si       4.65088098       4.48085948       2.71457038
Si       3.70459381       4.51903305       5.81833649
14
Lattice="10.14825997163574 0.21207545428645644 3.083387046677199 -0.22149326027413524 8.449876792145457 0.3328705491111925 -1.567116359779026 0.34522663241456164 5.114748386130447" Properties=species:S:1:pos:R:3 unique_starting_index=20 config_type=initial n_minim_iter=16 stress="-0.00036528041712478697 -5.154107749568804e-05 -3.064072615239355e-05 -5.154107749568804e-05 0.00015047185430401097 -2.386205465596605e-05 -3.064072615239355e-05 -2.386205465596605e-05 -0.00018756152967839009" pbc="T T T"
Si       6.08419114       5.74235225       7.35112725
Si       7.53274617       3.37802750       2.78706952
Si       2.27545921       3.26482663       1.17987873
Si       0.82690418       5.62915138       5.74393646
Si       7.25636559       5.74959535       5.56886433
Si       7.50936323       3.39795773       4.91917305
Si       1.10328476       3.25758353       2.96214165
Si       0.85028712       5.60922115       3.61183293
Si       2.54607095       4.74456252       2.67866343
Si       1.95255071       4.18279095       4.67045653
Si       5.81357940       4.26261636       5.85234255
Si       6.40709965       4.82438793       3.86054945
Si       4.65266464       4.48026991       2.71488991
Si       3.70698572       4.52690897       5.81611607
14
Lattice="10.148245214293391 0.21567497194177232 3.0835082125228968 -0.2187512895030969 8.448933938032775 0.3337711841077296 -1.5669105146157623 0.34523141324710327 5.114680536065966" Properties=species:S:1:pos:R:3 unique_starting_index=20 config_type=initial n_minim_iter=17 stress="-0.0003187768349471854 -8.440428518238196e-05 -1.830989602834168e-05 -8.440428518238196e-05 -2.0554397145897603e-05 -4.541285582136508e-05 -1.830989602834168e-05 -4.541285582136508e-05 -0.0001138313626757192" pbc="T T T"
Si       6.08710139       5.74465054       7.35181892
Si       7.53366981       3.38064398       2.78741480
Si       2.27548202       3.26518979       1.18014101
Si       0.82891360       5.62919635       5.74454513
Si       7.25838627       5.75014994       5.56965724
Si       7.51142964       3.40089036       4.91992834
Si       1.10419714       3.25969038       2.96230269
Si       0.85115377       5.60894996       3.61203159
Si       2.54773348       4.74481522       2.67936236
Si       1.95404217       4.18269653       4.67132462
Si       5.81484993       4.26502511       5.85259757
Si       6.40854124       4.82714379       3.86063531
Si       4.65428329       4.47960411       2.71580618
Si       3.70830012       4.53023621       5.81615375
14
Lattice="10.147948491765748 0.21697084744134515 3.082652917772013 -0.217835933218813 8.450096009471455 0.33413669566896526 -1.5673239780732042 0.3453108891012173 5.114912413461326" Properties=species:S:1:pos:R:3 unique_starting_index=20 config_type=initial n_minim_iter=18 stress="-1.2581193309304924e-05 -1.9636027320075906e-06 1.546302266804922e-05 -1.9636027320075906e-06 3.6196769982481546e-05 1.467741119237682e-05 1.546302266804922e-05 1.467741119237682e-05 1.3842760435920368e-05" pbc="T T T"
Si       6.08700386       5.74599566       7.35156938
Si       7.53375994       3.38226537       2.78694171
Si       2.27578472       3.26638209       1.18013265
Si       0.82902864       5.63011237       5.74476032
Si       7.25853231       5.75203257       5.56932339
Si       7.51125275       3.40235271       4.91940692
Si       1.10425627       3.26034517       2.96237864
Si       0.85153583       5.61002503       3.61229511
Si       2.54790686       4.74584992       2.67937768
Si       1.95400049       4.18346525       4.67143003
Si       5.81488172       4.26652783       5.85232435
Si       6.40878809       4.82891250       3.86027200
Si       4.65448852       4.48079901       2.71548250
Si       3.70830006       4.53157874       5.81621952
14
Lattice="10.148101621370067 0.21857153684286548 3.0820267774912486 -0.21666160857717737 8.450095853052908 0.334568040749585 -1.5676163371630816 0.34534597403032585 5.114933564662447" Properties=species:S:1:pos:R:3 unique_starting_index=20 config_type=initial n_minim_iter=19 stress="2.4516107064419976e-05 1.3096362854433442e-05 1.0176244444106555e-05 1.3096362854433442e-05 -3.834215711090336e-05 8.648584947637125e-07 1.0176244444106555e-05 8.648584947637125e-07 1.0115974821161688e-05" pbc="T T T"
Si       6.08762674       5.74696974       7.35137816
Si       7.53421186       3.38356466       2.78662988
Si       2.27619693       3.26704363       1.18015022
Si       0.82961181       5.63044870       5.74489850
Si       7.25925838       5.75326055       5.56914675
Si       7.51172849       3.40354571       4.91907766
Si       1.10456529       3.26075281       2.96238164
Si       0.85209518       5.61046765       3.61245072
Si       2.54843033       4.74623790       2.67955772
Si       1.95439360       4.18365660       4.67151442
Si       5.81539334       4.26777547       5.85197066
Si       6.40943007       4.83035677       3.86001396
Si       4.65511779       4.48199174       2.71529577
Si       3.70870589       4.53202162       5.81623261
14
Lattice="10.148007120913935 0.22097712243217613 3.081301953732053 -0.21490467894996862 8.45304362572785 0.33506014231938014 -1.567864738841111 0.34543463016247666 5.114857881537396" Properties=species:S:1:pos:R:3 unique_starting_index=20 config_type=initial n_minim_iter=20 stress="5.906822244197736e-05 -3.3733058992030163e-06 -3.927222330105259e-06 -3.3733058992030163e-06 -4.8157744618321144e-05 -1.1196219762002156e-05 -3.927222330105259e-06 -1.1196219762002156e-05 1.104880728969023e-05" pbc="T T T"
Si       6.08856352       5.75009355       7.35096138
Si       7.53464017       3.38689644       2.78611477
Si       2.27667418       3.26936183       1.18025860
Si       0.83059753       5.63255893       5.74510521
Si       7.26007451       5.75674107       5.56873901
Si       7.51222754       3.40647982       4.91860424
Si       1.10516319       3.26271431       2.96248097
Si       0.85301017       5.61297556       3.61261573
Si       2.54920403       4.74824774       2.67990405
Si       1.95496637       4.18554060       4.67164157
Si       5.81603367       4.27120764       5.85131593
Si       6.41027133       4.83391478       3.85957840
Si       4.65595796       4.48430349       2.71525821
Si       3.70927975       4.53515189       5.81596176
