12
Lattice="3.9653077854542014 0.5425757214970202 -5.5848094200924916e-14 0.5186854082159265 5.4748210516127855 -2.4988340948303743e-13 8.572993548963247e-14 4.855227017611522e-13 10.81594384903756" Properties=species:S:1:pos:R:3 unique_starting_index=57 config_type=initial n_minim_iter=1 energy=-1953.557044107581 free_energy=-1953.557044107581 pbc="T T T"
Si       1.87940922       2.68495100       0.29842477
Si       2.60458398       3.33244577       5.70639669
Si       3.40822839       5.59690931       7.40083008
Si       1.07576481       0.42048746       1.99285815
Si       2.78577325       3.38026468       8.09350350
Si       1.69821995       2.63713210       2.68553158
Si       2.51320074       5.56681733       5.16710587
Si       1.97079245       0.45057945      10.57507780
Si       3.69341405       3.97632928      10.30227302
Si       0.79057914       2.04106750       4.89430110
Si       3.08845626       0.80098031       3.16488983
Si       1.39553694       5.21641647       8.57286176
12
Lattice="3.999181265453484 0.5723196820378107 -5.745183463916599e-14 0.5499165249212917 5.57908585496941 -2.5481141000574946e-13 8.488438256002299e-14 4.807440832263042e-13 10.709493927408426" Properties=species:S:1:pos:R:3 unique_starting_index=57 config_type=initial n_minim_iter=2 stress="0.004783443183663577 -0.004027050609428153 6.138391992964373e-17 -0.004027050609428153 0.005805264867216122 8.494780473948778e-17 6.138391992964373e-17 8.494780473948778e-17 0.0059158994607369664" pbc="T T T"
Si       1.90703610       2.74631194       0.29566814
Si       2.64206169       3.40509359       5.65041510
Si       3.46440101       5.72005357       7.32668604
Si       1.08469679       0.43135197       1.97193907
Si       2.82402224       3.45623980       8.01460230
Si       1.72507555       2.69516574       2.65985534
Si       2.56351499       5.68456920       5.11677892
Si       1.98558281       0.46683634      10.47152588
Si       3.74405257       4.06697927      10.20033109
Si       0.80504523       2.08442627       4.84558412
Si       3.11790043       0.83031035       3.13413169
Si       1.43119736       5.32109518       8.48887866
12
Lattice="3.991493170022652 0.5903776044009712 -5.820153684606748e-14 0.5744199635411841 5.574869880582868 -2.548165621733758e-13 8.425256224261229e-14 4.771726216114858e-13 10.629941425300833" Properties=species:S:1:pos:R:3 unique_starting_index=57 config_type=initial n_minim_iter=3 stress="-0.002182623341613471 -0.0002254346832971958 -1.1260319590555248e-17 -0.0002254346832971958 0.000807892928342787 -2.030432230931867e-16 -1.1260319590555248e-17 -2.030432230931867e-16 -0.006254421408146887" pbc="T T T"
Si       1.91464046       2.75365595       0.29294130
Si       2.65127268       3.41159153       5.60791201
Si       3.48326825       5.73071698       7.27159224
Si       1.08264488       0.43453050       1.95662152
Si       2.83245665       3.46618235       7.95588249
Si       1.73345648       2.69906513       2.64091178
Si       2.58648193       5.69149123       5.07921122
Si       1.97943121       0.47375625      10.39418193
Si       3.75487172       4.07782596      10.12438221
Si       0.81104142       2.08742152       4.80941150
Si       3.11441704       0.84331853       3.11097401
Si       1.45149610       5.32192896       8.42594472
12
Lattice="4.008300518695029 0.6274746891017566 -6.00000477965339e-14 0.6301295868174009 5.558119820155609 -2.5450628296349123e-13 8.477686930927484e-14 4.801363292467836e-13 10.695965391819257" Properties=species:S:1:pos:R:3 unique_starting_index=57 config_type=initial n_minim_iter=4 stress="0.0004114327474613391 0.0075075825668457444 -1.6079725453193073e-16 0.0075075825668457444 -0.002221734099777531 3.691459095559737e-16 -1.6079725453193073e-16 3.691459095559737e-16 0.0036275226970898813" pbc="T T T"
Si       1.94698137       2.76941757       0.29125159
Si       2.69144874       3.41617693       5.63923428
Si       3.55438557       5.74780207       7.31467150
Si       1.08404454       0.43779244       1.96668880
Si       2.87361686       3.48571076       8.00878511
Si       1.76481325       2.69988375       2.66080241
Si       2.66448852       5.70168063       5.11243870
Si       1.97394159       0.48391388      10.46042139
Si       3.81222556       4.08831785      10.18749796
Si       0.82620455       2.09727666       4.83951526
Si       3.13536921       0.86700903       3.13049215
Si       1.50306090       5.31858548       8.47847485
12
Lattice="4.010191208608643 0.6122292049773181 -5.933069694778453e-14 0.6133417833522797 5.5287841611031645 -2.530564120309e-13 8.469319772628624e-14 4.796635913588536e-13 10.685436685785893" Properties=species:S:1:pos:R:3 unique_starting_index=57 config_type=initial n_minim_iter=5 stress="0.00024954067230442993 0.0018756765217209646 -9.986784143564927e-17 0.0018756765217209646 -0.0008324201326331764 1.5415161443557557e-16 -9.986784143564927e-17 1.5415161443557557e-16 0.0014764400127736303" pbc="T T T"
Si       1.94384017       2.76676621       0.28333022
Si       2.67969283       3.37424716       5.62604856
Si       3.55182609       5.72008581       7.30428638
Si       1.07170691       0.42092756       1.96156803
Si       2.86704023       3.47209064       8.00810480
Si       1.75649276       2.66892273       2.66538646
Si       2.68652311       5.68153217       5.11133790
Si       1.93700989       0.45948120      10.45405624
Si       3.81834000       4.03185071      10.17689965
Si       0.80519299       2.10916265       4.83418130
Si       3.14569025       0.84258239       3.12766530
Si       1.47784275       5.29843098       8.47038365
12
Lattice="4.012649380158281 0.6112085652239403 -5.930439290450362e-14 0.6135455894343762 5.519345927995051 -2.5263440617646673e-13 8.464314617310419e-14 4.793809292575918e-13 10.679142242575777" Properties=species:S:1:pos:R:3 unique_starting_index=57 config_type=initial n_minim_iter=6 stress="0.0008053516891295937 -0.0002365339724405053 -2.306315724701804e-16 -0.0002365339724405053 -0.00023270017083788257 7.789187424264633e-18 -2.306315724701804e-16 7.789187424264633e-18 -0.00018457978634361526" pbc="T T T"
Si       1.95078710       2.76753143       0.27978239
Si       2.67540788       3.36302306       5.61935351
Si       3.55821497       5.71664425       7.30179478
Si       1.06798001       0.41391024       1.96222366
Si       2.87150387       3.47490994       8.00658464
Si       1.75469111       2.65564456       2.66701352
Si       2.71095320       5.68226033       5.11044670
Si       1.91524177       0.44829416      10.45001783
Si       3.82450623       4.01310571      10.16792178
Si       0.80168875       2.11744878       4.82835066
Si       3.15091580       0.83292075       3.12505881
Si       1.47527917       5.29763374       8.46462993
12
Lattice="3.991301077891556 0.6235420496432261 -5.968885691260183e-14 0.6261386420032408 5.531353906993004 -2.53273343915297e-13 8.484930474373863e-14 4.805463838451574e-13 10.705108576759518" Properties=species:S:1:pos:R:3 unique_starting_index=57 config_type=initial n_minim_iter=7 stress="-0.0029088680476165437 -0.0026129212781832254 -2.3528122844838034e-16 -0.0026129212781832254 0.0025394420184356266 -1.1605653075013475e-16 -2.3528122844838034e-16 -1.1605653075013475e-16 -0.001213545005985473" pbc="T T T"
Si       1.96641426       2.77761090       0.27571195
Si       2.65102547       3.37728506       5.62826624
Si       3.55775808       5.74984656       7.33184086
Si       1.05968164       0.40504939       1.97928657
Si       2.87571838       3.51052597       8.02918547
Si       1.74172134       2.64436999       2.67663118
Si       2.76116438       5.72287371       5.12807329
Si       1.85627534       0.43202225      10.48062758
Si       3.81209843       4.01187994      10.18111765
Si       0.80534129       2.14301602       4.82856336
Si       3.13711317       0.82045618       3.12831043
Si       1.48032656       5.33443978       8.48086472
12
Lattice="4.018960512943747 0.6299637582033536 -6.019638302169754e-14 0.6407554999801853 5.515768819370308 -2.5268965667531796e-13 8.472983199671433e-14 4.79871255266062e-13 10.690071583863444" Properties=species:S:1:pos:R:3 unique_starting_index=57 config_type=initial n_minim_iter=8 stress="0.003906948288318285 -0.0029472026824709234 -1.0856059465618888e-16 -0.0029472026824709234 -0.0002916712437451846 -1.0912725710082283e-16 -1.0856059465618888e-16 -1.0912725710082283e-16 -0.002328360358157327" pbc="T T T"
Si       1.99235113       2.76284058       0.27605533
Si       2.66736488       3.38289200       5.62109112
Si       3.58867380       5.74226388       7.32953975
Si       1.07104222       0.40346870       1.98450396
Si       2.90750083       3.51272111       8.01525852
Si       1.75221519       2.63301147       2.67022273
Si       2.80265457       5.71561150       5.12373713
Si       1.85706145       0.43012107      10.46877292
Si       3.83898656       4.00721834      10.16095968
Si       0.82072946       2.13851423       4.81592389
Si       3.15722141       0.81442326       3.12082666
Si       1.50249461       5.33130931       8.46586245
12
Lattice="3.999864698565992 0.6532289379883841 -6.108940556528411e-14 0.6664271021676549 5.544653583544063 -2.541898168810689e-13 8.502293913425558e-14 4.81528072051735e-13 10.726982565762976" Properties=species:S:1:pos:R:3 unique_starting_index=57 config_type=initial n_minim_iter=9 stress="0.001972754797729618 -0.0009813890216913528 -9.704797054140929e-17 -0.0009813890216913528 0.00023425099083678114 2.3360535398257075e-16 -9.704797054140929e-17 2.3360535398257075e-16 0.0012125056667548156" pbc="T T T"
Si       2.00392853       2.76206223       0.27949274
Si       2.66236327       3.43582029       5.64298402
Si       3.59135194       5.78964141       7.36919051
Si       1.07493986       0.40824111       2.00569922
Si       2.91953261       3.55096703       8.03474690
Si       1.74675919       2.64691549       2.67125561
Si       2.82642224       5.75819134       5.14676721
Si       1.83986956       0.43969118      10.51025849
Si       3.82781540       4.05069022      10.18845209
Si       0.83847640       2.14719230       4.82496080
Si       3.13900266       0.81917059       3.12521488
Si       1.52728914       5.37871194       8.48870616
12
Lattice="3.991170641981969 0.6694507202958798 -6.1748692602377e-14 0.6863040039847256 5.554760636329875 -2.548011276066628e-13 8.503075542615188e-14 4.815722127252634e-13 10.727968589138072" Properties=species:S:1:pos:R:3 unique_starting_index=57 config_type=initial n_minim_iter=10 stress="-0.00016461598083619358 0.000540380700648133 -4.773298986889952e-16 0.000540380700648133 -0.00012647138358489834 -1.1052889303059372e-16 -4.773298986889952e-16 -1.1052889303059372e-16 0.0006952610635907735" pbc="T T T"
Si       2.01216242       2.76071131       0.27857766
Si       2.66531223       3.46350005       5.64256196
Si       3.60280115       5.81643252       7.37686308
Si       1.07467350       0.40777883       2.01287879
Si       2.93125447       3.57262262       8.03006426
Si       1.74622018       2.65158874       2.66607996
Si       2.85118254       5.77986059       5.15261597
Si       1.82629211       0.44435077      10.51660027
Si       3.83123706       4.06972148      10.18703026
Si       0.84623759       2.15448988       4.82304597
Si       3.13392414       0.82055527       3.12185158
Si       1.54355051       5.40365609       8.48583588
12
Lattice="3.9870981489539536 0.6820574827178005 -6.228233287158745e-14 0.7026877732771772 5.558337533681104 -2.550916251410568e-13 8.499481124812497e-14 4.813689432162207e-13 10.723443554018239" Properties=species:S:1:pos:R:3 unique_starting_index=57 config_type=initial n_minim_iter=11 stress="-0.0005241462283974762 0.001034229541756054 -5.228576313445378e-16 0.001034229541756054 -0.0003573902297100652 -1.4551677000205285e-16 -5.228576313445378e-16 -1.4551677000205285e-16 -0.0001247304012595771" pbc="T T T"
Si       2.01934698       2.75451055       0.27512384
Si       2.67043895       3.48588447       5.63684562
Si       3.61648559       5.83773817       7.37991557
Si       1.07330033       0.40265684       2.01819380
Si       2.94458986       3.58951942       8.01955101
Si       1.74519607       2.65087559       2.65782923
Si       2.87716224       5.79459801       5.15781229
Si       1.81262369       0.44579701      10.51953407
Si       3.83962944       4.07855129      10.18281565
Si       0.85015649       2.16184373       4.82109387
Si       3.13443345       0.81576469       3.11738131
Si       1.55535248       5.42463032       8.47910309
12
Lattice="3.9841533102933733 0.6844205557531119 -6.236507690543912e-14 0.7056060062077152 5.558039446989432 -2.551014515258789e-13 8.497956037925604e-14 4.812826034255937e-13 10.721523565776769" Properties=species:S:1:pos:R:3 unique_starting_index=57 config_type=initial n_minim_iter=12 stress="-0.0007186447272301122 0.0006012961863448861 -2.66392683390589e-16 0.0006012961863448861 -0.00013370751041034336 8.545121966095609e-17 -2.66392683390589e-16 8.545121966095609e-17 -0.00017639672597697954" pbc="T T T"
Si       2.01906919       2.74913529       0.27113006
Si       2.67069013       3.49332471       5.63189184
Si       3.61869077       5.84626461       7.38060474
Si       1.07106855       0.39619539       2.01984296
Si       2.94786844       3.59543150       8.01303890
Si       1.74189089       2.64702850       2.65227711
Si       2.88356355       5.79912403       5.16145918
Si       1.80619578       0.44333597      10.52222096
Si       3.84142097       4.07630008      10.18357344
Si       0.84833835       2.16615992       4.82281166
Si       3.13427334       0.80869221       3.11668206
Si       1.55548598       5.43376780       8.47744384
12
Lattice="3.985208826665023 0.679111419428984 -6.213513474481255e-14 0.6990165630692711 5.553634678954825 -2.548516316485445e-13 8.488183630006048e-14 4.807299979273154e-13 10.709219370833113" Properties=species:S:1:pos:R:3 unique_starting_index=57 config_type=initial n_minim_iter=13 stress="0.0005323966019055828 -0.0007456840424315059 -2.1253153359445366e-16 -0.0007456840424315059 0.000133757192478583 -5.1337853554065666e-17 -2.1253153359445366e-16 -5.1337853554065666e-17 -0.00023327834234471598" pbc="T T T"
Si       2.01400954       2.73872061       0.26166171
Si       2.67021585       3.49402549       5.61627139
Si       3.61538780       5.85123219       7.37212568
Si       1.06883760       0.38151390       2.01751599
Si       2.94831695       3.59739728       7.99491066
Si       1.73590845       2.63534882       2.64030097
Si       2.87489125       5.79819269       5.16096530
Si       1.80933415       0.43455341      10.51557499
Si       3.84211624       4.06218099      10.18025860
Si       0.84210915       2.17056511       4.82564892
Si       3.13537304       0.79400143       3.11740232
Si       1.54885236       5.43874467       8.47201200
12
Lattice="3.981513514080519 0.6792380826784459 -6.211154673262551e-14 0.6971764879364434 5.564827988787322 -2.5533965272660717e-13 8.482981890985126e-14 4.804357175625894e-13 10.702670185486909" Properties=species:S:1:pos:R:3 unique_starting_index=57 config_type=initial n_minim_iter=14 stress="-0.0008800493770503537 -0.0008150301706680126 -2.4638154231753917e-16 -0.0008150301706680126 0.0006949596918682927 -1.3180216487083891e-16 -2.4638154231753917e-16 -1.3180216487083891e-16 0.00033996231444058286" pbc="T T T"
Si       2.01818637       2.73661677       0.24898877
Si       2.66050364       3.50744930       5.60032386
Si       3.60931073       5.88236796       7.37309465
Si       1.06937927       0.36169811       2.02175955
Si       2.95085560       3.62527860       7.98119565
Si       1.72783441       2.61878747       2.62986056
Si       2.86370325       5.82538975       5.16148174
Si       1.81498676       0.41867632      10.51281683
Si       3.83152378       4.05937329      10.17758682
Si       0.84716623       2.18469278       4.82625173
Si       3.12252855       0.78391106       3.12413065
Si       1.55616146       5.46015502       8.47546575
12
Lattice="3.9907669452265817 0.6812125845481848 -6.227354785873653e-14 0.7008158383143486 5.567000072203724 -2.554661712314354e-13 8.46564969553022e-14 4.794558067570855e-13 10.680848476504638" Properties=species:S:1:pos:R:3 unique_starting_index=57 config_type=initial n_minim_iter=15 stress="0.0013468510093594527 0.0009513220312492178 -1.83130122338578e-16 0.0009513220312492178 -0.0012089917654786169 1.3710851848717294e-16 -1.83130122338578e-16 1.3710851848717294e-16 0.0003877113037177013" pbc="T T T"
Si       2.02190562       2.72973774       0.24448484
Si       2.66967717       3.51847491       5.58490908
Si       3.61961582       5.89514707       7.35902888
Si       1.07196697       0.35306559       2.01860464
Si       2.95929379       3.63556683       7.95934878
Si       1.73228900       2.61264583       2.61892454
Si       2.85252642       5.82742539       5.15462504
Si       1.83905637       0.42078727      10.49504928
Si       3.84003178       4.06173588      10.15794411
Si       0.85155101       2.18647678       4.81751987
Si       3.12585212       0.78855802       3.12158838
Si       1.56573067       5.45965464       8.46201262
12
Lattice="3.979350078781661 0.6856845888020594 -6.238382467293328e-14 0.702505503210777 5.588861757422854 -2.5646112137624083e-13 8.445129819471094e-14 4.78295628086555e-13 10.655012491065616" Properties=species:S:1:pos:R:3 unique_starting_index=57 config_type=initial n_minim_iter=16 stress="-0.0012992984018016236 0.0004494943822887831 -1.983777770184758e-16 0.0004494943822887831 0.00049707049172794 8.182933650701762e-17 -1.983777770184758e-16 8.182933650701762e-17 -0.0011935287055065578" pbc="T T T"
Si       2.02480958       2.71963085       0.23189723
Si       2.65704601       3.55491549       5.55940348
Si       3.62039827       5.95511336       7.35207156
Si       1.06145732       0.31943299       2.02456531
Si       2.96254266       3.68771018       7.92817196
Si       1.71931293       2.58683617       2.60066571
Si       2.84146209       5.86505172       5.15828236
Si       1.84039349       0.40949463      10.48578860
Si       3.83399109       4.05733904      10.12489492
Si       0.84786450       2.21720730       4.79738867
Si       3.11400938       0.78381106       3.11946636
Si       1.56784621       5.49073528       8.44697260
12
Lattice="3.9876002788702243 0.6733685284826002 -6.189638257801217e-14 0.6883058151452737 5.576249998361751 -2.5578263834784226e-13 8.461386294614007e-14 4.792141664958978e-13 10.675483132233095" Properties=species:S:1:pos:R:3 unique_starting_index=57 config_type=initial n_minim_iter=17 stress="0.002601537883239099 -0.0004116651886531678 -1.4377501754072532e-16 -0.0004116651886531678 -0.0005854344248553701 4.178909251526314e-16 -1.4377501754072532e-16 4.178909251526314e-16 0.0021753655175669575" pbc="T T T"
Si       2.02359897       2.70920763       0.23790791
Si       2.65230713       3.54041090       5.57564948
Si       3.61407057       5.94136349       7.36658304
Si       1.06183553       0.30825504       2.02884148
Si       2.96117605       3.68386065       7.94015083
Si       1.71473005       2.56575788       2.60240927
Si       2.82355334       5.85012322       5.16850950
Si       1.85235276       0.39949530      10.50625106
Si       3.83948920       4.02991630      10.13348824
Si       0.83641690       2.21970222       4.79574667
Si       3.11805754       0.78350461       3.13330268
Si       1.55784855       5.46611391       8.47104424
12
Lattice="3.967858286126505 0.663905261896553 -6.13151221794479e-14 0.6711803978199616 5.587046603756295 -2.5613173035930195e-13 8.44787010117754e-14 4.784498249534825e-13 10.65846416188676" Properties=species:S:1:pos:R:3 unique_starting_index=57 config_type=initial n_minim_iter=18 stress="-0.0017825118110266218 -0.002171046803592039 -4.243643473462561e-17 -0.002171046803592039 0.0005227068649519331 2.402034070607516e-16 -4.243643473462561e-17 2.402034070607516e-16 -0.0008474028528449941" pbc="T T T"
Si       2.00669553       2.69662796       0.24371004
Si       2.63234316       3.55432391       5.57294212
Si       3.58171918       5.96680877       7.35699738
Si       1.05731951       0.28414310       2.02776530
Si       2.94743491       3.70203627       7.90712164
Si       1.69160378       2.54891559       2.57788956
Si       2.77476366       5.86719807       5.16513081
Si       1.86427503       0.38375379      10.49436289
Si       3.82401796       4.01592305      10.10780072
Si       0.81502073       2.23502882       4.77856863
Si       3.09936240       0.78031497       3.14501043
Si       1.53967629       5.47063689       8.47424251
12
Lattice="3.9723482196588265 0.6762845218395069 -6.190641241809893e-14 0.6887366118285952 5.587944734349479 -2.5631131813426077e-13 8.448046545919777e-14 4.784594938387848e-13 10.658684737943686" Properties=species:S:1:pos:R:3 unique_starting_index=57 config_type=initial n_minim_iter=19 stress="-0.00029569591206742246 -3.812920444095345e-05 -2.3540156301385754e-16 -3.812920444095345e-05 0.0004184639386631023 2.9947943820940875e-16 -2.3540156301385754e-16 2.9947943820940875e-16 -0.000725127780954179" pbc="T T T"
Si       2.01971258       2.69928180       0.24387490
Si       2.64137226       3.56494745       5.57321727
Si       3.60166225       5.98113526       7.35950620
Si       1.05942259       0.28309400       2.03016383
Si       2.96395855       3.71405665       7.90433733
Si       1.69712628       2.55017261       2.57499496
Si       2.80048888       5.87987889       5.16739642
Si       1.86059596       0.38435037      10.49673879
Si       3.83885703       4.02378747      10.10601190
Si       0.82222780       2.24044179       4.77666953
Si       3.10454023       0.78539995       3.14534635
Si       1.55654461       5.47882930       8.47468872
12
Lattice="3.9721839721950003 0.6837232791558616 -6.223904333077729e-14 0.6994006045427945 5.584912271086083 -2.5625991557785905e-13 8.460115267344612e-14 4.791411648179983e-13 10.673878728429317" Properties=species:S:1:pos:R:3 unique_starting_index=57 config_type=initial n_minim_iter=20 stress="0.000587988798210799 0.0006724951764303439 6.98416802075984e-17 0.0006724951764303439 -0.0005172561048675476 4.01469864143592e-16 6.98416802075984e-17 4.01469864143592e-16 0.0005920164964335046" pbc="T T T"
Si       2.03202644       2.69415346       0.24805036
Si       2.63955814       3.57448209       5.58498973
Si       3.60808027       5.99393508       7.37373618
Si       1.06350431       0.27470047       2.03679681
Si       2.97780611       3.72463452       7.90613969
Si       1.69377848       2.54400103       2.56920033
Si       2.81137436       5.89078924       5.17937761
Si       1.86021022       0.37784631      10.51631698
Si       3.84683069       4.02070578      10.11327978
Si       0.82475389       2.24792977       4.77634041
Si       3.10612168       0.78961094       3.15425178
Si       1.56546290       5.47902461       8.49119115
12
Lattice="3.9676499197571475 0.6833062392312308 -6.218439589066001e-14 0.6978339026074831 5.587819680173446 -2.5637820502217386e-13 8.456515104671424e-14 4.789371491531282e-13 10.669342660295241" Properties=species:S:1:pos:R:3 unique_starting_index=57 config_type=initial n_minim_iter=21 stress="4.2098556775114006e-05 -0.0003279090456383336 5.92987693757031e-17 -0.0003279090456383336 0.0006519682853291033 5.401944011025247e-16 5.92987693757031e-17 5.401944011025247e-16 2.9752723184183384e-05" pbc="T T T"
Si       2.03637365       2.69247360       0.24696520
Si       2.62911018       3.57865232       5.58163653
Si       3.59746918       6.00491852       7.37000850
Si       1.06801465       0.26620740       2.03533717
Si       2.97818689       3.72467414       7.89642858
Si       1.68729693       2.54645178       2.56175725
Si       2.79781690       5.89743635       5.18277677
Si       1.86766692       0.37368957      10.51744810
Si       3.84369601       4.01454252      10.10841367
Si       0.82178782       2.25658340       4.77374234
Si       3.10734262       0.79696801       3.15580442
Si       1.55814121       5.47415791       8.49047575
