14
Lattice="10.143563672527481 0.23744714004980494 3.0934345021947993 -0.2353141670587787 7.763861527895329 0.5023384135195075 -1.5611503326453429 0.4229981224293707 5.11101734344419" Properties=species:S:1:pos:R:3 unique_starting_index=20 config_type=initial n_minim_iter=1 energy=-2287.1071623670664 free_energy=-2287.1071623670664 pbc="T T T"
Si       6.09123884       5.48892097       7.41626756
Si       7.51743578       3.05555691       2.88207530
Si       2.25586033       2.93538582       1.29052270
Si       0.82966339       5.36874989       5.82471496
Si       7.26068825       5.46571258       5.63263191
Si       7.49628427       3.10184383       5.01470695
Si       1.08641093       2.95859421       3.07415835
Si       0.85081491       5.32246296       3.69208331
Si       2.53978310       4.43211634       2.77006251
Si       1.94276725       3.90018532       4.76964140
Si       5.80731608       3.99219045       5.93672775
Si       6.40433193       4.52412147       3.93714886
Si       4.64559705       4.16034933       2.80389704
Si       3.70150212       4.26395746       5.90289322
14
Lattice="10.143238642864238 0.2373818312581206 3.0933040854106633 -0.23537929739506416 7.763893529810065 0.5023891588185375 -1.5611123411493812 0.4230597929615679 5.110827657700288" Properties=species:S:1:pos:R:3 unique_starting_index=20 config_type=initial n_minim_iter=2 stress="-0.00011175179703512697 0.0001439742178489686 -1.8956759380558136e-05 0.0001439742178489686 -0.00018698155511670387 -0.0002313244068243652 -1.8956759380558136e-05 -0.0002313244068243652 -4.685694757523162e-05" pbc="T T T"
Si       6.09098708       5.48894722       7.41602460
Si       7.51717183       3.05552184       2.88198122
Si       2.25575992       2.93538793       1.29049630
Si       0.82957517       5.36881331       5.82453968
Si       7.26039968       5.46571207       5.63245859
Si       7.49601043       3.10183427       5.01452907
Si       1.08634732       2.95862308       3.07406231
Si       0.85073658       5.32250088       3.69199183
Si       2.53965678       4.43213334       2.76999611
Si       1.94267032       3.90022222       4.76948833
Si       5.80709023       3.99220182       5.93652479
Si       6.40407669       4.52411293       3.93703257
Si       4.64541293       4.16034664       2.80381629
Si       3.70133407       4.26398851       5.90270461
14
Lattice="10.143262086525064 0.23719586017293795 3.093298671516859 -0.23565386726089207 7.7642418673786855 0.5027933423143832 -1.5611157269102984 0.42340393702483653 5.110766137940979" Properties=species:S:1:pos:R:3 unique_starting_index=20 config_type=initial n_minim_iter=3 stress="0.0002744080382312303 -5.526923241841434e-05 -3.709975747383762e-05 -5.526923241841434e-05 0.0001445482716901751 0.0001454135012839106 -3.709975747383762e-05 0.0001454135012839106 -1.6171359577983818e-05" pbc="T T T"
Si       6.09083433       5.48934190       7.41621808
Si       7.51711005       3.05552305       2.88212319
Si       2.25565816       2.93549977       1.29064007
Si       0.82938244       5.36931862       5.82473496
Si       7.26023350       5.46597022       5.63270161
Si       7.49592333       3.10197910       5.01462437
Si       1.08625899       2.95887144       3.07415654
Si       0.85056916       5.32286257       3.69223379
Si       2.53950016       4.43237376       2.77021851
Si       1.94257584       3.90056333       4.76960642
Si       5.80699233       3.99246791       5.93663964
Si       6.40391665       4.52427834       3.93725173
Si       4.64529883       4.16050288       2.80398635
Si       3.70119366       4.26433879       5.90287180
14
Lattice="10.14280311164237 0.23705548147599068 3.093597883690006 -0.23576423064016191 7.764255426578495 0.5028853716323943 -1.5609485978465105 0.4234826348564008 5.110918866759552" Properties=species:S:1:pos:R:3 unique_starting_index=20 config_type=initial n_minim_iter=4 stress="-0.00025736051047321225 8.13826343642761e-05 0.00011155034530440443 8.13826343642761e-05 0.00020785570193670934 0.00013380287608710987 0.00011155034530440443 0.00013380287608710987 0.0003903401886550196" pbc="T T T"
Si       6.09059116       5.48929568       7.41662405
Si       7.51677221       3.05542140       2.88242280
Si       2.25549913       2.93549786       1.29077807
Si       0.82931807       5.36937214       5.82497932
Si       7.25986624       5.46589340       5.63312405
Si       7.49555423       3.10195879       5.01494477
Si       1.08622404       2.95890014       3.07427807
Si       0.85053605       5.32283476       3.69245735
Si       2.53932034       4.43236266       2.77046382
Si       1.94254328       3.90059405       4.76979184
Si       5.80676994       3.99243088       5.93693831
Si       6.40354700       4.52419950       3.93761028
Si       4.64505836       4.16046668       2.80416143
Si       3.70103192       4.26432687       5.90324069
14
Lattice="10.142991108295732 0.23676564989024934 3.0935193180530782 -0.23595881988345718 7.764031781393617 0.5027861340948672 -1.5610026099091525 0.4234480826456953 5.110834313339361" Properties=species:S:1:pos:R:3 unique_starting_index=20 config_type=initial n_minim_iter=5 stress="0.00013823519320539654 -7.601305887184332e-06 4.8235348173305116e-05 -7.601305887184332e-06 8.343181309848596e-05 -6.74947209175407e-05 4.8235348173305116e-05 -6.74947209175407e-05 5.7505247131625594e-05" pbc="T T T"
Si       6.09057598       5.48887521       7.41640068
Si       7.51687454       3.05512037       2.88234318
Si       2.25545370       2.93537030       1.29073909
Si       0.82915514       5.36912514       5.82479659
Si       7.25985093       5.46547691       5.63297624
Si       7.49559285       3.10167702       5.01477808
Si       1.08617875       2.95876860       3.07416353
Si       0.85043683       5.32256849       3.69236168
Si       2.53923053       4.43213737       2.77039245
Si       1.94250501       3.90039209       4.76960885
Si       5.80679915       3.99210814       5.93674732
Si       6.40352467       4.52385342       3.93753091
Si       4.64505581       4.16021173       2.80400672
Si       3.70097387       4.26403379       5.90313305
14
Lattice="10.142811955375164 0.23666994324819884 3.093228151011341 -0.23614036117593323 7.763379025802399 0.5031576662288687 -1.5611852875654098 0.42367656943380744 5.111012041367734" Properties=species:S:1:pos:R:3 unique_starting_index=20 config_type=initial n_minim_iter=6 stress="-8.646221159475292e-06 -6.109181990266153e-05 -0.0002516210305236756 -6.109181990266153e-05 7.090246512150982e-06 -2.429560862545972e-06 -0.0002516210305236756 -2.429560862545972e-06 0.0001826761041783081" pbc="T T T"
Si       6.09016108       5.48852617       7.41657239
Si       7.51671986       3.05487510       2.88228549
Si       2.25532523       2.93519937       1.29082547
Si       0.82876644       5.36885043       5.82511237
Si       7.25948024       5.46507168       5.63313907
Si       7.49528390       3.10157535       5.01466715
Si       1.08600607       2.95865385       3.07425879
Si       0.85020240       5.32215019       3.69273071
Si       2.53905357       4.43181105       2.77054654
Si       1.94226400       3.90027994       4.76975702
Si       5.80643274       3.99191449       5.93685132
Si       6.40322231       4.52344559       3.93764084
Si       4.64479934       4.15991697       2.80401326
Si       3.70068697       4.26380857       5.90338460
14
Lattice="10.142945428741157 0.23671870564295236 3.093400924891917 -0.23613018544489253 7.76315829663712 0.5032815287502098 -1.5611038406221942 0.42374960540770806 5.110964133540496" Properties=species:S:1:pos:R:3 unique_starting_index=20 config_type=initial n_minim_iter=7 stress="8.166690114389034e-05 4.0501479250949795e-05 6.499774210000017e-05 4.0501479250949795e-05 -6.798154400305994e-05 7.220536046029405e-05 6.499774210000017e-05 7.220536046029405e-05 2.4585940707548475e-05" pbc="T T T"
Si       6.09034204       5.48846141       7.41674327
Si       7.51685281       3.05486046       2.88246456
Si       2.25536937       2.93516519       1.29090332
Si       0.82885859       5.36876615       5.82518202
Si       7.25963826       5.46499746       5.63335949
Si       7.49542423       3.10161378       5.01479939
Si       1.08607314       2.95862915       3.07428710
Si       0.85028717       5.32201283       3.69284720
Si       2.53913157       4.43173073       2.77064688
Si       1.94236931       3.90026817       4.76982280
Si       5.80657983       3.99189588       5.93699971
Si       6.40334209       4.52335844       3.93782379
Si       4.64487600       4.15986004       2.80412673
Si       3.70083540       4.26376657       5.90351985
14
Lattice="10.142964143655165 0.23617634120025416 3.093445114902594 -0.23650238873278298 7.763057344019071 0.5031542885210398 -1.561165358354321 0.42372081050696503 5.1111574676082485" Properties=species:S:1:pos:R:3 unique_starting_index=20 config_type=initial n_minim_iter=8 stress="7.497582956627201e-06 -6.498603039737488e-07 -1.2109363862718971e-05 -6.498603039737488e-07 -0.00022166853493445156 7.72298977496964e-05 -1.2109363862718971e-05 7.72298977496964e-05 4.228520837864541e-05" pbc="T T T"
Si       6.09002015       5.48782113       7.41698003
Si       7.51684073       3.05454906       2.88248785
Si       2.25527624       2.93513337       1.29077684
Si       0.82845566       5.36840544       5.82526902
Si       7.25937249       5.46440869       5.63351681
Si       7.49522668       3.10136261       5.01474521
Si       1.08592391       2.95854581       3.07424006
Si       0.85006972       5.32159189       3.69301166
Si       2.53890792       4.43157443       2.77061162
Si       1.94219681       3.90014702       4.76995203
Si       5.80638848       3.99138006       5.93714525
Si       6.40309958       4.52280748       3.93780485
Si       4.64473202       4.15964742       2.80407599
Si       3.70056438       4.26330708       5.90368089
14
Lattice="10.14324833619754 0.2329174938829351 3.093694556092864 -0.23832930264705943 7.767795701900252 0.5006210194765965 -1.561282763775653 0.4226563438219741 5.111447245396686" Properties=species:S:1:pos:R:3 unique_starting_index=20 config_type=initial n_minim_iter=9 stress="-0.00025942793914536196 -7.13082155719899e-05 -3.2478265917833377e-05 -7.13082155719899e-05 -0.00011818832806713257 -2.195133161517241e-05 -3.2478265917833377e-05 -2.195133161517241e-05 -0.0002929478969594101" pbc="T T T"
Si       6.08879152       5.48672686       7.41642403
Si       7.51704501       3.05445761       2.88175104
Si       2.25484475       2.93664268       1.28933879
Si       0.82659126       5.36891193       5.82401178
Si       7.25820735       5.46377853       5.63259357
Si       7.49449842       3.10120529       5.01352943
Si       1.08542892       2.95959101       3.07316925
Si       0.84913785       5.32216425       3.69223339
Si       2.53815977       4.43335172       2.76916267
Si       1.94133954       3.90096848       4.76891662
Si       5.80547650       3.99001782       5.93660015
Si       6.40229673       4.52240106       3.93684620
Si       4.64380819       4.16088903       2.80266753
Si       3.69982808       4.26248051       5.90309530
14
Lattice="10.143646494703733 0.2311516400346707 3.0942142805581696 -0.2391170710600467 7.772500512366915 0.49846522007018407 -1.5611727950868433 0.42164661240924595 5.111580452047408" Properties=species:S:1:pos:R:3 unique_starting_index=20 config_type=initial n_minim_iter=10 stress="-0.0003533191877892151 0.0002704071938018519 -0.00013973474352345854 0.0002704071938018519 -2.2811527241581742e-05 9.209790394994537e-06 -0.00013973474352345854 9.209790394994537e-06 -0.0005618679935177852" pbc="T T T"
Si       6.08868978       5.48690383       7.41585349
Si       7.51757402       3.05548420       2.88107752
Si       2.25466685       2.93839493       1.28840647
Si       0.82578260       5.36981456       5.82318243
Si       7.25789694       5.46444215       5.63217641
Si       7.49441827       3.10208986       5.01283789
Si       1.08545969       2.96085662       3.07208354
Si       0.84893836       5.32320891       3.69142206
Si       2.53798110       4.43549414       2.76786814
Si       1.94127341       3.90235050       4.76796513
Si       5.80537552       3.98980463       5.93639181
Si       6.40208322       4.52294826       3.93629483
Si       4.64359135       4.16281999       2.80177284
Si       3.69976528       4.26247877       5.90248711
14
Lattice="10.14366718416802 0.2253834180374483 3.0966867193750174 -0.2426384581541479 7.777221170913775 0.4955726302837089 -1.5602753751853766 0.42070800647368534 5.1119956102213715" Properties=species:S:1:pos:R:3 unique_starting_index=20 config_type=initial n_minim_iter=11 stress="-0.0005374884657864707 -0.00015444424135659343 6.961027516729493e-05 -0.00015444424135659343 -0.00015581188139198376 -0.00011740266587220091 6.961027516729493e-05 -0.00011740266587220091 -0.0005167905190529829" pbc="T T T"
Si       6.08726147       5.48400229       7.41661900
Si       7.51685704       3.05365373       2.88160297
Si       2.25349188       2.93931030       1.28763596
Si       0.82389632       5.36965886       5.82265199
Si       7.25583401       5.46176486       5.63311225
Si       7.49358401       3.09982614       5.01360218
Si       1.08491934       2.96154773       3.07114271
Si       0.84716934       5.32348646       3.69065278
Si       2.53649433       4.43630848       2.76690558
Si       1.94029630       3.90266633       4.76740292
Si       5.80425902       3.98700411       5.93734938
Si       6.40045705       4.52064627       3.93685204
Si       4.64195269       4.16287984       2.80161696
Si       3.69880066       4.26043276       5.90263800
14
Lattice="10.143451397312036 0.21653257372887424 3.099383206682863 -0.24784981416816976 7.791517270238111 0.4898042039300543 -1.5593851832135277 0.41872639595678085 5.112582526607658" Properties=species:S:1:pos:R:3 unique_starting_index=20 config_type=initial n_minim_iter=12 stress="-0.00041209176989713764 -3.197418105215438e-05 1.866908449277351e-05 -3.197418105215438e-05 -0.00034311819601834316 3.907608335963372e-05 1.866908449277351e-05 3.907608335963372e-05 -0.00045251975322468816" pbc="T T T"
Si       6.08441784       5.48299518       7.41689778
Si       7.51574559       3.05494800       2.88085501
Si       2.25179856       2.94378106       1.28487216
Si       0.82047081       5.37182824       5.82091493
Si       7.25211191       5.46114085       5.63324218
Si       7.49223708       3.09999565       5.01285509
Si       1.08410449       2.96563539       3.06852775
Si       0.84397932       5.32678059       3.68891485
Si       2.53415369       4.44152818       2.76463466
Si       1.93816813       3.90730389       4.76474028
Si       5.80206271       3.98524806       5.93713528
Si       6.39804827       4.51947235       3.93702966
Si       4.63957333       4.16731633       2.80006563
Si       3.69664307       4.25945991       5.90170431
14
Lattice="10.142306338500696 0.2000008254251757 3.103843281802133 -0.2564405576303724 7.830483158818879 0.4743030273287964 -1.5577067101815474 0.41237977768542367 5.113252177129377" Properties=species:S:1:pos:R:3 unique_starting_index=20 config_type=initial n_minim_iter=13 stress="0.0003724818228602349 0.00011337260718551942 0.00027088823743706426 0.00011337260718551942 8.837028071529459e-05 -0.0001999377490430064 0.00027088823743706426 -0.0001999377490430064 0.00021275097436944073" pbc="T T T"
Si       6.07845313       5.48533312       7.41376262
Si       7.51350290       3.06168361       2.87689272
Si       2.24970594       2.95753064       1.27763586
Si       0.81465617       5.38118015       5.81450577
Si       7.24631473       5.46661528       5.63021117
Si       7.48978744       3.10376541       5.00922745
Si       1.08184434       2.97624848       3.06118732
Si       0.83837163       5.33909835       3.68217103
Si       2.53002221       4.45599648       2.75718195
Si       1.93483193       3.92007002       4.75728063
Si       5.79813686       3.98686728       5.93421654
Si       6.39332715       4.52279374       3.93411786
Si       4.63529792       4.18132909       2.79331272
Si       3.69286115       4.26153467       5.89808577
14
Lattice="10.139639933504206 0.17456065548889038 3.110038409273935 -0.2700512882656226 7.889809704491582 0.4517390878062753 -1.5555609454866952 0.4034465228746061 5.11500440232889" Properties=species:S:1:pos:R:3 unique_starting_index=20 config_type=initial n_minim_iter=14 stress="0.0016720229798882187 0.0004146532264060685 0.0008081272376771071 0.0004146532264060685 2.39157969189662e-05 -0.00020156292765792023 0.0008081272376771071 -0.00020156292765792023 0.0014223957346064199" pbc="T T T"
Si       6.06761925       5.48863610       7.41028301
Si       7.50935051       3.07213613       2.87043495
Si       2.24640845       2.97918078       1.26649889
Si       0.80467719       5.39568076       5.80634695
Si       7.23622806       5.47461797       5.62621136
Si       7.48449979       3.11053662       5.00385611
Si       1.07779964       2.99319892       3.05057054
Si       0.82952791       5.35728026       3.67292579
Si       2.52237208       4.47814459       2.74639936
Si       1.92866320       3.93993041       4.74623849
Si       5.79165562       3.98967229       5.93038254
Si       6.38536450       4.52788647       3.93054341
Si       4.62761245       4.20301082       2.78393180
Si       3.68641525       4.26480606       5.89285010
14
Lattice="10.13911367289478 0.16345856414052948 3.1122259210996868 -0.2757047762685889 7.922459444868135 0.44030245838297094 -1.5547311244671131 0.3988589589628528 5.114997219566724" Properties=species:S:1:pos:R:3 unique_starting_index=20 config_type=initial n_minim_iter=15 stress="0.002192835659914961 0.0005920438071725495 0.00106763425103327 0.0005920438071725495 0.0005095794335677897 -0.0002856588556112211 0.00106763425103327 -0.0002856588556112211 0.0017504221018939347" pbc="T T T"
Si       6.06334818       5.49303908       7.40685305
Si       7.50819188       3.07969959       2.86675391
Si       2.24532959       2.99173789       1.26067255
Si       0.80048589       5.40507737       5.80077169
Si       7.23248435       5.48161185       5.62311923
Si       7.48281662       3.11636766       4.99971734
Si       1.07619342       3.00316512       3.04440637
Si       0.82586115       5.36840930       3.66780826
Si       2.51928969       4.49101950       2.74050023
Si       1.92623187       3.95155109       4.73981627
Si       5.78938808       3.99375747       5.92702537
Si       6.38244590       4.53322588       3.92770933
Si       4.62452733       4.21618987       2.77900394
Si       3.68415044       4.26858710       5.88852166
14
Lattice="10.137351753131282 0.172003571919442 3.1071146944908126 -0.270099880484426 7.930540423802859 0.44205354564882265 -1.5565016168598529 0.39931118184602565 5.114380849417593" Properties=species:S:1:pos:R:3 unique_starting_index=20 config_type=initial n_minim_iter=16 stress="0.001086917610402383 -2.7088118603879832e-05 5.6652422766348775e-06 -2.7088118603879832e-05 8.461937046596502e-05 5.0436038927011e-05 5.6652422766348775e-06 5.0436038927011e-05 0.0012957421624205405" pbc="T T T"
Si       6.06303492       5.50334599       7.40405435
Si       7.50799986       3.08933582       2.86322199
Si       2.24771534       2.99850919       1.25949474
Si       0.80275040       5.41251936       5.80032710
Si       7.23440934       5.49279931       5.62031384
Si       7.48277532       3.12688284       4.99628824
Si       1.07634092       3.00905587       3.04323525
Si       0.82797493       5.37497234       3.66726085
Si       2.51994737       4.49612647       2.74025429
Si       1.92692754       3.95721526       4.73830392
Si       5.79080288       4.00572871       5.92329480
Si       6.38382271       4.54463992       3.92524517
Si       4.62574643       4.22426386       2.77813339
Si       3.68500383       4.27759132       5.88541570
14
Lattice="10.133660018634258 0.1983488078759477 3.09321421354611 -0.2505812970430547 7.989997090129966 0.43763157597991786 -1.5617998161097568 0.39554373827927297 5.114542135792729" Properties=species:S:1:pos:R:3 unique_starting_index=20 config_type=initial n_minim_iter=17 stress="-0.004275186290638244 -0.001101384847983893 -0.001569356132117598 -0.001101384847983893 -0.0008263047892892809 -4.0864707845518176e-05 -0.001569356132117598 -4.0864707845518176e-05 -0.0035339740165842883" pbc="T T T"
Si       6.06742991       5.54863256       7.39460132
Si       7.50947196       3.13809003       2.85021049
Si       2.25384899       3.03525708       1.25078660
Si       0.81180695       5.44579960       5.79517743
Si       7.23891737       5.53826996       5.61262609
Si       7.48574314       3.17581094       4.98155305
Si       1.08236154       3.04561968       3.03276184
Si       0.83553576       5.40807869       3.66383487
Si       2.52547763       4.52985513       2.73441410
Si       1.93089795       3.98598475       4.73208027
Si       5.79580127       4.05403451       5.91097382
Si       6.39038095       4.59790489       3.91330766
Si       4.63256391       4.26690049       2.77002990
Si       3.68871499       4.31698915       5.87535803
14
Lattice="10.150976736405399 0.21968133330742703 3.087626559120969 -0.22722055869288538 8.140251471152407 0.400812435684458 -1.565920476197979 0.37466552837747213 5.114602479414691" Properties=species:S:1:pos:R:3 unique_starting_index=20 config_type=initial n_minim_iter=18 stress="-0.0020332637832099053 -0.0008703865124948089 -0.0006323925717394645 -0.0008703865124948089 -0.0017829040535869058 -0.00023812262147637121 -0.0006323925717394645 -0.00023812262147637121 -0.0025337317266439867" pbc="T T T"
Si       6.09011481       5.61784532       7.38046070
Si       7.53022730       3.23173658       2.82549673
Si       2.26772090       3.11675301       1.22258077
Si       0.82760840       5.50286176       5.77754474
Si       7.26119596       5.61240090       5.59805750
Si       7.50941242       3.26294691       4.95939626
Si       1.09663974       3.12219743       3.00498397
Si       0.84842328       5.47165143       3.64364521
Si       2.54380550       4.60219193       2.71534967
Si       1.94865807       4.04787006       4.71021612
Si       5.81403020       4.13240640       5.88769180
Si       6.40917763       4.68672827       3.89282535
Si       4.65278046       4.35561527       2.74712507
Si       3.70505524       4.37898307       5.85591640
14
Lattice="10.15585517948587 0.2392797897425206 3.0808704131933076 -0.21111885205122308 8.199947396077697 0.39115150714213426 -1.5685589706936895 0.3683574053473684 5.11279378778806" Properties=species:S:1:pos:R:3 unique_starting_index=20 config_type=initial n_minim_iter=19 stress="0.001160635365446627 -6.36868119442767e-05 3.4297239295881735e-05 -6.36868119442767e-05 -0.0002599893788020991 -0.0003647420168297705 3.4297239295881735e-05 -0.0003647420168297705 0.00020098763325788595" pbc="T T T"
Si       6.10071589       5.65770396       7.37068710
Si       7.53795468       3.27439464       2.81599784
Si       2.27546146       3.14988063       1.21412861
Si       0.83822268       5.53318995       5.76881787
Si       7.27300026       5.65416240       5.58986366
Si       7.51926297       3.30403735       4.94767768
Si       1.10317710       3.15342219       2.99495205
Si       0.85691439       5.50354724       3.63713802
Si       2.55276468       4.63329140       2.70842493
Si       1.95673246       4.07674530       4.70192771
Si       5.82341268       4.17429319       5.87639078
Si       6.41944489       4.73083929       3.88288800
Si       4.66248770       4.39387590       2.73905115
Si       3.71368966       4.41370869       5.84576456
14
Lattice="10.149562291165187 0.23827015033768154 3.0779462072315535 -0.20811451320862617 8.284115630129051 0.3723093288117967 -1.569698645529687 0.35973193847731905 5.115399260262743" Properties=species:S:1:pos:R:3 unique_starting_index=20 config_type=initial n_minim_iter=20 stress="0.00034048995328075633 0.0003430977782621052 5.429848345262468e-05 0.0003430977782621052 -0.00038692139590916513 -0.00033257627841516306 5.429848345262468e-05 -0.00033257627841516306 0.0005867677559375608" pbc="T T T"
Si       6.09465513       5.69211749       7.36416495
Si       7.53412536       3.31480016       2.80392493
Si       2.27709400       3.19000022       1.20148985
Si       0.83762377       5.56731756       5.76172987
Si       7.26769551       5.69191056       5.58306267
Si       7.51594973       3.34147841       4.93637555
Si       1.10405362       3.19020716       2.98259213
Si       0.85579941       5.54063930       3.62927924
Si       2.55074054       4.67219605       2.69759365
Si       1.95481152       4.11262135       4.69153648
Si       5.82100859       4.20992166       5.86806114
Si       6.41693761       4.76949637       3.87411831
Si       4.66087569       4.43623246       2.72745016
Si       3.71087344       4.44588526       5.83820463
14
Lattice="10.148434437705498 0.2371433077416289 3.074747434731776 -0.20218966879203834 8.425660827165299 0.3387548265189494 -1.5711943050442525 0.34403765445790224 5.116638334553809" Properties=species:S:1:pos:R:3 unique_starting_index=20 config_type=initial n_minim_iter=21 stress="-0.0008535982609846046 0.000641849956275053 0.0002495272218343341 0.000641849956275053 -0.0010070140739586286 -0.0005620589810796028 0.0002495272218343341 -0.0005620589810796028 -0.0003610369642348942" pbc="T T T"
Si       6.09289072       5.74788831       7.35108285
Si       7.53577540       3.38429719       2.78392267
Si       2.28215975       3.25895348       1.17905774
Si       0.83927506       5.62254460       5.74621793
Si       7.26704194       5.75393652       5.57012012
Si       7.51830268       3.40549060       4.91668951
Si       1.10800852       3.25290527       2.96002048
Si       0.85674778       5.60135119       3.61345109
Si       2.55218036       4.73736601       2.67910003
Si       1.95700241       4.17191232       4.67161497
Si       5.82287011       4.26947577       5.85104057
Si       6.41804805       4.83492947       3.85852562
Si       4.66290252       4.50751259       2.70863051
Si       3.71214794       4.49932920       5.82151009
