6
Lattice="4.010601189619377 -8.379860207919117e-17 3.74897993071393e-17 9.329809972457811e-17 4.423940241135916 -0.09233076515540656 -8.837162611153151e-17 -1.0016471819411519 7.214941669126721" Properties=species:S:1:pos:R:3 unique_starting_index=75 config_type=initial n_minim_iter=1 energy=-977.0650262894653 free_energy=-977.0650262894653 pbc="T T T"
Si       1.03990686       2.07136522       3.79688579
Si       2.97069433       2.57218881       0.18941496
Si       3.00546997       0.84882420       5.21889887
Si       1.00513122       1.34964779       1.61142803
Si       3.03598136       0.51581761       0.69749244
Si       0.97461983       0.01499402       4.30496327
6
Lattice="4.0105707054915545 -8.38302579093111e-17 3.749365786605298e-17 9.327086155436128e-17 4.424337646503844 -0.09238318131963466 -8.835966151158944e-17 -1.0018225860700711 7.214944508374404" Properties=species:S:1:pos:R:3 unique_starting_index=75 config_type=initial n_minim_iter=2 stress="0.00033287602966204584 -2.5697765108311393e-17 -9.371326715331326e-17 -2.5697765108311393e-17 0.00017579853246225963 -0.0004838724555815912 -9.371326715331326e-17 -0.0004838724555815912 0.00028594205152846766" pbc="T T T"
Si       1.03989565       2.07152508       3.79685683
Si       2.97067505       2.57243637       0.18938457
Si       3.00544679       0.84884346       5.21888013
Si       1.00512392       1.34975475       1.61140788
Si       3.03595961       0.51583095       0.69748715
Si       0.97461110       0.01491966       4.30495940
6
Lattice="4.0090415277763 -8.384579098333034e-17 3.753625224707982e-17 9.321817577529778e-17 4.425287974331471 -0.09036374879931505 -8.815758834743991e-17 -0.9987993979834049 7.212304096862183" Properties=species:S:1:pos:R:3 unique_starting_index=75 config_type=initial n_minim_iter=3 stress="-0.0004590468944867608 -3.461484520680805e-16 -2.4336438696066934e-18 -3.461484520680805e-16 8.882398171193328e-05 0.00015889224066110492 -2.4336438696066934e-18 0.00015889224066110492 9.942362453795045e-06" pbc="T T T"
Si       1.03930537       2.07364424       3.79691199
Si       2.96973616       2.57304394       0.19075994
Si       3.00428325       0.85163934       5.21757228
Si       1.00475827       1.35103904       1.61142023
Si       3.03483404       0.51605868       0.69733883
Si       0.97420748       0.01665898       4.30349088
6
Lattice="4.015580085377744 -8.400785075000305e-17 3.773096795634762e-17 9.320619578933565e-17 4.426851239792226 -0.08892528302627291 -8.780664498277052e-17 -0.9969539097667913 7.205282855188357" Properties=species:S:1:pos:R:3 unique_starting_index=75 config_type=initial n_minim_iter=4 stress="0.0006049309339072031 -6.799938939915643e-16 5.700116587606047e-17 -6.799938939915643e-16 -0.00017561966526937102 0.00015259145056555092 5.700116587606047e-17 0.00015259145056555092 -0.0002281226103433304" pbc="T T T"
Si       1.03954276       2.07485963       3.79587675
Si       2.97603733       2.57333659       0.19323532
Si       3.00905302       0.85539145       5.21230669
Si       1.00652707       1.35386840       1.60966526
Si       3.04003102       0.51529691       0.69564993
Si       0.97554907       0.01681995       4.29829136
6
Lattice="4.008811839284228 -8.371821160105117e-17 3.7543158192475964e-17 9.346145771176444e-17 4.428945935572653 -0.09374018962210214 -8.829630289677474e-17 -1.005153270314345 7.211390627369352" Properties=species:S:1:pos:R:3 unique_starting_index=75 config_type=initial n_minim_iter=5 stress="-0.0007380362169180303 -3.0806289598389443e-16 1.6198254311612076e-16 -3.0806289598389443e-16 0.0005643450948414332 0.00027434105696560264 1.6198254311612076e-16 0.00027434105696560264 -0.00016254334896143483" pbc="T T T"
Si       1.03469032       2.06991222       3.79959567
Si       2.97412152       2.57248886       0.19390036
Si       3.00392907       0.85325140       5.21433418
Si       1.00488277       1.35582804       1.60863886
Si       3.03554611       0.51350398       0.69298857
Si       0.97326573       0.01092734       4.29868388
6
Lattice="4.010041559332975 -8.371532107809556e-17 3.751843608757525e-17 9.35063869276129e-17 4.429058847266087 -0.09483296681765728 -8.842255407127349e-17 -1.0069231548409063 7.213205385682079" Properties=species:S:1:pos:R:3 unique_starting_index=75 config_type=initial n_minim_iter=6 stress="-0.00020317996486895806 -3.354583501536262e-16 -2.2161302140209698e-17 -3.354583501536262e-16 -4.5813199849388344e-05 0.00023325320558480262 -2.2161302140209698e-17 0.00023325320558480262 1.2996023139737822e-05" pbc="T T T"
Si       1.03490618       2.06886984       3.79968636
Si       2.97513538       2.57233141       0.19308367
Si       3.00484335       0.85191563       5.21547562
Si       1.00519821       1.35537720       1.60887293
Si       3.03643696       0.51359730       0.69303951
Si       0.97360460       0.01013572       4.29964220
6
Lattice="4.009931813531097 -8.361702662197901e-17 3.747511320970407e-17 9.36621943753016e-17 4.429880508717198 -0.09822887632142095 -8.865610352785399e-17 -1.0126152116001135 7.21475400177084" Properties=species:S:1:pos:R:3 unique_starting_index=75 config_type=initial n_minim_iter=7 stress="0.0001152293287311063 -7.536224471683358e-16 3.7382492836000933e-16 -7.536224471683358e-16 -0.00046863394297819904 7.979785338676864e-05 3.7382492836000933e-16 7.979785338676864e-05 -0.0002114125005730896" pbc="T T T"
Si       1.03387095       2.06558541       3.79885967
Si       2.97606086       2.57189302       0.19148267
Si       3.00470692       0.84861274       5.21561855
Si       1.00522489       1.35492034       1.60824155
Si       3.03637479       0.51333376       0.69214627
Si       0.97355702       0.00702615       4.29952327
6
Lattice="4.008849524350799 -8.351302075672408e-17 3.7358335969394376e-17 9.380842405677895e-17 4.431065404968668 -0.10135126358746456 -8.903199215693879e-17 -1.0178549898153253 7.22053998526528" Properties=species:S:1:pos:R:3 unique_starting_index=75 config_type=initial n_minim_iter=8 stress="0.00030458838489256845 -9.087539845409793e-16 2.0475789459221096e-16 -9.087539845409793e-16 -0.00037241321964126144 3.5886584542489535e-05 2.0475789459221096e-16 3.5886584542489535e-05 0.0001575551184278464" pbc="T T T"
Si       1.03219588       2.06266039       3.80095116
Si       2.97665364       2.57158788       0.19068117
Si       3.00379155       0.84603325       5.21874269
Si       1.00505797       1.35496075       1.60847270
Si       3.03556593       0.51299655       0.69141378
Si       0.97328360       0.00406906       4.30168378
6
Lattice="4.007810426766617 -8.348438593471923e-17 3.7347770688249265e-17 9.384326357825238e-17 4.431665689097821 -0.10291351458716483 -8.910199928410433e-17 -1.0205139182139022 7.221730080471323" Properties=species:S:1:pos:R:3 unique_starting_index=75 config_type=initial n_minim_iter=9 stress="0.000214199282344175 -1.2262353969303563e-15 2.3988332142690744e-16 -1.2262353969303563e-15 -1.250409077936759e-05 -0.00015044737139103233 2.3988332142690744e-16 -0.00015044737139103233 0.00019462582106084304" pbc="T T T"
Si       1.03121707       2.06122277       3.80113085
Si       2.97659335       2.57147973       0.19026581
Si       3.00292844       0.84467232       5.21900607
Si       1.00488198       1.35492928       1.60814103
Si       3.03471903       0.51282965       0.69089494
Si       0.97309140       0.00257269       4.30175998
6
Lattice="4.007201528071863 -8.351298530647174e-17 3.739553100213378e-17 9.378955413707828e-17 4.4316425906268435 -0.1022262891766525 -8.895343451309429e-17 -1.0194312682816329 7.219652233873116" Properties=species:S:1:pos:R:3 unique_starting_index=75 config_type=initial n_minim_iter=10 stress="-0.00015051165529048302 -1.114842573983315e-15 1.789098181743931e-16 -1.114842573983315e-15 0.0001090351398496768 4.871102496365386e-06 1.789098181743931e-16 4.871102496365386e-06 -0.0001296924793044928" pbc="T T T"
Si       1.03101884       2.06197767       3.80048670
Si       2.97618269       2.57169331       0.19066058
Si       3.00240847       0.84528483       5.21760868
Si       1.00479306       1.35500046       1.60778256
Si       3.03407595       0.51290975       0.69085568
Si       0.97312558       0.00319412       4.30068180
6
Lattice="4.006317781553935 -8.349731404847767e-17 3.7387261036570036e-17 9.382374853294521e-17 4.432988225690562 -0.10319481300595383 -8.900291664218494e-17 -1.0212905280274551 7.220848373586411" Properties=species:S:1:pos:R:3 unique_starting_index=75 config_type=initial n_minim_iter=11 stress="-0.0003018354523619802 -9.349332918961905e-16 2.5194391872055857e-16 -9.349332918961905e-16 0.0008209294182234115 -0.00011594774788405672 2.5194391872055857e-16 -0.00011594774788405672 0.00016147408299430554" pbc="T T T"
Si       1.02884094       2.06177157       3.80148480
Si       2.97747685       2.57241683       0.19106061
Si       3.00115837       0.84404008       5.21768034
Si       1.00515941       1.35468534       1.60725615
Si       3.03206903       0.51329127       0.69036236
Si       0.97424875       0.00264600       4.30078655
6
Lattice="4.008772940348483 -8.358216287046371e-17 3.7476727208551485e-17 9.379529926621783e-17 4.433367325776967 -0.10343824674678896 -8.886291959191132e-17 -1.0218245598613866 7.218395885013813" Properties=species:S:1:pos:R:3 unique_starting_index=75 config_type=initial n_minim_iter=12 stress="0.0002601011541993514 -1.1026850482931814e-15 2.5124911667562976e-16 -1.1026850482931814e-15 -0.00030902006145410376 -0.0002651598325229692 2.5124911667562976e-16 -0.0002651598325229692 -3.1254486060975603e-05" pbc="T T T"
Si       1.02755433       2.06233606       3.79989780
Si       2.98121861       2.57324834       0.19069986
Si       3.00234143       0.84230979       5.21578893
Si       1.00643151       1.35322207       1.60659099
Si       3.03166763       0.51414189       0.69024097
Si       0.97710531       0.00322961       4.29943891
6
Lattice="4.009702848540309 -8.368602949763338e-17 3.7529793537661537e-17 9.370047403671995e-17 4.43423568116098 -0.10143422238122869 -8.869019145817617e-17 -1.0187700724849948 7.217569902936501" Properties=species:S:1:pos:R:3 unique_starting_index=75 config_type=initial n_minim_iter=13 stress="0.00025406803854496483 -1.123936118409584e-15 1.171184941187457e-16 -1.123936118409584e-15 0.00011367071274254063 -2.8766196609913258e-05 1.171184941187457e-16 -2.8766196609913258e-05 0.0002733383750633593" pbc="T T T"
Si       1.02676084       2.06455828       3.80068489
Si       2.98294201       2.57394331       0.19189994
Si       3.00302492       0.84486306       5.21615064
Si       1.00667793       1.35424809       1.60736569
Si       3.03157434       0.51446283       0.69014236
Si       0.97812851       0.00507779       4.29892731
6
Lattice="4.010384002403747 -8.38293915101457e-17 3.76882074797849e-17 9.354990115710769e-17 4.435931054335015 -0.09715850095861898 -8.818544071261976e-17 -1.0123226157944478 7.210770957993024" Properties=species:S:1:pos:R:3 unique_starting_index=75 config_type=initial n_minim_iter=14 stress="-0.00037456946903635234 -5.80928652630065e-16 9.699552446250595e-17 -5.80928652630065e-16 0.00083165481780385 4.1337953706532e-05 9.699552446250595e-17 4.1337953706532e-05 -0.0002876371962177363" pbc="T T T"
Si       1.02167995       2.06984436       3.79917199
Si       2.98870405       2.57600567       0.19378651
Si       3.00340869       0.84909201       5.21409901
Si       1.00697531       1.35525331       1.60871353
Si       3.02758298       0.51555620       0.68909692
Si       0.98280103       0.00939489       4.29448240
6
Lattice="4.012847305198796 -8.395044786507744e-17 3.7763472726047106e-17 9.348342926216872e-17 4.4375636975258645 -0.09475679573072766 -8.79817797781497e-17 -1.0088166949029482 7.208790619589703" Properties=species:S:1:pos:R:3 unique_starting_index=75 config_type=initial n_minim_iter=15 stress="-0.00014172921233897138 -2.542408221816242e-16 6.821095229263088e-17 -2.542408221816242e-16 0.0009715856773545903 5.18136978974052e-05 6.821095229263088e-17 5.18136978974052e-05 -0.0001859162129573912" pbc="T T T"
Si       1.01637278       2.07354683       3.79919551
Si       2.99647452       2.57795517       0.19480020
Si       3.00503150       0.85060682       5.21478370
Si       1.00781581       1.35501517       1.61038839
Si       3.02431955       0.51687834       0.68830014
Si       0.98852775       0.01246999       4.29269545
6
Lattice="4.012551253439482 -8.385224879557999e-17 3.765164241850443e-17 9.364858980534438e-17 4.438783608649649 -0.09854298921706584 -8.838664362157911e-17 -1.0151502911009256 7.214418587681016" Properties=species:S:1:pos:R:3 unique_starting_index=75 config_type=initial n_minim_iter=16 stress="0.0003204207813253961 -8.77901263433504e-17 1.2243557034148017e-16 -8.77901263433504e-17 -0.0005994773300343508 1.5886549139632035e-05 1.2243557034148017e-16 1.5886549139632035e-05 0.00035808986840224564" pbc="T T T"
Si       1.01081894       2.07050835       3.80081026
Si       3.00173232       2.57808349       0.19360097
Si       3.00522825       0.84630289       5.21831073
Si       1.00732300       1.35387804       1.61110144
Si       3.02074839       0.51692926       0.68670658
Si       0.99180286       0.00935411       4.29391588
6
Lattice="4.012695652861549 -8.386805367733739e-17 3.769714720914992e-17 9.365909943083096e-17 4.440144022585792 -0.09823516081932074 -8.828017449548558e-17 -1.015002340552924 7.212211471072878" Properties=species:S:1:pos:R:3 unique_starting_index=75 config_type=initial n_minim_iter=17 stress="0.00010576430296834164 -3.3245614733071444e-18 4.1103361351753606e-17 -3.3245614733071444e-18 0.000779876291119491 -0.0002739987385844047 4.1103361351753606e-17 -0.0002739987385844047 0.00020408259087316075" pbc="T T T"
Si       1.00707484       2.07148723       3.80041427
Si       3.00562081       2.57898840       0.19430853
Si       3.00552127       0.84667953       5.21720531
Si       1.00717438       1.35418070       1.61109957
Si       3.01817928       0.51725054       0.68553987
Si       0.99451637       0.00974937       4.29164561
6
Lattice="4.013018117946988 -8.391493826534842e-17 3.7741085803941017e-17 9.362034386690198e-17 4.440764077622054 -0.09754232131981345 -8.815996950589985e-17 -1.0140495413949207 7.210450479944054" Properties=species:S:1:pos:R:3 unique_starting_index=75 config_type=initial n_minim_iter=18 stress="-9.018270958922863e-05 5.2793472680237806e-17 8.836152603271815e-17 5.2793472680237806e-17 0.00039874318284403203 5.807234816534672e-05 8.836152603271815e-17 5.807234816534672e-05 -0.0001495468854573298" pbc="T T T"
Si       1.00493336       2.07251562       3.80015345
Si       3.00808476       2.57954039       0.19492821
Si       3.00612140       0.84737945       5.21641342
Si       1.00689672       1.35440422       1.61118818
Si       3.01663032       0.51749072       0.68494884
Si       0.99638780       0.01046595       4.29017408
6
Lattice="4.012841204939677 -8.391507787025031e-17 3.7749395138375227e-17 9.364077340076723e-17 4.441619263263534 -0.09827975156679702 -8.816784274525388e-17 -1.015451811264872 7.210164035857937" Properties=species:S:1:pos:R:3 unique_starting_index=75 config_type=initial n_minim_iter=19 stress="-0.00014224282415130964 2.914677215696128e-17 2.7877313439323593e-17 2.914677215696128e-17 0.0004280386441984473 -3.3141655583670744e-05 2.7877313439323593e-17 -3.3141655583670744e-05 -0.00011448179426245366" pbc="T T T"
Si       1.00251753       2.07218936       3.80020528
Si       3.01032368       2.57991526       0.19512326
Si       3.00646175       0.84658816       5.21595299
Si       1.00637946       1.35431407       1.61087097
Si       3.01470207       0.51762855       0.68416799
Si       0.99813914       0.00990264       4.28925001
6
Lattice="4.012476078175807 -8.39067512692204e-17 3.774621712390733e-17 9.365015875311289e-17 4.44169292128524 -0.09902841415585627 -8.819458892605185e-17 -1.016687211741522 7.210272324543756" Properties=species:S:1:pos:R:3 unique_starting_index=75 config_type=initial n_minim_iter=20 stress="-0.00016428924418583884 -6.502225029718913e-17 -7.864472658758352e-17 -6.502225029718913e-17 -0.000926003338382749 0.00021380580382242566 -7.864472658758352e-17 0.00021380580382242566 -0.00011864524220512458" pbc="T T T"
Si       1.00237169       2.07144122       3.80020213
Si       3.01010439       2.57978483       0.19506596
Si       3.00725764       0.84578525       5.21538903
Si       1.00521844       1.35412885       1.61025287
Si       3.01378557       0.51757915       0.68407035
Si       0.99869050       0.00923554       4.28920652
6
Lattice="4.01219979477443 -8.393490962591229e-17 3.7746177891588e-17 9.360155366153438e-17 4.441047540351955 -0.09928391568606357 -8.819091774454149e-17 -1.0169492382790626 7.210681666975392" Properties=species:S:1:pos:R:3 unique_starting_index=75 config_type=initial n_minim_iter=21 stress="-0.00014202657439417056 -7.404006334092997e-17 -1.8454145486511858e-19 -7.404006334092997e-17 -0.001818354141469139 0.0004392541085972708 -1.8454145486511858e-19 0.0004392541085972708 -0.000140987956551844" pbc="T T T"
Si       1.00458842       2.07085503       3.80011117
Si       3.00761138       2.57932965       0.19477034
Si       3.00772536       0.84548207       5.21510781
Si       1.00447443       1.35395669       1.60976698
Si       3.01458139       0.51741211       0.68472217
Si       0.99761841       0.00893749       4.29006300
