22
Lattice="5.530504376100559 -0.7058007000283949 -1.3704300893487338 -2.4732427221408733 11.596485271678702 -2.313905396568469 -4.585207165133906 -5.777810362087086 10.825246315720825" Properties=species:S:1:pos:R:3 unique_starting_index=18 config_type=initial n_minim_iter=1 energy=-3586.050857452129 free_energy=-3586.050857452129 pbc="T T T"
Si       0.13698163      10.49175376      -1.29236381
Si      -1.53723767      -1.41734313       5.61098187
Si      -3.75623848      -3.87353853       9.50696066
Si       0.26539432      -3.12089515       8.54651251
Si      -5.54927666      -0.49414049       8.84188835
Si       4.31116297       2.26967433      -0.24137814
Si       2.44387839       0.98819247       0.02447203
Si      -2.04736511       1.78346001       8.24005786
Si      -1.69207850      -3.81966158       9.01883806
Si      -2.58131132       0.94848874       5.76162578
Si       1.20650298      -0.75659908       2.87656741
Si      -2.98060630       3.47275871       4.79748770
Si      -3.30367071      -2.90778156       6.40068902
Si      -0.88196864       7.54660549      -1.16803314
Si       1.16982222       1.18935201       3.73324298
Si       0.78974050       8.59401993      -1.98076774
Si      -0.90920350      -1.69513502       3.21928126
Si       2.56005663      -5.37159510       6.18156119
Si       0.26833143       2.76106178       2.63267402
Si      -3.26364785       2.69522122       6.75546130
Si      -1.22006090       4.14233181       3.25841729
Si      -1.33200621      -2.84096266       7.17204927
22
Lattice="5.530278302055707 -0.7058781766689737 -1.37036289997813 -2.4734570347173435 11.59673633714522 -2.3145385322886396 -4.584595261670216 -5.778109748204422 10.826256114448963" Properties=species:S:1:pos:R:3 unique_starting_index=18 config_type=initial n_minim_iter=2 stress="0.00032986490497429393 3.5880167904560605e-05 4.805512178028684e-05 3.5880167904560605e-05 0.0005012941028572522 -0.00046656121367007463 4.805512178028684e-05 -0.00046656121367007463 0.0009691404613099566" pbc="T T T"
Si       0.13671181      10.49190463      -1.29282556
Si      -1.53702333      -1.41752843       5.61147958
Si      -3.75575165      -3.87375726       9.50785292
Si       0.26570472      -3.12118913       8.54725885
Si      -5.54884438      -0.49430411       8.84250503
Si       4.31089759       2.26962554      -0.24136095
Si       2.44377882       0.98809583       0.02454279
Si      -2.04705374       1.78323045       8.24069949
Si      -1.69168280      -3.81991344       9.01974082
Si      -2.58102537       0.94839336       5.76208508
Si       1.20660922      -0.75669794       2.87687970
Si      -2.98032121       3.47279534       4.79768352
Si      -3.30321340      -2.90788779       6.40126888
Si      -0.88203262       7.54676305      -1.16841267
Si       1.16976740       1.18913626       3.73357011
Si       0.78948117       8.59424455      -1.98107132
Si      -0.90910619      -1.69530487       3.21949869
Si       2.56018028      -5.37191126       6.18226748
Si       0.26848595       2.76093285       2.63285821
Si      -3.26341168       2.69512190       6.75595371
Si      -1.22005369       4.14241315       3.25862380
Si      -1.33166516      -2.84124401       7.17279354
22
Lattice="5.5299873815360465 -0.7059677906327894 -1.3702564484927924 -2.4735352773906327 11.596258899459366 -2.3141953823319366 -4.584128041891543 -5.777540613550313 10.825656447597991" Properties=species:S:1:pos:R:3 unique_starting_index=18 config_type=initial n_minim_iter=3 stress="-0.0004869355246563723 -4.0969428203970295e-05 -0.00010677512448104957 -4.0969428203970295e-05 -0.00012336738467057958 -0.0001874669574422543 -0.00010677512448104957 -0.0001874669574422543 0.00014147249155117635" pbc="T T T"
Si       0.13651826      10.49145778      -1.29253455
Si      -1.53687532      -1.41733847       5.61122642
Si      -3.75538822      -3.87328486       9.50738437
Si       0.26584875      -3.12085135       8.54678761
Si      -5.54846579      -0.49397861       8.84207963
Si       4.31060371       2.26946835      -0.24125172
Si       2.44364665       0.98798572       0.02460567
Si      -2.04685497       1.78337203       8.24042590
Si      -1.69143288      -3.81949660       9.01931012
Si      -2.58081002       0.94855452       5.76189740
Si       1.20663022      -0.75660202       2.87676666
Si      -2.98009638       3.47286690       4.79753955
Si      -3.30285934      -2.90752688       6.40092986
Si      -0.88205442       7.54646174      -1.16820489
Si       1.16968241       1.18911419       3.73347510
Si       0.78928797       8.59389747      -1.98070555
Si      -0.90903378      -1.69519187       3.21926488
Si       2.56016194      -5.37158857       6.18188508
Si       0.26855554       2.76083621       2.63284889
Si      -3.26321469       2.69524044       6.75577183
Si      -1.22004274       4.14242263       3.25864420
Si      -1.33144570      -2.84097012       7.17247918
22
Lattice="5.530205206420341 -0.7060113277622327 -1.3701433827763294 -2.4736917944592416 11.596263368474665 -2.3138768966988166 -4.584123055415228 -5.77727525405853 10.82519202808549" Properties=species:S:1:pos:R:3 unique_starting_index=18 config_type=initial n_minim_iter=4 stress="0.00017804653781192486 -2.940006308789706e-05 8.58579613932975e-05 -2.940006308789706e-05 3.885206244740484e-05 8.851265658591552e-05 8.58579613932975e-05 8.851265658591552e-05 8.225286772077159e-05" pbc="T T T"
Si       0.13648617      10.49149182      -1.29222769
Si      -1.53685168      -1.41721439       5.61105333
Si      -3.75539174      -3.87303414       9.50703101
Si       0.26602398      -3.12063040       8.54648802
Si      -5.54855603      -0.49372921       8.84177258
Si       4.31077511       2.26947536      -0.24110550
Si       2.44375884       0.98797089       0.02468096
Si      -2.04678743       1.78359540       8.24027277
Si      -1.69134464      -3.81927278       9.01899445
Si      -2.58080681       0.94872942       5.76177553
Si       1.20675748      -0.75652727       2.87670424
Si      -2.98011420       3.47302976       4.79748113
Si      -3.30286858      -2.90734580       6.40065700
Si      -0.88208806       7.54647636      -1.16799515
Si       1.16978878       1.18920391       3.73345912
Si       0.78928220       8.59391222      -1.98039914
Si      -0.90902381      -1.69513576       3.21911471
Si       2.56037112      -5.37144972       6.18163708
Si       0.26865254       2.76090755       2.63287649
Si      -3.26324294       2.69544699       6.75566400
Si      -1.22004890       4.14257278       3.25869533
Si      -1.33135119      -2.84081011       7.17224248
22
Lattice="5.530382990724837 -0.7057403324731185 -1.3700730364866465 -2.473220336462104 11.596762342539972 -2.314084780495892 -4.584701801725894 -5.778166427164389 10.824497102407589" Properties=species:S:1:pos:R:3 unique_starting_index=18 config_type=initial n_minim_iter=5 stress="0.00024077209742329704 0.00029452126293334416 -0.00037172998493103685 0.00029452126293334416 0.0002143305969967838 -0.00016410934984390974 -0.00037172998493103685 -0.00016410934984390974 -0.0002459332079504806" pbc="T T T"
Si       0.13687519      10.49214345      -1.29259240
Si      -1.53718214      -1.41776284       5.61069295
Si      -3.75602470      -3.87367640       9.50651212
Si       0.26578449      -3.12104859       8.54546192
Si      -5.54900114      -0.49425580       8.84098202
Si       4.31098372       2.26979309      -0.24120766
Si       2.44390902       0.98791674       0.02468039
Si      -2.04695036       1.78317859       8.23950948
Si      -1.69187819      -3.82000857       9.01831847
Si      -2.58094800       0.94857685       5.76138718
Si       1.20689032      -0.75665017       2.87638364
Si      -2.98005888       3.47278844       4.79701176
Si      -3.30308903      -2.90767870       6.40021889
Si      -0.88155745       7.54681060      -1.16818579
Si       1.16993957       1.18908815       3.73317278
Si       0.78976482       8.59449271      -1.98060013
Si      -0.90919304      -1.69553907       3.21881203
Si       2.56004127      -5.37174868       6.18117986
Si       0.26887503       2.76093733       2.63244514
Si      -3.26342445       2.69516248       6.75508286
Si      -1.21998072       4.14281337       3.25844118
Si      -1.33151000      -2.84141053       7.17165851
22
Lattice="5.530111174187772 -0.7059821848727216 -1.3695985336823673 -2.473860131713133 11.59669430015764 -2.314274532573843 -4.583325599427523 -5.777823097774482 10.824196794160407" Properties=species:S:1:pos:R:3 unique_starting_index=18 config_type=initial n_minim_iter=6 stress="3.177736557651823e-05 -0.00010871329026827833 0.00010473782215873897 -0.00010871329026827833 4.811839514332152e-06 -0.00010292942291113517 0.00010473782215873897 -0.00010292942291113517 -2.204890446697515e-05" pbc="T T T"
Si       0.13620024      10.49208910      -1.29259832
Si      -1.53667849      -1.41780109       5.61067271
Si      -3.75500790      -3.87335374       9.50639414
Si       0.26668194      -3.12092961       8.54530615
Si      -5.54810433      -0.49388894       8.84052197
Si       4.31068659       2.26957978      -0.24079683
Si       2.44380806       0.98762030       0.02496694
Si      -2.04626485       1.78321924       8.23947273
Si      -1.69098119      -3.81994011       9.01826234
Si      -2.58037607       0.94881230       5.76135108
Si       1.20728628      -0.75670468       2.87646636
Si      -2.97966056       3.47278950       4.79688810
Si      -3.30217637      -2.90728969       6.39997951
Si      -0.88179365       7.54672699      -1.16825061
Si       1.17029874       1.18903781       3.73341595
Si       0.78918506       8.59438040      -1.98056699
Si      -0.90877899      -1.69557941       3.21872329
Si       2.56067242      -5.37169233       6.18139947
Si       0.26906752       2.76091160       2.63246314
Si      -3.26291280       2.69532832       6.75497777
Si      -1.21983174       4.14300908       3.25854888
Si      -1.33059590      -2.84137467       7.17155985
22
Lattice="5.52993028786624 -0.7058179230629531 -1.3697661476372989 -2.473259250930301 11.596503171114735 -2.313750613443615 -4.583566655221053 -5.777475963169392 10.8244565423311" Properties=species:S:1:pos:R:3 unique_starting_index=18 config_type=initial n_minim_iter=7 stress="-0.0001803835789040326 0.000162486756702428 -1.9487000552231514e-05 0.000162486756702428 0.00016744567450578874 0.00022103597731999323 -1.9487000552231514e-05 0.00022103597731999323 0.000246221774494706" pbc="T T T"
Si       0.13659902      10.49212782      -1.29216782
Si      -1.53685423      -1.41767090       5.61087873
Si      -3.75524910      -3.87303994       9.50676726
Si       0.26638240      -3.12044166       8.54541428
Si      -5.54815688      -0.49362000       8.84090711
Si       4.31063788       2.26976246      -0.24077086
Si       2.44379134       0.98759096       0.02503916
Si      -2.04626215       1.78351161       8.23997515
Si      -1.69122258      -3.81962142       9.01852694
Si      -2.58026816       0.94902408       5.76177737
Si       1.20729723      -0.75651777       2.87650530
Si      -2.97944220       3.47285613       4.79736525
Si      -3.30217257      -2.90698430       6.40017700
Si      -0.88132463       7.54662353      -1.16789498
Si       1.17027379       1.18933636       3.73364369
Si       0.78953099       8.59441075      -1.98030047
Si      -0.90880907      -1.69553621       3.21880723
Si       2.56021886      -5.37121765       6.18131827
Si       0.26915200       2.76107908       2.63272033
Si      -3.26284206       2.69559628       6.75557930
Si      -1.21958720       4.14322456       3.25902310
Si      -1.33073353      -2.84117215       7.17170686
22
Lattice="5.5302914483265875 -0.705766624104862 -1.3697444618248673 -2.4735532085712735 11.5954972133859 -2.31416449779162 -4.583910526378511 -5.777357236923562 10.824261026273968" Properties=species:S:1:pos:R:3 unique_starting_index=18 config_type=initial n_minim_iter=8 stress="0.00019172855439781027 -0.00011247127761037634 -0.00019523375749692576 -0.00011247127761037634 -0.0003312338684865116 -2.076149255762632e-05 -0.00019523375749692576 -2.076149255762632e-05 0.00011754068915330947" pbc="T T T"
Si       0.13631630      10.49128444      -1.29275653
Si      -1.53724488      -1.41795621       5.61062957
Si      -3.75568950      -3.87312440       9.50673611
Si       0.26614489      -3.12043770       8.54493173
Si      -5.54887669      -0.49382254       8.84038379
Si       4.31082193       2.26948518      -0.24105049
Si       2.44396568       0.98712275       0.02505106
Si      -2.04660177       1.78281737       8.23950285
Si      -1.69141167      -3.81982006       9.01832251
Si      -2.58033138       0.94871640       5.76168796
Si       1.20762626      -0.75658545       2.87629814
Si      -2.97963155       3.47217853       4.79709497
Si      -3.30223060      -2.90664423       6.40004193
Si      -0.88124350       7.54585470      -1.16815946
Si       1.17021680       1.18911602       3.73336349
Si       0.78941500       8.59387896      -1.98079348
Si      -0.90875591      -1.69571236       3.21876150
Si       2.56021728      -5.37084830       6.18112768
Si       0.26902839       2.76073839       2.63243869
Si      -3.26333190       2.69517230       6.75538785
Si      -1.21954443       4.14283926       3.25888387
Si      -1.33073931      -2.84149635       7.17143409
22
Lattice="5.529902939868016 -0.7055746567056506 -1.3692103175810966 -2.473168377556753 11.59624172918013 -2.314418603235341 -4.583138120073452 -5.778185498329974 10.823094896291598" Properties=species:S:1:pos:R:3 unique_starting_index=18 config_type=initial n_minim_iter=9 stress="-7.563404939277995e-05 8.094791496873771e-05 0.00012139514171536203 8.094791496873771e-05 5.369818428534678e-05 -9.169084580303189e-05 0.00012139514171536203 -9.169084580303189e-05 -0.00019742777835671937" pbc="T T T"
Si       0.13649025      10.49215720      -1.29298806
Si      -1.53700992      -1.41836529       5.60997552
Si      -3.75499165      -3.87383388       9.50583694
Si       0.26648966      -3.12077057       8.54418119
Si      -5.54821378      -0.49420728       8.83905005
Si       4.31066712       2.26980743      -0.24088297
Si       2.44392846       0.98704813       0.02523233
Si      -2.04591779       1.78254955       8.23857174
Si      -1.69089045      -3.82049391       9.01753168
Si      -2.57965732       0.94858488       5.76110323
Si       1.20796506      -0.75664676       2.87608053
Si      -2.97888769       3.47211948       4.79643309
Si      -3.30163357      -2.90687627       6.39927371
Si      -0.88083314       7.54628774      -1.16827469
Si       1.17042794       1.18914841       3.73309453
Si       0.78954427       8.59469825      -1.98087401
Si      -0.90845791      -1.69609839       3.21845136
Si       2.56022047      -5.37113292       6.18081174
Si       0.26922023       2.76094313       2.63213078
Si      -3.26271099       2.69516098       6.75461097
Si      -1.21890177       4.14310280       3.25855072
Si      -1.33017157      -2.84215293       7.17072184
22
Lattice="5.529905099949626 -0.7059585428688744 -1.3696752105517074 -2.473501794942342 11.596200213441955 -2.3132753929179515 -4.583416772410922 -5.776963908120237 10.823402228050746" Properties=species:S:1:pos:R:3 unique_starting_index=18 config_type=initial n_minim_iter=10 stress="-0.000132498705907092 -0.0004351297669815274 -0.0002922496033389146 -0.0004351297669815274 0.0005647318100053985 0.0001371467982454752 -0.0002922496033389146 0.0001371467982454752 -0.00021074571380202533" pbc="T T T"
Si       0.13586300      10.49240467      -1.29220793
Si      -1.53758592      -1.41800893       5.61011690
Si      -3.75522528      -3.87296102       9.50645839
Si       0.26596786      -3.11983632       8.54444175
Si      -5.54909163      -0.49303512       8.83949865
Si       4.31052162       2.26961253      -0.24111458
Si       2.44392039       0.98652175       0.02522300
Si      -2.04651775       1.78322329       8.23933660
Si      -1.69134178      -3.81982111       9.01782732
Si      -2.57995424       0.94946408       5.76189609
Si       1.20823295      -0.75635296       2.87600282
Si      -2.97897174       3.47266140       4.79733282
Si      -3.30179559      -2.90565970       6.39944162
Si      -0.88078528       7.54611045      -1.16748431
Si       1.17017252       1.18940038       3.73341819
Si       0.78928962       8.59484673      -1.98020154
Si      -0.90844464      -1.69608341       3.21845348
Si       2.55984693      -5.37037695       6.18037881
Si       0.26877926       2.76127597       2.63249277
Si      -3.26335479       2.69613425       6.75554749
Si      -1.21886054       4.14373258       3.25951507
Si      -1.33020903      -2.84175868       7.17076243
22
Lattice="5.529855910189124 -0.7055737002049961 -1.3697088912359765 -2.4728018761714856 11.59435775494268 -2.3129040511692542 -4.583609645721543 -5.775934283489323 10.823817577890706" Properties=species:S:1:pos:R:3 unique_starting_index=18 config_type=initial n_minim_iter=11 stress="-5.840731222875356e-05 6.843795540333385e-05 -4.3349661925616445e-05 6.843795540333385e-05 -0.00015325206541119555 5.9346077538743564e-05 -4.3349661925616445e-05 5.9346077538743564e-05 -6.282835267279397e-05" pbc="T T T"
Si       0.13634602      10.49116317      -1.29189845
Si      -1.53784827      -1.41782826       5.61032756
Si      -3.75528357      -3.87234526       9.50709164
Si       0.26584513      -3.11888636       8.54502990
Si      -5.54937021      -0.49282141       8.83976720
Si       4.31070718       2.26957935      -0.24108006
Si       2.44406123       0.98621728       0.02534621
Si      -2.04634796       1.78309962       8.24000972
Si      -1.69151434      -3.81914430       9.01827736
Si      -2.57979770       0.94964536       5.76250492
Si       1.20857178      -0.75595519       2.87613047
Si      -2.97844138       3.47218373       4.79789364
Si      -3.30188510      -2.90479441       6.39962034
Si      -0.88009400       7.54485495      -1.16714722
Si       1.17035453       1.18945303       3.73381389
Si       0.78985156       8.59388788      -1.97989650
Si      -0.90841115      -1.69600325       3.21854140
Si       2.55945984      -5.36893502       6.18052439
Si       0.26889282       2.76108775       2.63281270
Si      -3.26321017       2.69599098       6.75617036
Si      -1.21822858       4.14344067       3.26018185
Si      -1.33012564      -2.84138521       7.17099020
22
Lattice="5.529790034004439 -0.7057586118249641 -1.3697354041262946 -2.4730552150430265 11.593284856856025 -2.3119728039235907 -4.583167052921882 -5.774304668285448 10.823973839932314" Properties=species:S:1:pos:R:3 unique_starting_index=18 config_type=initial n_minim_iter=12 stress="-6.421638326601027e-05 -5.618305712310227e-05 -2.77454998579674e-05 -5.618305712310227e-05 -7.792444030555987e-06 0.00010410696527668257 -2.77454998579674e-05 0.00010410696527668257 -0.0001542560008951006" pbc="T T T"
Si       0.13574744      10.49076270      -1.29117282
Si      -1.53822577      -1.41749756       5.61031473
Si      -3.75500077      -3.87128800       9.50784444
Si       0.26617517      -3.11772870       8.54583096
Si      -5.54987972      -0.49157829       8.83972801
Si       4.31069077       2.26931245      -0.24103142
Si       2.44418373       0.98541918       0.02554311
Si      -2.04642159       1.78354087       8.24086322
Si      -1.69122401      -3.81822678       9.01832403
Si      -2.57958516       0.95059050       5.76341701
Si       1.20936370      -0.75547079       2.87617670
Si      -2.97788549       3.47231011       4.79872955
Si      -3.30154199      -2.90302150       6.39959541
Si      -0.87978154       7.54391367      -1.16636285
Si       1.17047308       1.18976455       3.73433023
Si       0.78981259       8.59346709      -1.97911996
Si      -0.90809380      -1.69606536       3.21850520
Si       2.55940764      -5.36740687       6.18047446
Si       0.26874940       2.76109603       2.63326088
Si      -3.26333949       2.69670120       6.75693728
Si      -1.21759041       4.14394637       3.26139258
Si      -1.32995601      -2.84123845       7.17098456
22
Lattice="5.52966329628232 -0.7058280080454614 -1.3698342191662944 -2.4731167860932315 11.592819702270114 -2.3117900598949497 -4.58302516484943 -5.773775120884337 10.824337651203809" Properties=species:S:1:pos:R:3 unique_starting_index=18 config_type=initial n_minim_iter=13 stress="-7.2449287514614175e-06 -5.195669108891676e-05 -8.285682254790111e-06 -5.195669108891676e-05 -4.178691458101789e-05 5.853645589595029e-05 -8.285682254790111e-06 5.853645589595029e-05 -0.0001735471627588205" pbc="T T T"
Si       0.13545293      10.49057406      -1.29111603
Si      -1.53849663      -1.41754682       5.61039082
Si      -3.75499934      -3.87098535       9.50850268
Si       0.26634307      -3.11746708       8.54637438
Si      -5.55029338      -0.49123216       8.83979562
Si       4.31056816       2.26914724      -0.24110079
Si       2.44426225       0.98510551       0.02535249
Si      -2.04671922       1.78359810       8.24129641
Si      -1.69120366      -3.81815962       9.01876455
Si      -2.57942530       0.95085215       5.76394016
Si       1.20972801      -0.75528030       2.87621153
Si      -2.97758108       3.47228626       4.79904996
Si      -3.30153187      -2.90218996       6.39967284
Si      -0.87959249       7.54345544      -1.16614663
Si       1.17036131       1.18988802       3.73453780
Si       0.78980634       8.59330720      -1.97901484
Si      -0.90789058      -1.69618198       3.21862871
Si       2.55919217      -5.36678176       6.18063253
Si       0.26864423       2.76093696       2.63334652
Si      -3.26347222       2.69687007       6.75740713
Si      -1.21730792       4.14421947       3.26199466
Si      -1.32991367      -2.84134589       7.17098823
22
Lattice="5.529123589240285 -0.7058678991393005 -1.3701667515703717 -2.4727329749787472 11.592686706949971 -2.311370586704155 -4.58294818862911 -5.773308352069274 10.825060683327093" Properties=species:S:1:pos:R:3 unique_starting_index=18 config_type=initial n_minim_iter=14 stress="-7.110130639537943e-05 -1.9043558315366365e-05 -2.9075002658502865e-05 -1.9043558315366365e-05 -4.948800814597737e-05 8.471820131368672e-05 -2.9075002658502865e-05 8.471820131368672e-05 -7.932472173515604e-05" pbc="T T T"
Si       0.13543410      10.49059200      -1.29087469
Si      -1.53876492      -1.41756656       5.61069561
Si      -3.75501309      -3.87066639       9.50945652
Si       0.26613626      -3.11716391       8.54696030
Si      -5.55051184      -0.49088130       8.84034052
Si       4.31012233       2.26910063      -0.24113778
Si       2.44413304       0.98491479       0.02516710
Si      -2.04706774       1.78387812       8.24204166
Si      -1.69128531      -3.81786637       9.01922403
Si      -2.57922805       0.95115359       5.76465615
Si       1.20981363      -0.75502815       2.87630851
Si      -2.97718639       3.47245490       4.79963568
Si      -3.30167985      -2.90145427       6.39995025
Si      -0.87924593       7.54326008      -1.16579561
Si       1.17012595       1.19010325       3.73490509
Si       0.78976740       8.59342252      -1.97882557
Si      -0.90767638      -1.69620701       3.21895076
Si       2.55846025      -5.36621638       6.18079794
Si       0.26844601       2.76096428       2.63347101
Si      -3.26349352       2.69721257       6.75820351
Si      -1.21701493       4.14467057       3.26277316
Si      -1.32990646      -2.84146366       7.17145165
22
Lattice="5.5287754972839345 -0.7059055625271302 -1.3703290576299128 -2.4725433712554894 11.593048601762707 -2.3113753554504948 -4.582867425402245 -5.773476768886878 10.825431988306049" Properties=species:S:1:pos:R:3 unique_starting_index=18 config_type=initial n_minim_iter=15 stress="-1.4971577699366025e-05 -3.538770031893977e-06 6.0549500617106095e-06 -3.538770031893977e-06 -4.806727986948363e-05 4.239073048196113e-05 6.0549500617106095e-06 4.239073048196113e-05 -4.90118636097689e-05" pbc="T T T"
Si       0.13540133      10.49091933      -1.29101020
Si      -1.53895962      -1.41807118       5.61090733
Si      -3.75487956      -3.87092921       9.51005594
Si       0.26607441      -3.11730771       8.54717972
Si      -5.55080670      -0.49086917       8.84039088
Si       4.30971485       2.26909976      -0.24115438
Si       2.44411625       0.98478132       0.02493506
Si      -2.04730332       1.78379008       8.24226701
Si      -1.69124571      -3.81801242       9.01945595
Si      -2.57899367       0.95125093       5.76503469
Si       1.20998125      -0.75483938       2.87635018
Si      -2.97687832       3.47250882       4.79983402
Si      -3.30180886      -2.90107379       6.40004324
Si      -0.87905200       7.54334591      -1.16569691
Si       1.17000943       1.19013906       3.73509519
Si       0.78954996       8.59400684      -1.97883088
Si      -0.90739799      -1.69639227       3.21922675
Si       2.55777719      -5.36604989       6.18084693
Si       0.26826526       2.76102681       2.63331139
Si      -3.26357955       2.69736510       6.75826557
Si      -1.21668014       4.14514063       3.26319835
Si      -1.33006339      -2.84199589       7.17140922
22
Lattice="5.528357425766434 -0.7058179660686155 -1.370635368791402 -2.4720171537423994 11.594025378976351 -2.3117677433695 -4.58311802199941 -5.774418840003118 10.82629598995461" Properties=species:S:1:pos:R:3 unique_starting_index=18 config_type=initial n_minim_iter=16 stress="3.231057995982092e-05 5.761817946597415e-05 1.5019159401864566e-05 5.761817946597415e-05 -1.384196244422086e-05 -1.9672385651791776e-05 1.5019159401864566e-05 -1.9672385651791776e-05 5.292771676333477e-05" pbc="T T T"
Si       0.13560160      10.49199594      -1.29143365
Si      -1.53929613      -1.41913078       5.61133138
Si      -3.75478999      -3.87195050       9.51110654
Si       0.26567379      -3.11782068       8.54747015
Si      -5.55140650      -0.49136368       8.84067705
Si       4.30906324       2.26932458      -0.24134346
Si       2.44414991       0.98473493       0.02455975
Si      -2.04784821       1.78346680       8.24260586
Si      -1.69155424      -3.81867120       9.01989622
Si      -2.57871139       0.95115841       5.76561182
Si       1.21010314      -0.75462366       2.87646398
Si      -2.97660363       3.47240044       4.80004052
Si      -3.30237576      -2.90109679       6.40040120
Si      -0.87875054       7.54374870      -1.16577322
Si       1.16976728       1.19035980       3.73516256
Si       0.78981653       8.59500278      -1.97920623
Si      -0.90723398      -1.69684612       3.21960286
Si       2.55652576      -5.36602347       6.18106263
Si       0.26823712       2.76104051       2.63327739
Si      -3.26372956       2.69731256       6.75836270
Si      -1.21609383       4.14574298       3.26362035
Si      -1.33035836      -2.84318459       7.17155668
22
Lattice="5.527971719179865 -0.7059710032198753 -1.3707814531839655 -2.4721152656819205 11.595015348123066 -2.3123212979326704 -4.582835171976143 -5.775179736625481 10.827047564192286" Properties=species:S:1:pos:R:3 unique_starting_index=18 config_type=initial n_minim_iter=17 stress="0.00010097258825002196 3.629687197364254e-05 2.684316048839061e-05 3.629687197364254e-05 -4.1395764799501405e-05 -5.7191456170592574e-05 2.684316048839061e-05 -5.7191456170592574e-05 0.00016160550184341589" pbc="T T T"
Si       0.13531385      10.49308791      -1.29180932
Si      -1.53938042      -1.42018362       5.61157771
Si      -3.75455136      -3.87285652       9.51216973
Si       0.26566497      -3.11840969       8.54768266
Si      -5.55190797      -0.49186287       8.84079855
Si       4.30826228       2.26941120      -0.24137227
Si       2.44425474       0.98470622       0.02401448
Si      -2.04818386       1.78309387       8.24274159
Si      -1.69132789      -3.81940004       9.02023853
Si      -2.57848456       0.95123390       5.76598588
Si       1.21031555      -0.75437370       2.87664598
Si      -2.97632765       3.47243329       4.79998676
Si      -3.30257728      -2.90109635       6.40082298
Si      -0.87883087       7.54416595      -1.16593668
Si       1.16973998       1.19021048       3.73527132
Si       0.78949894       8.59574125      -1.97965759
Si      -0.90691040      -1.69723657       3.21997666
Si       2.55554088      -5.36583494       6.18131914
Si       0.26816561       2.76115035       2.63335009
Si      -3.26376000       2.69731320       6.75860845
Si      -1.21539372       4.14624340       3.26390395
Si      -1.33044099      -2.84446531       7.17164115
22
Lattice="5.527296254579398 -0.7058498927704999 -1.3705250401732074 -2.471590082706958 11.597224797530865 -2.313150696095003 -4.582168271570425 -5.777135442511352 10.826971316799652" Properties=species:S:1:pos:R:3 unique_starting_index=18 config_type=initial n_minim_iter=18 stress="0.00011597890054468467 6.633391367176489e-05 3.741569875996779e-05 6.633391367176489e-05 -3.6455812622709356e-06 -6.492346934179685e-05 3.741569875996779e-05 -6.492346934179685e-05 0.00020769843658614772" pbc="T T T"
Si       0.13571832      10.49517688      -1.29236664
Si      -1.53914849      -1.42159737       5.61128063
Si      -3.75399720      -3.87460376       9.51248482
Si       0.26593025      -3.11962542       8.54744713
Si      -5.55179859      -0.49309275       8.84011560
Si       4.30766351       2.27012999      -0.24108012
Si       2.44433912       0.98492182       0.02363946
Si      -2.04773632       1.78251248       8.24211792
Si      -1.69102733      -3.82100937       9.01984241
Si      -2.57786322       0.95111345       5.76570326
Si       1.21051811      -0.75445393       2.87661413
Si      -2.97552968       3.47253417       4.79948691
Si      -3.30255503      -2.90179407       6.40071109
Si      -0.87849660       7.54547970      -1.16629653
Si       1.16985337       1.19047367       3.73510125
Si       0.78935401       8.59773966      -1.97996056