1
Lattice="2.7252523234345265 2.0760106494529697e-16 -1.1891049901171214e-49 1.3626261617172633 2.360137743816865 -6.416853165686139e-50 7.953725363699722e-49 -2.459546090123799e-49 2.543528530525992" Properties=species:S:1:pos:R:3:forces:R:3 cutoff=-1.0 nneightol=1.2 n_minim_iter=1 energy=-162.8081332735846 stress="0.04069829035134603 -2.7569119049021595e-18 3.933901218148918e-17 -2.7569119049021595e-18 0.040698290351345395 1.2406103572059935e-17 3.933901218148918e-17 1.2406103572059935e-17 0.050754008232254" free_energy=-162.8081332735846 pbc="T T T"
Si       0.00000000       0.00000000       0.00000000       0.00000000      -0.00000000      -0.00000000
