1
Lattice="2.637983667580139 2.009532159604795e-16 -1.1510271970023584e-49 1.3189918337900692 2.284560870892844 -6.211371219750697e-50 5.55047928803186e-49 -2.4791231953393373e-49 2.4620790757076034" Properties=species:S:1:pos:R:3:forces:R:3 cutoff=-1.0 nneightol=1.2 n_minim_iter=1 energy=-162.8337261726745 stress="-0.014800196002404169 -5.190240111222614e-16 2.3615914009842747e-17 -5.190240111222614e-16 -0.014800196002406292 -5.2258978031681696e-17 2.3615914009842747e-17 -5.2258978031681696e-17 -0.014030372012531041" free_energy=-162.8337261726745 pbc="T T T"
Si       0.00000000       0.00000000       0.00000000      -0.00000000      -0.00000000      -0.00000000
