1
Lattice="2.5873402373699994 0.0 0.0 1.2936701186849995 2.240702373796079 0.0 0.0 0.0 2.58734024" Properties=species:S:1:pos:R:3:forces:R:3 cutoff=-1.0 nneightol=1.2 n_minim_iter=1 energy=-162.8017276740986 stress="-0.03573641627330648 3.7574107592439073e-16 -3.2381502388066915e-18 3.7574107592439073e-16 -0.035736416273303914 4.1864656658857946e-17 -3.2381502388066915e-18 4.1864656658857946e-17 0.051434282028571456" free_energy=-162.8017276740986 pbc="T T T"
Si       0.00000000       0.00000000       0.00000000      -0.00000000       0.00000000       0.00000000
1
Lattice="2.678316073857233 1.222513318036282e-16 -1.1411101074872607e-49 1.3391580369286162 2.3194897593245636 -5.856901345284904e-50 1.3669604926106802e-49 -2.989900587970631e-49 2.4617990384116086" Properties=species:S:1:pos:R:3:forces:R:3 cutoff=-1.0 nneightol=1.2 n_minim_iter=2 energy=-162.834628589466 stress="0.010151582369949123 1.108766521655615e-16 7.713158411517322e-18 1.108766521655615e-16 0.010151582369948117 4.446408966639396e-17 7.713158411517322e-18 4.446408966639396e-17 -0.008222336469514016" free_energy=-162.834628589466 pbc="T T T"
Si       0.00000000       0.00000000       0.00000000      -0.00000000      -0.00000000      -0.00000000
1
Lattice="2.6603405273241565 2.0265629051683524e-16 -1.160782129878246e-49 1.330170263662078 2.3039224793800104 -6.2640124687791195e-50 1.2640015415141126e-49 -2.6984750383864144e-49 2.4829451474921838" Properties=species:S:1:pos:R:3:forces:R:3 cutoff=-1.0 nneightol=1.2 n_minim_iter=3 energy=-162.8359371030378 stress="0.0010551573849112235 -2.5766920435033804e-16 8.435090078268085e-18 -2.5766920435033804e-16 0.001055157384910429 1.161534701318268e-16 8.435090078268085e-18 1.161534701318268e-16 0.005621850593081262" free_energy=-162.8359371030378 pbc="T T T"
Si       0.00000000       0.00000000       0.00000000      -0.00000000       0.00000000       0.00000000
