1
Lattice="2.7668656473481756 2.1077103577188813e-16 -1.2072620652237374e-49 1.3834328236740876 2.3961759394619957 -6.514835501851435e-50 1.0328695162884982e-48 -2.3939605603717027e-49 2.582367017411858" Properties=species:S:1:pos:R:3:forces:R:3 cutoff=-1.0 nneightol=1.2 n_minim_iter=1 energy=-162.7891611206033 stress="0.05242666480495468 2.2020351862800642e-17 -5.803010373255691e-18 2.2020351862800642e-17 0.05242666480495433 -1.222777185793164e-17 -5.803010373255691e-18 -1.222777185793164e-17 0.061789213488071155" free_energy=-162.7891611206033 pbc="T T T"
Si       0.00000000       0.00000000       0.00000000      -0.00000000      -0.00000000      -0.00000000
