1
Lattice="2.8657649596824393 2.1830487122132476e-16 -1.2504146440893949e-49 1.4328824798412194 2.48182525636028 -6.747702880765003e-50 2.2368237534846096e-48 -1.945388907815848e-49 2.6746715796017453" Properties=species:S:1:pos:R:3:forces:R:3 cutoff=-1.0 nneightol=1.2 n_minim_iter=1 energy=-162.6425409503873 stress="0.09223278800978976 -1.2282756650098001e-17 1.1119616815808463e-17 -1.2282756650098001e-17 0.0922327880097892 -1.395767801147505e-18 1.1119616815808463e-17 -1.395767801147505e-18 0.09455466422514902" free_energy=-162.6425409503873 pbc="T T T"
Si       0.00000000       0.00000000       0.00000000       0.00000000      -0.00000000       0.00000000
