1
Lattice="2.84653105827675 2.168396937107735e-16 -1.2420223466333919e-49 1.4232655291383747 2.4651682091290676 -6.702414919697217e-50 1.9899705635534517e-48 -2.0384435790903675e-49 2.6567202227464506" Properties=species:S:1:pos:R:3:forces:R:3 cutoff=-1.0 nneightol=1.2 n_minim_iter=1 energy=-162.6769580079587 stress="0.08640520654969008 -1.6903426570132962e-16 -3.799590125345987e-17 -1.6903426570132962e-16 0.08640520654969015 -5.233935397664098e-17 -3.799590125345987e-17 -5.233935397664098e-17 0.09069143157225011" free_energy=-162.6769580079587 pbc="T T T"
Si       0.00000000       0.00000000       0.00000000      -0.00000000      -0.00000000      -0.00000000
