1
Lattice="2.827033658304802 2.1535444371647588e-16 -1.2335150772691612e-49 1.4135168291524005 2.448282965445615 -6.656506527414855e-50 1.7460877012322504e-48 -2.1298657516622916e-49 2.638522937792951" Properties=species:S:1:pos:R:3:forces:R:3 cutoff=-1.0 nneightol=1.2 n_minim_iter=1 energy=-162.7093094862572 stress="0.08024813523164569 -2.417509427837159e-16 2.425270292774035e-17 -2.417509427837159e-16 0.08024813523164619 -5.3355946441028755e-18 2.425270292774035e-17 -5.3355946441028755e-18 0.08591187645964757" free_energy=-162.7093094862572 pbc="T T T"
Si       0.00000000       0.00000000       0.00000000       0.00000000      -0.00000000       0.00000000
