2
Lattice="3.112063992793871 0.0 0.0 0.0 3.112063992793871 0.0 0.0 0.0 3.112063992793871" Properties=species:S:1:pos:R:3 Minim_Constant_Volume=F n_minim_iter=1 stress="-0.04143707951543534 -5.697966535114261e-18 -3.867710617774529e-17 -5.697966535114261e-18 -0.04143707951543551 -1.3870807423864008e-17 -3.867710617774529e-17 -1.3870807423864008e-17 -0.041437079515435155" pbc="T T T"
Ti       0.00000000       0.00000000       0.00000000
Ti       1.55603200       1.55603200       1.55603200
