2
Lattice="3.410180143510716 0.0 0.0 0.0 3.410180143510716 0.0 0.0 -4.930380657631324e-32 3.410180143510716" Properties=species:S:1:pos:R:3 Minim_Constant_Volume=F n_minim_iter=1 stress="0.07790348156930114 -2.069474962919105e-17 -1.622286424958995e-18 -2.069474962919105e-17 0.07790348156930114 -6.954972485890988e-18 -1.622286424958995e-18 -6.954972485890988e-18 0.07790348156930116" pbc="T T T"
Ti       0.00000000       0.00000000       0.00000000
Ti       1.70509007       1.70509007       1.70509007
