2
Lattice="4.644116964269859 3.71281278867148e-19 1.5763283477074032e-16 3.712812788673581e-19 4.644116964269859 -2.4391510824203064e-16 2.3220584821349295 2.3220584821349295 1.2807797220088728" Properties=species:S:1:pos:R:3:forces:R:3 cutoff=-1.0 nneightol=1.2 n_minim_iter=1 energy=-325.643482557913 stress="-0.06538758398255508 3.465969711129704e-17 -1.3059479757548469e-16 3.465969711129704e-17 -0.06538758398255527 -4.9312793353038114e-17 -1.3059479757548469e-16 -4.9312793353038114e-17 -0.05935735278279317" free_energy=-325.643482557913 pbc="T T T"
Si      -0.00000000      -1.16102924      -0.32019493      -0.00000000      -0.00000000       0.00000000
Si      -0.00000000       1.16102924       0.32019493       0.00000000       0.00000000       0.00000000
