2
Lattice="5.11008760693766 -1.369686634937332e-16 2.4079959242541194e-15 -1.3696866349373154e-16 5.110087606937659 -3.972619991712392e-15 2.55504380346883 2.5550438034688283 1.4692359737694836" Properties=species:S:1:pos:R:3:forces:R:3 cutoff=-1.0 nneightol=1.2 n_minim_iter=2 energy=-325.4004282658905 stress="0.0804622884262537 -1.8251437163305165e-17 -6.100264088343641e-17 -1.8251437163305165e-17 0.0804622884262537 -1.6547692778236504e-16 -6.100264088343641e-17 -1.6547692778236504e-16 0.07345891316662546" free_energy=-325.4004282658905 pbc="T T T"
Si      -0.00000000      -1.27752190      -0.36730899       0.00000000      -0.00000000       0.00000000
Si      -0.00000000       1.27752190       0.36730899      -0.00000000       0.00000000      -0.00000000
