2
Lattice="5.110087606937659 -1.3696866349373326e-16 2.407995924254119e-15 -1.369686634937276e-16 5.110087606937659 -3.972619991712392e-15 2.555043803468829 2.555043803468831 1.4692359737694838" Properties=species:S:1:pos:R:3:forces:R:3 cutoff=-1.0 nneightol=1.2 n_minim_iter=1 energy=-325.3381239584501 stress="0.08692362223017878 4.948427746536969e-18 1.4462887977783793e-16 4.948427746536969e-18 0.08692362223017855 7.118056431978689e-17 1.4462887977783793e-16 7.118056431978689e-17 0.07879680713493944" free_energy=-325.3381239584501 pbc="T T T"
Si      -0.00000000      -1.27752190      -0.36730899       0.00000000      -0.00000000      -0.00000000
Si      -0.00000000       1.27752190       0.36730899      -0.00000000       0.00000000       0.00000000
