2
Lattice="5.002723346194274 3.9995063347539173e-19 1.698048237590737e-16 3.999506334756392e-19 5.002723346194274 -2.627495853097563e-16 2.501361673097137 2.501361673097137 1.3796781316926543" Properties=species:S:1:pos:R:3:forces:R:3 cutoff=-1.0 nneightol=1.2 n_minim_iter=1 energy=-325.5992812052855 stress="0.05787496438746075 1.8835705798083365e-17 4.1752673593358146e-17 1.8835705798083365e-17 0.05787496438746099 4.8281458632365143e-17 4.1752673593358146e-17 4.8281458632365143e-17 0.047390101219243815" free_energy=-325.5992812052855 pbc="T T T"
Si      -0.00000000      -1.25068084      -0.34491953       0.00000000      -0.00000000      -0.00000000
Si      -0.00000000       1.25068084       0.34491953       0.00000000       0.00000000       0.00000000
