2
Lattice="4.927482993539248 3.9393542443327846e-19 1.6725097979489025e-16 3.939354244334384e-19 4.927482993539248 -2.587978633993878e-16 2.463741496769624 2.463741496769624 1.3589279398480556" Properties=species:S:1:pos:R:3:forces:R:3 cutoff=-1.0 nneightol=1.2 n_minim_iter=1 energy=-325.6935624220308 stress="0.028288164819423315 -5.334587973166323e-17 -5.3180737354556684e-17 -5.334587973166323e-17 0.028288164819423516 1.4522175790431573e-17 -5.3180737354556684e-17 1.4522175790431573e-17 0.021925751149683717" free_energy=-325.6935624220308 pbc="T T T"
Si      -0.00000000      -1.23187075      -0.33973198       0.00000000      -0.00000000      -0.00000000
Si      -0.00000000       1.23187075       0.33973198      -0.00000000       0.00000000       0.00000000
