2
Lattice="2.7495808063295346 9.864438055233011e-18 2.749580806329534 2.7495808063295346 2.749580806329534 4.687501045881165e-17 1.883652762304318e-16 2.749580806329534 2.749580806329534" Properties=species:S:1:pos:R:3:forces:R:3 n_minim_iter=1 energy=-326.3488200053701 stress="0.010916698173872662 -2.0572182198892953e-17 1.8548910496351984e-16 -2.0572182198892953e-17 0.010916698173872499 2.2024325257542994e-17 1.8548910496351984e-16 2.2024325257542994e-17 0.010916698173872579" free_energy=-326.3488200053701 pbc="T T T"
Si       0.00000000      -0.00000000      -0.00000000      -0.00000000       0.00000000       0.00000000
Si       1.37479040       1.37479040       1.37479040       0.00000000      -0.00000000      -0.00000000
