2
Lattice="2.7041248401396794 9.701359537340987e-18 2.7041248401396794 2.7041248401396794 2.7041248401396794 4.6100074553796666e-17 1.8525122858798294e-16 2.7041248401396794 2.7041248401396794" Properties=species:S:1:pos:R:3:forces:R:3 n_minim_iter=1 energy=-326.3535622881468 stress="-0.001912933498763882 1.0141027147793814e-17 7.934412590222858e-17 1.0141027147793814e-17 -0.0019129334987641308 -3.538739640330801e-18 7.934412590222858e-17 -3.538739640330801e-18 -0.001912933498764199" free_energy=-326.3535622881468 pbc="T T T"
Si      -0.00000000      -0.00000000      -0.00000000       0.00000000       0.00000000      -0.00000000
Si       1.35206242       1.35206242       1.35206242      -0.00000000      -0.00000000       0.00000000
