24
Lattice="9.290603104364624 0.05221311228970782 -0.00469753699634084 -3.069934232288711 5.396510553471019 0.019183539709369334 -0.006427479513751113 0.031530445356210135 9.446530966678912" Properties=species:S:1:pos:R:3 n_minim_iter=16 stress="0.08183200299157008 -9.560541016318818e-07 -1.22498195594104e-06 -9.560541016318818e-07 0.08183582956340238 -1.6936239775302778e-06 -1.22498195594104e-06 -1.6936239775302778e-06 0.08183156177939058" pbc="T T T"
Ti      -0.04497726       0.05874433       0.02109473
Ti      -0.00247832       1.77142868       2.37872110
Ti       0.06303612       0.10115962       4.68572811
Ti       0.03521180       1.80251440       7.05066014
Ti      -1.51853144       2.65002517       0.06039895
Al      -1.48877339       4.50720550       2.33880139
Ti      -1.55041020       2.65497926       4.66968859
Ti      -1.50872322       4.52349141       7.07881372
Ti       3.07866500       0.11074895      -0.02766386
Ti       3.15374558       1.80717557       2.37891251
Ti       3.07948212       0.10375424       4.70975845
Ti       3.14193214       1.84573491       7.02145752
Ti       1.54892415       2.70806089       0.06763120
V        1.42063225       4.52426673       2.38121179
Ti       1.58791093       2.68170420       4.65718709
Ti       1.63068278       4.56669955       7.11361100
Al       6.14667061       0.04284151       0.16074927
Ti       6.18428017       1.93371811       2.38999905
Ti       6.14770338       0.10389347       4.69893558
Ti       6.21472285       1.77427037       7.10454986
Ti       4.59081813       2.75208922       0.00587505
Ti       4.71186430       4.47368643       2.42192795
Ti       4.62230490       2.68840802       4.74505730
Al       4.71039411       4.54961206       7.05366390
