16
Lattice="9.190644133333969 1.2389751220862877 -0.24634999286906922 2.379455911598245 6.739002296327954 -0.46235744556116143 1.1540805198300423 0.8949305696140869 6.588706086251947" Properties=species:S:1:pos:R:3 unique_starting_index=30 config_type=initial n_minim_iter=1 energy=-2606.869654330239 free_energy=-2606.869654330239 pbc="T T T"
Si       6.67535420       6.47111115       2.24969305
Si       6.04882637       2.40179683       3.63030560
Si       4.82242559       3.48979854       2.23682966
Si       7.90175497       5.38310945       3.64316899
Si       7.17678556       3.76459469       4.84978554
Si       5.54739500       5.10831330       1.03021311
Si       6.56183756       4.69948705      -0.78908087
Si       6.16234300       4.17342094       6.66907952
Si       2.78380183       3.57747488       2.87517515
Si       9.94037874       5.29543311       3.00482350
Si      11.00196917       6.31722529       1.46329987
Si       1.72221140       2.55568270       4.41669878
Si       3.86766359       1.94375367       3.71903163
Si       8.85651697       6.92915431       2.16096702
Si       7.20499008       6.51169401       0.19095441
Si       5.51919048       2.36121398       5.68904424
16
Lattice="9.186400396742357 1.2399097851813838 -0.24757601287096648 2.3795061517753617 6.736166863626506 -0.4616229746189428 1.1526499607001286 0.8958074925878309 6.589021761023295" Properties=species:S:1:pos:R:3 unique_starting_index=30 config_type=initial n_minim_iter=2 stress="-0.00042294644679975984 -0.0001960085705432098 7.730830314104487e-05 -0.0001960085705432098 -0.0011826480840956902 0.00031260223007372866 7.730830314104487e-05 0.00031260223007372866 -0.0012155903785594337" pbc="T T T"
Si       6.67279630       6.46955928       2.24996963
Si       6.04576021       2.40232486       3.62985314
Si       4.82024253       3.48935946       2.23674063
Si       7.89831398       5.38252468       3.64308214
Si       7.17319790       3.76505542       4.84951989
Si       5.54535861       5.10682872       1.03030288
Si       6.55951591       4.69817812      -0.78943601
Si       6.15904059       4.17370602       6.66925878
Si       2.78266340       3.57655924       2.87555047
Si       9.93589311       5.29532490       3.00427230
Si      10.99741010       6.31635512       1.46269637
Si       1.72114641       2.55552902       4.41712641
Si       3.86543014       1.94426624       3.71888479
Si       8.85312637       6.92761790       2.16093798
Si       7.20250817       6.50990112       0.19080217
Si       5.51604834       2.36198302       5.68902060
16
Lattice="9.18610452969719 1.241370897483842 -0.24851311072034157 2.380300654805577 6.737873067904829 -0.462271529425818 1.1521418495740068 0.8958958452481599 6.591651031809842" Properties=species:S:1:pos:R:3 unique_starting_index=30 config_type=initial n_minim_iter=3 stress="0.0008600589784764027 0.00040889258079940667 -0.0013487841612262821 0.00040889258079940667 0.00030697294961397033 0.00036992171581109095 -0.0013487841612262821 0.00036992171581109095 0.0037588894344171126" pbc="T T T"
Si       6.67297722       6.47165932       2.25023932
Si       6.04556982       2.40348049       3.63062707
Si       4.82010589       3.49063443       2.23700378
Si       7.89844115       5.38450538       3.64386261
Si       7.17292276       3.76693573       4.85074998
Si       5.54562428       5.10820408       1.03011641
Si       6.55978829       4.69989531      -0.79063531
Si       6.15875874       4.17524450       6.67150170
Si       2.78280650       3.57721854       2.87646953
Si       9.93574054       5.29792127       3.00439686
Si      10.99748184       6.31903357       1.46200734
Si       1.72106519       2.55610624       4.41885905
Si       3.86500816       1.94524530       3.71994205
Si       8.85353888       6.92989452       2.16092434
Si       7.20287672       6.51218781       0.18978604
Si       5.51567031       2.36295200       5.69108035
16
Lattice="9.18348319153832 1.2436762306524636 -0.24578244549028852 2.3804816381476757 6.742776575502956 -0.4634773996530664 1.1541277535066643 0.8945864403304874 6.5900272760041165" Properties=species:S:1:pos:R:3 unique_starting_index=30 config_type=initial n_minim_iter=4 stress="-0.001023866071067605 0.0007258279149372193 0.0013101914096352424 0.0007258279149372193 0.0006578112069315762 -0.0005587701019432926 0.0013101914096352424 -0.0005587701019432926 0.001215031299685903" pbc="T T T"
Si       6.67232830       6.47614085       2.25010369
Si       6.04576429       2.40489840       3.63066374
Si       4.81944658       3.49302058       2.23640191
Si       7.89864600       5.38801867       3.64436552
Si       7.17296189       3.77028260       4.85062248
Si       5.54513070       5.11075665       1.03014495
Si       6.55799121       4.70380730      -0.79006323
Si       6.16010138       4.17723194       6.67083066
Si       2.78363737       3.57792864       2.87582683
Si       9.93445521       5.30311060       3.00494060
Si      10.99546486       6.32437996       1.46287733
Si       1.72262772       2.55665929       4.41789010
Si       3.86487239       1.94666469       3.71931845
Si       8.85322019       6.93437455       2.16144898
Si       7.20141132       6.51753468       0.18944222
Si       5.51668126       2.36350457       5.69132521
16
Lattice="9.187769540303856 1.24142313658898 -0.24988460066958368 2.3799789838806578 6.743898705093291 -0.4640524338718593 1.1513644234582683 0.8947613556159436 6.5856327093175855" Properties=species:S:1:pos:R:3 unique_starting_index=30 config_type=initial n_minim_iter=5 stress="0.0013542062325545196 -0.00016019915504486708 8.47158329866968e-06 -0.00016019915504486708 -0.0010355380220183554 -0.0004922358538564066 8.47158329866968e-06 -0.0004922358538564066 0.00040933847206839666" pbc="T T T"
Si       6.67242848       6.47591320       2.24598288
Si       6.04668447       2.40417000       3.62571280
Si       4.81954345       3.49266770       2.23254999
Si       7.89956950       5.38741549       3.63914569
Si       7.17310391       3.77044377       4.84421128
Si       5.54600904       5.10963942       1.02748440
Si       6.56012809       4.70297817      -0.79284247
Si       6.15898485       4.17710503       6.66453814
Si       2.78247047       3.57737347       2.87314879
Si       9.93664248       5.30270973       2.99854688
Si      10.99829901       6.32294092       1.45677592
Si       1.72081394       2.55714228       4.41491975
Si       3.86411368       1.94679910       3.71515476
Si       8.85499927       6.93328410       2.15654091
Si       7.20258168       6.51724399       0.18579941
Si       5.51653127       2.36283921       5.68589627
16
Lattice="9.183802705035752 1.2416156351564402 -0.2536604394402518 2.3783453260083185 6.751195395137773 -0.46233973453088806 1.1476117201045897 0.8981797381567947 6.5816919590875775" Properties=species:S:1:pos:R:3 unique_starting_index=30 config_type=initial n_minim_iter=6 stress="0.00043124548169550545 0.0008665996417563459 -0.00011526655262191865 0.0008665996417563459 0.0013028484384536784 0.00127635654828886 -0.00011526655262191865 0.00127635654828886 -0.0005285910628811594" pbc="T T T"
Si       6.66739269       6.48307870       2.24402972
Si       6.04236706       2.40791207       3.62166206
Si       4.81554786       3.49669099       2.23018120
Si       7.89421190       5.39429978       3.63551059
Si       7.16691809       3.77652391       4.83897154
Si       5.54284166       5.11446686       1.02672025
Si       6.55701194       4.70744844      -0.79377770
Si       6.15274782       4.18354233       6.65946949
Si       2.77892114       3.58153749       2.87152551
Si       9.93083862       5.30945327       2.99416627
Si      10.99207678       6.32915293       1.45272975
Si       1.71768297       2.56183784       4.41296204
Si       3.86014359       1.95051033       3.71175857
Si       8.84961616       6.94048044       2.15393322
Si       7.19792306       6.52382321       0.18431110
Si       5.51183669       2.36716756       5.68138069
16
Lattice="9.176826046078093 1.2368003444942928 -0.2587103491621158 2.372802684687289 6.753996210499408 -0.46540147407663135 1.1428661236288804 0.8961444293339308 6.579648372769877" Properties=species:S:1:pos:R:3 unique_starting_index=30 config_type=initial n_minim_iter=7 stress="-0.00126235682756723 -0.0006710267041759103 -0.0007389668409718649 -0.0006710267041759103 0.000890139638923818 -0.0005646656646382421 -0.0007389668409718649 -0.0005646656646382421 -0.00013198125878973564" pbc="T T T"
Si       6.65719857       6.48185453       2.23835585
Si       6.03529628       2.40508645       3.61718070
Si       4.80823730       3.49479600       2.22628066
Si       7.88425756       5.39214498       3.62925589
Si       7.15658243       3.77404020       4.83276519
Si       5.53591243       5.11290078       1.02277136
Si       6.54980894       4.70685604      -0.79817716
Si       6.14268592       4.18008495       6.65371371
Si       2.77248592       3.58048193       2.86826933
Si       9.92000893       5.30645905       2.98726722
Si      10.97990425       6.32546852       1.44443596
Si       1.71259060       2.56147246       4.41110058
Si       3.85405215       1.94880915       3.70836576
Si       8.83844271       6.93813184       2.14717079
Si       7.18788946       6.52312264       0.17806306
Si       5.50460539       2.36381835       5.67747349
16
Lattice="9.182861490725173 1.2344919058348252 -0.25869658939876894 2.372731456528916 6.754226208839163 -0.46202339207601917 1.1429731354522905 0.8994537922654962 6.580028198725241" Properties=species:S:1:pos:R:3 unique_starting_index=30 config_type=initial n_minim_iter=8 stress="-0.00024229055899550308 -7.419346946503111e-05 8.803225242842445e-05 -7.419346946503111e-05 -0.0005040650411863418 0.00024540282053850116 8.803225242842445e-05 0.00024540282053850116 -0.0005209751209829722" pbc="T T T"
Si       6.65863766       6.48114778       2.24130996
Si       6.03992843       2.40702413       3.61799826
Si       4.80810507       3.49352518       2.22804589
Si       7.89046101       5.39464673       3.63126233
Si       7.15824885       3.77921355       4.83290148
Si       5.54031723       5.10895836       1.02640674
Si       6.55225351       4.70708676      -0.79468480
Si       6.14631257       4.18108515       6.65399302
Si       2.77010863       3.57976766       2.86830042
Si       9.92845745       5.30840425       2.99100780
Si      10.98627821       6.32285835       1.44505346
Si       1.71228787       2.56531356       4.41425476
Si       3.85478741       1.95170737       3.70862394
Si       8.84377867       6.93646454       2.15068428
Si       7.18758086       6.52175005       0.17909726
Si       5.51098523       2.36642186       5.68021095
16
Lattice="9.185784022000943 1.2358924821732913 -0.2592619159476519 2.374245563296052 6.756633318004501 -0.4610326860291029 1.1428720602699434 0.9010928334439277 6.580841272389944" Properties=species:S:1:pos:R:3 unique_starting_index=30 config_type=initial n_minim_iter=9 stress="-0.0004809353089001242 0.0005673016120371675 -0.00038627793048787894 0.0005673016120371675 -0.0008264332276873247 -0.0002447943930786468 -0.00038627793048787894 -0.0002447943930786468 -0.0005603573934682373" pbc="T T T"
Si       6.66055709       6.48333161       2.24072320
Si       6.04234456       2.41028702       3.61982347
Si       4.80594483       3.49284653       2.22941275
Si       7.89695682       5.40077210       3.63113392
Si       7.15911377       3.78703857       4.83101014
Si       5.54378787       5.10658006       1.02953653
Si       6.55418695       4.71014402      -0.79468622
Si       6.14871470       4.18347461       6.65523289
Si       2.76904685       3.57975952       2.86541005
Si       9.93385480       5.31385911       2.99513662
Si      10.99117353       6.32480360       1.44258507
Si       1.71172811       2.56881504       4.41796160
Si       3.85487988       1.95474201       3.70898630
Si       8.84802176       6.93887662       2.15156037
Si       7.18591078       6.52476728       0.17967121
Si       5.51699087       2.36885135       5.68087546
16
Lattice="9.184843374784384 1.2315780105845378 -0.2560809855450387 2.370885228290429 6.755682431909803 -0.4581001835736793 1.1444356551810442 0.9028582342053658 6.583058652856382" Properties=species:S:1:pos:R:3 unique_starting_index=30 config_type=initial n_minim_iter=10 stress="-0.0005562268956142718 -0.0006056743972091523 0.00039167429910482213 -0.0006056743972091523 -0.0006701992627709409 0.0005829014405096903 0.00039167429910482213 0.0005829014405096903 0.00013647465593890783" pbc="T T T"
Si       6.65814807       6.48114018       2.24566063
Si       6.04201619       2.40897850       3.62321685
Si       4.80448999       3.49078925       2.23275671
Si       7.89567427       5.39932942       3.63612078
Si       7.15840147       3.78636045       4.83521375
Si       5.54176279       5.10375823       1.03366373
Si       6.55141208       4.70718023      -0.79149393
Si       6.14875218       4.18293844       6.66037141
Si       2.76776003       3.57908278       2.86749570
Si       9.93240423       5.31103589       3.00138179
Si      10.98827438       6.32009966       1.44806906
Si       1.71188988       2.57001902       4.42080842
Si       3.85498037       1.95428944       3.71194300
Si       8.84518389       6.93582923       2.15693448
Si       7.18205916       6.52210639       0.18407491
Si       5.51810510       2.36801229       5.68480258
16
Lattice="9.187420375872852 1.2309679316010853 -0.25524768211715004 2.3708045537794553 6.757494133626027 -0.4586362100773409 1.1453528693394435 0.90212725081638 6.581457836490346" Properties=species:S:1:pos:R:3 unique_starting_index=30 config_type=initial n_minim_iter=11 stress="0.00016098390192165722 -0.00011425473002144455 -0.00018177586485330522 -0.00011425473002144455 0.000331105799528597 -0.00012679618949064446 -0.00018177586485330522 -0.00012679618949064446 -0.00018353978595939623" pbc="T T T"
Si       6.66065965       6.48130327       2.24622995
Si       6.04291815       2.40928604       3.62134400
Si       4.80524239       3.48690019       2.23299320
Si       7.89833540       5.40368913       3.63458075
Si       7.15916348       3.78878157       4.83324578
Si       5.54441432       5.10180775       1.03432817
Si       6.55195163       4.70886874      -0.79219014
Si       6.15162617       4.18172057       6.65976408
Si       2.76689142       3.57671225       2.86374367
Si       9.93668638       5.31387707       3.00383028
Si      10.99048037       6.31908316       1.44633827
Si       1.71309743       2.57150616       4.42123567
Si       3.85632719       1.95359515       3.71250348
Si       8.84725061       6.93699417       2.15507046
Si       7.18117212       6.52520171       0.18356897
Si       5.52240568       2.36538761       5.68400497
16
Lattice="9.191725865600388 1.2294398283554253 -0.2441379497918152 2.370951110237387 6.752144795233019 -0.4590052508121773 1.154386897367017 0.8983081963377014 6.5875334473812215" Properties=species:S:1:pos:R:3 unique_starting_index=30 config_type=initial n_minim_iter=12 stress="0.000834602941295308 -0.0004980096233095479 2.6151432315281376e-05 -0.0004980096233095479 0.0009169173556955067 -0.00015557903457719347 2.6151432315281376e-05 -0.00015557903457719347 0.0008568078209230986" pbc="T T T"
Si       6.66702806       6.47372925       2.25421702
Si       6.05003582       2.40616357       3.63017323
Si       4.80986614       3.47550574       2.23823527
Si       7.90719774       5.40438708       3.64615497
Si       7.16471095       3.78562721       4.84010740
Si       5.55235293       5.09426561       1.04428285
Si       6.55324584       4.70965583      -0.78831863
Si       6.16381803       4.17023699       6.67270888
Si       2.76988417       3.56425173       2.86211123
Si       9.94717970       5.31564109       3.02227901
Si      10.99590730       6.30932427       1.45549548
Si       1.72115658       2.57056855       4.42889477
Si       3.86178086       1.94977702       3.72251261
Si       8.85528302       6.93011580       2.16187763
Si       7.18008117       6.52382735       0.19007962
Si       5.53698270       2.35606547       5.69431063
16
Lattice="9.182539877211802 1.2364687056963932 -0.2426181037569218 2.373145454122292 6.755107156584837 -0.4629408233476496 1.155561773185783 0.8951408054467 6.592285796888244" Properties=species:S:1:pos:R:3 unique_starting_index=30 config_type=initial n_minim_iter=13 stress="0.0010713241249828166 0.00014720134227609534 2.5264041575236672e-05 0.00014720134227609534 0.0012558722836627824 -0.0004486100087693341 2.5264041575236672e-05 -0.0004486100087693341 0.0012983287808940693" pbc="T T T"
Si       6.66485521       6.47866359       2.25370691
Si       6.04639190       2.40805307       3.63301996
Si       4.80870614       3.47489964       2.23537680
Si       7.90254097       5.41181703       3.65135007
Si       7.15815664       3.79270691       4.84024300
Si       5.55309047       5.09400976       1.04648387
Si       6.54752847       4.71843948      -0.79143801
Si       6.16371864       4.16827718       6.67816488
Si       2.76635926       3.55941011       2.85623598
Si       9.94488784       5.32730655       3.03049089
Si      10.98880147       6.31325484       1.45331092
Si       1.72244563       2.57346182       4.43341595
Si       3.85925146       1.94970969       3.72868085
Si       8.85199565       6.93700698       2.15804602
Si       7.17423674       6.53395202       0.18842944
Si       5.53701037       2.35276465       5.69829743
16
Lattice="9.175705410006723 1.2281434493010324 -0.2528581502611896 2.3654647478339723 6.757622851296468 -0.46229978988325093 1.1461854832828666 0.8982224148010659 6.594114910707915" Properties=species:S:1:pos:R:3 unique_starting_index=30 config_type=initial n_minim_iter=14 stress="0.0003522339075100124 0.00011815685863711573 -8.141752774961422e-05 0.00011815685863711573 0.00026428527337247245 0.00034756641583985127 -8.141752774961422e-05 0.00034756641583985127 -0.00016755313241847067" pbc="T T T"
Si       6.65153500       6.47940678       2.24993948
Si       6.03582064       2.40458194       3.62901749
Si       4.79961645       3.47266008       2.23176190
Si       7.88773919       5.41132864       3.64719507
Si       7.14190805       3.79454582       4.83589038
Si       5.54544759       5.08944290       1.04306659
Si       6.53707846       4.71640792      -0.79538414
Si       6.15027718       4.16758080       6.67434112
Si       2.75736881       3.55498949       2.85065608
Si       9.92998683       5.32899922       3.02830089
Si      10.97400263       6.30404527       1.44342218
Si       1.71335302       2.57994345       4.43553479
Si       3.84960044       1.94985527       3.72895828
Si       8.83775520       6.93413344       2.14999869
Si       7.16157026       6.53376631       0.18480162
Si       5.52578538       2.35022241       5.69415535
16
Lattice="9.169910211013267 1.227135991868241 -0.2549525021757572 2.363155015604634 6.758135813455543 -0.4662861523037286 1.1444327031277666 0.8949616479623774 6.599146825957268" Properties=species:S:1:pos:R:3 unique_starting_index=30 config_type=initial n_minim_iter=15 stress="-0.0002764227980541023 0.00015813980529725402 6.228153521367568e-07 0.00015813980529725402 -0.0006001163164220353 0.00013751604814240864 6.228153521367568e-07 0.00013751604814240864 -0.00028555512255811226" pbc="T T T"
Si       6.64621593       6.47966477       2.24740440
Si       6.03128200       2.40056868       3.63050377
Si       4.79621377       3.46975272       2.23182359
Si       7.88128416       5.41048073       3.64608458
Si       7.13567580       3.79296659       4.83725541
Si       5.54182213       5.08726686       1.04065276
Si       6.53185324       4.71733403      -0.79977564
Si       6.14564469       4.16289943       6.67768381
Si       2.75232728       3.54739134       2.84755315
Si       9.92517065       5.33284211       3.03035502
Si      10.96537396       6.29854595       1.44093628
Si       1.71212397       2.58168750       4.43697189
Si       3.84524722       1.94791376       3.73272144
Si       8.83225071       6.93231969       2.14518673
Si       7.15565855       6.53348625       0.18289579
Si       5.52183938       2.34674720       5.69501238
16
Lattice="9.165900646863333 1.2264227088686135 -0.25467360097509933 2.3612811605179913 6.7596608751034895 -0.46976117931185424 1.1445383751205211 0.8914071346216048 6.599127912546105" Properties=species:S:1:pos:R:3 unique_starting_index=30 config_type=initial n_minim_iter=16 stress="-0.00011662866611212067 -0.0001283642671885189 -0.00017580226667881263 -0.0001283642671885189 -0.000499593311946256 -0.0002133344367697401 -0.00017580226667881263 -0.0002133344367697401 -8.97251944539465e-05" pbc="T T T"
Si       6.64225709       6.48036482       2.24625722
Si       6.02946309       2.39712590       3.62843591
Si       4.79471838       3.46688301       2.23047511
Si       7.87700181       5.41060771       3.64421802
Si       7.13161762       3.79233079       4.83485925
Si       5.54010256       5.08515993       1.03983389
Si       6.52813045       4.72109270      -0.80290202
Si       6.14358973       4.15639802       6.67759515
Si       2.74880770       3.53822676       2.83863278
Si       9.92291248       5.33926396       3.03606035
Si      10.95975524       6.29363932       1.43790071
Si       1.71196495       2.58385140       4.43679242
Si       3.84254640       1.94512524       3.73556109
Si       8.82917378       6.93236548       2.13913205
Si       7.15112900       6.53409035       0.18132456
Si       5.52059118       2.34340037       5.69336858
16
Lattice="9.150027033678278 1.2255160880443177 -0.24641414817085183 2.3551158010948967 6.765682694844508 -0.47586484303257937 1.1495107342397863 0.8836508587987261 6.602379521611928" Properties=species:S:1:pos:R:3 unique_starting_index=30 config_type=initial n_minim_iter=17 stress="0.0015659405234373658 -0.0007353749045198617 -0.0004474083782888502 -0.0007353749045198617 0.001240912466181999 -0.0007833905214279718 -0.0004474083782888502 -0.0007833905214279718 0.0011926622257661694" pbc="T T T"
Si       6.62703649       6.48386843       2.25112618
Si       6.02761708       2.39098121       3.62897435
Si       4.79170994       3.46164655       2.23459185
Si       7.86294362       5.41320310       3.64550868
Si       7.12024838       3.79329798       4.83542367
Si       5.53440519       5.08155166       1.04467686
Si       6.51279265       4.73118794      -0.80598801
Si       6.14186091       4.14366170       6.68608854
Si       2.73528203       3.50775085       2.81097540
Si       9.91937154       5.36709879       3.06912513
Si      10.94096235       6.28261746       1.43759735
Si       1.71369122       2.59223218       4.44250318
Si       3.83503518       1.93979748       3.74940800
Si       8.81961839       6.93505216       2.13069254
Si       7.13773922       6.53862731       0.18632300
Si       5.51691435       2.33622234       5.69377753
16
Lattice="9.145199251411256 1.2280127153910168 -0.23806679912290085 2.354887065987951 6.769757454013522 -0.46990389751429024 1.154300088345889 0.8874834391162963 6.590627269366502" Properties=species:S:1:pos:R:3 unique_starting_index=30 config_type=initial n_minim_iter=18 stress="-0.0025718509248763024 0.0004976654008855678 0.001097179870242551 0.0004976654008855678 -0.0012634286733575234 0.0004977971933207304 0.001097179870242551 0.0004977971933207304 -0.0026308499344295322" pbc="T T T"
Si       6.62059412       6.48977998       2.25721874
Si       6.03379229       2.39547363       3.62543783
Si       4.79054870       3.47385682       2.24309404
Si       7.86383770       5.41139679       3.63956253
Si       7.12582509       3.79456823       4.83590647
Si       5.52856132       5.09068538       1.04675011
Si       6.51183715       4.72986674      -0.79843669
Si       6.14254925       4.15538687       6.68109326
Si       2.72766580       3.50082579       2.79842756
Si       9.92672061       5.38442782       3.08422901
Si      10.94020257       6.29214678       1.44402351
Si       1.71418384       2.59310683       4.43863306
Si       3.83632433       1.94677585       3.74331166
Si       8.81806208       6.93847776       2.13934491
Si       7.14427015       6.53655968       0.19523709
Si       5.51011625       2.34869393       5.68741948
16
Lattice="9.140422754043858 1.2247481762788848 -0.23105693575140976 2.350628968627262 6.7720054342491505 -0.46886148606654443 1.1585407493263893 0.886615599436482 6.591224968352779" Properties=species:S:1:pos:R:3 unique_starting_index=30 config_type=initial n_minim_iter=19 stress="0.0006263222028742475 -0.0003804543484858342 -4.434063774572114e-05 -0.0003804543484858342 0.00025312040687306813 -0.00032098250031148293 -4.434063774572114e-05 -0.00032098250031148293 0.0003523429990351445" pbc="T T T"
Si       6.61397299       6.49031904       2.26296984
Si       6.03561948       2.39305017       3.62833671
Si       4.78699184       3.47031615       2.24970648
Si       7.86260064       5.41305306       3.64160006
Si       7.12290944       3.79670770       4.83825416
Si       5.52668303       5.08666151       1.05305239
Si       6.50527601       4.73179226      -0.79628737
Si       6.14431646       4.15157695       6.68759391
Si       2.71531760       3.47797517       2.77816540
Si       9.93427487       5.40539404       3.11314114
Si      10.93438074       6.28511421       1.44593518
Si       1.71521173       2.59825500       4.44537137
Si       3.83577580       1.94781307       3.74991187
Si       8.81381667       6.93555614       2.14139468
Si       7.13879641       6.53744065       0.20162406
Si       5.51079606       2.34592856       5.68968249
16
Lattice="9.14708902937634 1.2261085500284556 -0.22072052246690682 2.3531070463477475 6.770940743156741 -0.46396823542852594 1.1664774649127085 0.888342461428258 6.583384984018694" Properties=species:S:1:pos:R:3 unique_starting_index=30 config_type=initial n_minim_iter=20 stress="0.004273387219045406 -0.0014851145407579818 -0.001198516721583842 -0.0014851145407579818 0.002374951506163704 -0.000975931138734354 -0.001198516721583842 -0.000975931138734354 0.003910175190970997" pbc="T T T"
Si       6.62211097       6.49023973       2.26756908
Si       6.04456257       2.39515203       3.63112714
Si       4.78358760       3.46758741       2.25621461
Si       7.88308594       5.41780435       3.64248162
Si       7.13262532       3.80171166       4.83655424
Si       5.53404823       5.08368009       1.06214199
Si       6.51148627       4.73346712      -0.78964897
Si       6.15518727       4.15192463       6.68834520
Si       2.70064026       3.44642111       2.74663011
Si       9.96603328       5.43897064       3.15206611
Si      10.94522101       6.28382464       1.45059234
Si       1.72145253       2.60156711       4.44810388
Si       3.84582716       1.95398234       3.75038770
Si       8.82084638       6.93140942       2.14830852
Si       7.14654710       6.54040959       0.20674832
Si       5.52012644       2.34498216       5.69194791
16
Lattice="9.15611268243645 1.232296217378894 -0.22532065527259065 2.3605810103926763 6.768187277331122 -0.4640410042964515 1.1646127131052486 0.8894525964637688 6.577679798407173" Properties=species:S:1:pos:R:3 unique_starting_index=30 config_type=initial n_minim_iter=21 stress="0.0013008374863516822 -0.00031905060937925135 -0.0007359734778437859 -0.00031905060937925135 0.0008847523932910428 -4.668389862587788e-05 -0.0007359734778437859 -4.668389862587788e-05 0.0018904242588246847" pbc="T T T"
Si       6.63596080       6.49009224       2.26014126
Si       6.04534561       2.39984385       3.62817688
Si       4.78479954       3.47161486       2.25067874
Si       7.89650686       5.41832123       3.63763940
Si       7.14134155       3.80287997       4.83014891
Si       5.53996485       5.08705612       1.05816922
Si       6.52354200       4.73329478      -0.78959141
Si       6.15776440       4.15664131       6.67790955
Si       2.70429736       3.45108183       2.74749377
Si       9.97700904       5.43885426       3.14082437
Si      10.95761322       6.29388769       1.44753441
Si       1.72369318       2.59604840       4.44078373
Si       3.85156915       1.95626340       3.74173806
Si       8.82973725       6.93367269       2.14658008
Si       7.15850046       6.54246431       0.19899440
Si       5.52280595       2.34747178       5.68932373
