16
Lattice="9.011991185630075 1.192160426784544 -0.5036071882420173 2.3022772250253127 6.7971160206070635 -0.48847054248291305 0.9321923560735003 0.9349827091063778 6.453640607913219" Properties=species:S:1:pos:R:3 unique_starting_index=30 config_type=initial n_minim_iter=1 energy=-2606.736474984615 free_energy=-2606.736474984615 pbc="T T T"
Si       6.42604989       6.54129656       2.09027354
Si       5.82041087       2.38296259       3.37128934
Si       4.50282230       3.49835985       2.07196129
Si       7.74363847       5.42589931       3.38960159
Si       6.81758061       3.87541105       4.53997770
Si       5.42888015       5.04884811       0.92158518
Si       6.48313549       4.70210768      -0.88559565
Si       5.76332528       4.22215148       6.34715852
Si       2.67086375       3.83334646       3.13546995
Si       9.57559702       5.09091270       2.32609293
Si      10.83590027       6.52948053       1.37045267
Si       1.41056050       2.39477863       4.09111021
Si       3.61133301       1.97579620       3.58583632
Si       8.63512776       6.94846295       1.87572656
Si       6.99640272       6.57604210       0.03925860
Si       5.25005805       2.34821706       5.42230428
16
Lattice="9.01265858607832 1.190741249888733 -0.5042956470172462 2.3014097437229313 6.7974521895650515 -0.48776262802653286 0.9315539439182499 0.9358614412333006 6.454518376803361" Properties=species:S:1:pos:R:3 unique_starting_index=30 config_type=initial n_minim_iter=2 stress="0.0006690635545303944 0.0005460771944730303 -0.0003410225909148009 0.0005460771944730303 0.0004060259582561042 -0.00024199989945064993 -0.0003410225909148009 -0.00024199989945064993 0.0013735542925369488" pbc="T T T"
Si       6.42537366       6.54130603       2.09093380
Si       5.82024862       2.38274885       3.37152630
Si       4.50247353       3.49833931       2.07234028
Si       7.74314874       5.42571557       3.39011982
Si       6.81717245       3.87540104       4.54052255
Si       5.42844982       5.04865384       0.92193755
Si       6.48303883       4.70144495      -0.88563355
Si       5.76258345       4.22260993       6.34809365
Si       2.67018783       3.83379496       3.13616844
Si       9.57543445       5.09025992       2.32629167
Si      10.83568147       6.52858575       1.37062605
Si       1.40994080       2.39546913       4.09183405
Si       3.61102630       1.97595533       3.58628088
Si       8.63459598       6.94809955       1.87617922
Si       6.99593280       6.57566377       0.03959152
Si       5.24968947       2.34839111       5.42286858
16
Lattice="9.011953589532201 1.1883852433680804 -0.5041466559274562 2.299578229840978 6.79696625727238 -0.48652152440213375 0.9311756488335913 0.936792802780795 6.453723358792362" Properties=species:S:1:pos:R:3 unique_starting_index=30 config_type=initial n_minim_iter=3 stress="5.4496767935212593e-05 -0.00022489489967962358 0.00014309110545236513 -0.00022489489967962358 -0.0003076369340218216 0.00019462130461215776 0.00014309110545236513 0.00019462130461215776 7.103095279687497e-06" pbc="T T T"
Si       6.42338763       6.54023885       2.09170798
Si       5.81931984       2.38190546       3.37134720
Si       4.50133056       3.49769276       2.07261874
Si       7.74137691       5.42445154       3.39043644
Si       6.81579382       3.87462224       4.54052526
Si       5.42691365       5.04752207       0.92252992
Si       6.48154247       4.69974406      -0.88477058
Si       5.76116500       4.22240024       6.34782576
Si       2.66904373       3.83375191       3.13630798
Si       9.57366374       5.08839239       2.32674720
Si      10.83349074       6.52612457       1.37145300
Si       1.40921673       2.39601973       4.09160218
Si       3.61030915       1.97576283       3.58608788
Si       8.63239832       6.94638147       1.87696730
Si       6.99389082       6.57407831       0.04067288
Si       5.24881665       2.34806599       5.42238230
16
Lattice="9.0109909113394 1.187035437683703 -0.5065453743780339 2.298018393836967 6.8002698298596815 -0.48632177585534847 0.9290048948364431 0.9378664811324924 6.452446756643557" Properties=species:S:1:pos:R:3 unique_starting_index=30 config_type=initial n_minim_iter=4 stress="0.00013543108926546577 7.973685432742794e-05 0.0006261106709725099 7.973685432742794e-05 0.001831311427294206 0.00013543113531914105 0.0006261106709725099 0.00013543113531914105 -0.0003783687781273172" pbc="T T T"
Si       6.42071591       6.54293316       2.09042458
Si       5.81729829       2.38223859       3.36915503
Si       4.49928971       3.49902683       2.07169171
Si       7.73872449       5.42614492       3.38788789
Si       6.81276319       3.87601306       4.53893692
Si       5.42525101       5.04915868       0.92064269
Si       6.48002880       4.70084851      -0.88586110
Si       5.75798540       4.22432324       6.34544070
Si       2.66734205       3.83551536       3.13515066
Si       9.57067215       5.08965639       2.32442895
Si      10.83066443       6.52704706       1.36890184
Si       1.40734977       2.39812469       4.09067776
Si       3.60842842       1.97684015       3.58484928
Si       8.62958578       6.94833160       1.87473033
Si       6.99151561       6.57633563       0.03946025
Si       5.24649859       2.34883612       5.42011936
16
Lattice="9.010254765039386 1.185595679062025 -0.5094861970389348 2.2969697578359334 6.79956659043909 -0.4868065953698032 0.9266468409124438 0.9379432117463858 6.452153087162775" Properties=species:S:1:pos:R:3 unique_starting_index=30 config_type=initial n_minim_iter=5 stress="-0.00019409603044177371 -9.949891738578633e-05 -0.00022246266957102654 -9.949891738578633e-05 0.0002891771259547274 -0.0001212551699904018 -0.00022246266957102654 -0.0001212551699904018 -5.877049922144872e-05" pbc="T T T"
Si       6.41846998       6.54181704       2.08867667
Si       5.81540138       2.38128845       3.36718362
Si       4.49754863       3.49834779       2.07054007
Si       7.73632273       5.42475769       3.38532023
Si       6.81000097       3.87509594       4.53727136
Si       5.42387039       5.04800954       0.91858894
Si       6.47903286       4.69956582      -0.88780932
Si       5.75483850       4.22353966       6.34366961
Si       2.66574514       3.83488245       3.13421897
Si       9.56812622       5.08822303       2.32164133
Si      10.82837347       6.52473343       1.36561825
Si       1.40549789       2.39837205       4.09024204
Si       3.60657572       1.97660876       3.58386040
Si       8.62729564       6.94649672       1.87199990
Si       6.98974871       6.57497280       0.03744966
Si       5.24412265       2.34813268       5.41841064
16
Lattice="9.012276188190262 1.1851454114282503 -0.5093772140811079 2.2973043156797024 6.7990034495522815 -0.4852109908844175 0.9267257828474572 0.939448235909566 6.452826140842923" Properties=species:S:1:pos:R:3 unique_starting_index=30 config_type=initial n_minim_iter=6 stress="-2.7797658910844867e-05 0.0005172105386332643 0.00015863652659099892 0.0005172105386332643 -5.252992079992108e-05 0.00076250566026128 0.00015863652659099892 0.00076250566026128 2.6773411412374413e-05" pbc="T T T"
Si       6.41948042       6.54199961       2.09031386
Si       5.81682587       2.38159749       3.36792408
Si       4.49819242       3.49892688       2.07156677
Si       7.73811387       5.42467021       3.38667116
Si       6.81121657       3.87589604       4.53886661
Si       5.42508972       5.04770105       0.91937132
Si       6.48049413       4.69911452      -0.88689372
Si       5.75581215       4.22448257       6.34513166
Si       2.66673969       3.83501568       3.13504270
Si       9.56956659       5.08858142       2.32319524
Si      10.83068810       6.52371681       1.36712322
Si       1.40561819       2.39988028       4.09111471
Si       3.60706180       1.97775368       3.58482708
Si       8.62924448       6.94584342       1.87341085
Si       6.99070811       6.57440964       0.03918503
Si       5.24559817       2.34918746       5.41905291
16
Lattice="9.01355500020323 1.1833501206719172 -0.5098869969108784 2.2962441161377307 6.798999430920754 -0.48630250407164277 0.926448837675445 0.9383567940351196 6.452785277532458" Properties=species:S:1:pos:R:3 unique_starting_index=30 config_type=initial n_minim_iter=7 stress="0.0005850476731715783 -0.0001694542100781847 0.00029390889518394054 -0.0001694542100781847 -6.179770035865751e-05 -0.00017335364552221964 0.00029390889518394054 -0.00017335364552221964 -4.101847838695675e-05" pbc="T T T"
Si       6.41887969       6.54084317       2.08909947
Si       5.81736826       2.37986317       3.36749631
Si       4.49799269       3.49818276       2.07093058
Si       7.73825527       5.42252358       3.38566520
Si       6.81126088       3.87404469       4.53838350
Si       5.42498708       5.04666166       0.91821228
Si       6.48071249       4.69831414      -0.88792702
Si       5.75553546       4.22239221       6.34452280
Si       2.66657981       3.83405387       3.13423823
Si       9.56966814       5.08665247       2.32235755
Si      10.83112190       6.52112606       1.36574083
Si       1.40512605       2.39958028       4.09085495
Si       3.60700067       1.97682421       3.58471664
Si       8.62924728       6.94388214       1.87187914
Si       6.99013663       6.57328754       0.03815728
Si       5.24611132       2.34741881       5.41843849
16
Lattice="9.008539024714098 1.1829990451963943 -0.5132874605776884 2.294558010756942 6.800980253561963 -0.48741501386187785 0.9234356320605439 0.9383281499867576 6.4523093970560454" Properties=species:S:1:pos:R:3 unique_starting_index=30 config_type=initial n_minim_iter=8 stress="-0.00032294693642469615 -9.37968568569719e-05 -2.3375561687221944e-05 -9.37968568569719e-05 0.00013373372702294125 -1.0573113419089774e-05 -2.3375561687221944e-05 -1.0573113419089774e-05 -2.7083348943935017e-05" pbc="T T T"
Si       6.41352863       6.54249322       2.08635950
Si       5.81300403       2.37981423       3.36524742
Si       4.49437682       3.49951999       2.06896629
Si       7.73215584       5.42278746       3.38264063
Si       6.80517509       3.87451695       4.53589042
Si       5.42135758       5.04779050       0.91571650
Si       6.47730722       4.69982558      -0.89074689
Si       5.74922545       4.22248187       6.34235382
Si       2.66389472       3.83483205       3.13259665
Si       9.56263795       5.08747540       2.31901027
Si      10.82415321       6.52124744       1.36121441
Si       1.40237946       2.40106001       4.09039252
Si       3.60334801       1.97735899       3.58383250
Si       8.62318466       6.94494845       1.86777443
Si       6.98491032       6.57481371       0.03568651
Si       5.24162235       2.34749374       5.41592041
16
Lattice="9.009243692896892 1.18379821828541 -0.5156270036133059 2.295333213831108 6.801667647887534 -0.48819261195002006 0.9218834320798976 0.9382635294352772 6.451572751528346" Properties=species:S:1:pos:R:3 unique_starting_index=30 config_type=initial n_minim_iter=9 stress="0.0003534039306002708 9.306571285726413e-05 -0.0003226426269944425 9.306571285726413e-05 -7.286125232418243e-05 2.363283961468985e-05 -0.0003226426269944425 2.363283961468985e-05 -0.0004890157519449366" pbc="T T T"
Si       6.41337571       6.54366982       2.08465788
Si       5.81308463       2.38005958       3.36309526
Si       4.49486087       3.50086644       2.06715453
Si       7.73159947       5.42286295       3.38059860
Si       6.80442830       3.87559194       4.53431530
Si       5.42203204       5.04813745       0.91343784
Si       6.47842539       4.70121171      -0.89267737
Si       5.74803495       4.22251769       6.34043051
Si       2.66355054       3.83531522       3.13122464
Si       9.56290980       5.08841417       2.31652850
Si      10.82519156       6.52136970       1.35760618
Si       1.40126878       2.40235970       4.09014695
Si       3.60274432       1.97788265       3.58339820
Si       8.62371602       6.94584674       1.86435494
Si       6.98496252       6.57605285       0.03396781
Si       5.24149782       2.34767655       5.41378532
16
Lattice="9.006477197228618 1.1832529091843278 -0.5147494516132153 2.294179166635266 6.801500278105301 -0.48838198035274233 0.9223413767015981 0.937908433172793 6.453814611218096" Properties=species:S:1:pos:R:3 unique_starting_index=30 config_type=initial n_minim_iter=10 stress="-0.00026822837589355697 -6.721392593716125e-05 6.16109068841683e-05 -6.721392593716125e-05 -0.00016480603628635856 -2.9283400779217255e-05 6.16109068841683e-05 -2.9283400779217255e-05 0.00012259167800308973" pbc="T T T"
Si       6.41113214       6.54322750       2.08610786
Si       5.81186560       2.37943412       3.36457532
Si       4.49384629       3.50078031       2.06816765
Si       7.72915145       5.42188131       3.38251553
Si       6.80261882       3.87510767       4.53680166
Si       5.42037892       5.04755395       0.91388152
Si       6.47619787       4.70102007      -0.89247754
Si       5.74679988       4.22164155       6.34316072
Si       2.66297774       3.83495131       3.13236736
Si       9.56002000       5.08771031       2.31831582
Si      10.82187717       6.52008422       1.35873249
Si       1.40112057       2.40257740       4.09195069
Si       3.60205058       1.97757545       3.58537368
Si       8.62094716       6.94508617       1.86530950
Si       6.98212772       6.57577183       0.03466079
Si       5.24087002       2.34688979       5.41602238
16
Lattice="9.002038804510077 1.1813090431356832 -0.5145628490677835 2.2917242166905747 6.800232233545097 -0.4886072678982018 0.922101405085083 0.9375777547297361 6.458170798638549" Properties=species:S:1:pos:R:3 unique_starting_index=30 config_type=initial n_minim_iter=11 stress="-0.0001969379084502235 -8.635251918159389e-08 -0.00021588929761033203 -8.635251918159389e-08 -4.225877374876073e-05 1.9155829019182623e-05 -0.00021588929761033203 1.9155829019182623e-05 -0.00013918386886703076" pbc="T T T"
Si       6.40558509       6.54085752       2.08935372
Si       5.81027934       2.37826152       3.36564696
Si       4.49415270       3.50023528       2.07069966
Si       7.72171172       5.41888375       3.38430102
Si       6.79730445       3.87330100       4.54189811
Si       5.41855997       5.04581803       0.91310258
Si       6.47306301       4.70032612      -0.89424193
Si       5.74280142       4.21879291       6.34924261
Si       2.66228455       3.83334286       3.13509465
Si       9.55357987       5.08577617       2.31990603
Si      10.81611269       6.51342676       1.35554774
Si       1.39975173       2.40569227       4.09945295
Si       3.60117031       1.97738015       3.59169033
Si       8.61469412       6.94173888       1.86331035
Si       6.97373492       6.57640373       0.03773569
Si       5.24212951       2.34271531       5.41726499
16
Lattice="9.00500801779365 1.179427084051767 -0.5087012481179105 2.291705646732678 6.794002142625302 -0.4861757272090475 0.9266313015230888 0.937816659483251 6.4626807718392865" Properties=species:S:1:pos:R:3 unique_starting_index=30 config_type=initial n_minim_iter=12 stress="-1.8149600580247223e-06 2.8439895463266525e-05 -3.920512468042768e-05 2.8439895463266525e-05 -0.00013422571984246542 -2.2132240919204912e-05 -3.920512468042768e-05 -2.2132240919204912e-05 -6.787123305650712e-05" pbc="T T T"
Si       6.40717065       6.53481737       2.09731555
Si       5.81617431       2.37642852       3.37048824
Si       4.49793553       3.49704651       2.07701549
Si       7.72540944       5.41419938       3.39078831
Si       6.80123278       3.86981251       4.55068462
Si       5.42211219       5.04143337       0.91711918
Si       6.47544965       4.69650099      -0.89094986
Si       5.74789532       4.21474490       6.35875366
Si       2.66550116       3.83134938       3.13862343
Si       9.55784381       5.07989651       2.32918036
Si      10.82138647       6.50383443       1.36106766
Si       1.40195850       2.40741145       4.10673614
Si       3.60594523       1.97592188       3.59923248
Si       8.61739974       6.93532401       1.86857131
Si       6.97300844       6.57166654       0.04481435
Si       5.25033652       2.33957935       5.42298945
16
Lattice="9.004572398280624 1.1802502891495883 -0.5072060506697272 2.2920261336322643 6.795007119759966 -0.48573058797587315 0.9277146361861931 0.9380603264798552 6.4627610412751" Properties=species:S:1:pos:R:3 unique_starting_index=30 config_type=initial n_minim_iter=13 stress="-4.744452363417065e-05 6.914126188159126e-05 2.094902571487306e-05 6.914126188159126e-05 -1.0244202653973806e-05 -5.164255331109011e-05 2.094902571487306e-05 -5.164255331109011e-05 -2.3148460863738445e-07" pbc="T T T"
Si       6.40718868       6.53625248       2.09852706
Si       5.81712449       2.37706525       3.37129735
Si       4.49829882       3.49769036       2.07794548
Si       7.72601435       5.41562738       3.39187892
Si       6.80197657       3.87118456       4.55191081
Si       5.42233659       5.04213318       0.91791360
Si       6.47554889       4.69733158      -0.89060599
Si       5.74876428       4.21598616       6.36043039
Si       2.66597655       3.83203174       3.13892278
Si       9.55833661       5.08128600       2.33090162
Si      10.82169884       6.50469235       1.36184849
Si       1.40261433       2.40862539       4.10797591
Si       3.60666681       1.97681882       3.60025652
Si       8.61764636       6.93649892       1.86956788
Si       6.97261924       6.57309872       0.04615148
Si       5.25169393       2.34021901       5.42367292
16
Lattice="9.005028678976164 1.1794484169023904 -0.5056321477089312 2.2912928439798725 6.79667604452309 -0.4846385355502298 0.9286491092441986 0.9388410732704532 6.461806387780287" Properties=species:S:1:pos:R:3 unique_starting_index=30 config_type=initial n_minim_iter=14 stress="0.00013277955865642656 -4.854767478424652e-05 9.71721409094252e-05 -4.854767478424652e-05 0.00011865317842857297 -1.742754276121976e-05 9.71721409094252e-05 -1.742754276121976e-05 0.00025668647997743654" pbc="T T T"
Si       6.40570595       6.53768049       2.09994622
Si       5.81926469       2.37728504       3.37158949
Si       4.49856295       3.49768136       2.07874767
Si       7.72640768       5.41728418       3.39278804
Si       6.80225104       3.87218678       4.55268238
Si       5.42271960       5.04277876       0.91885332
Si       6.47563495       4.69800430      -0.88973565
Si       5.74933569       4.21696123       6.36127135
Si       2.66523047       3.83257065       3.13918085
Si       9.55974016       5.08239488       2.33235485
Si      10.82206496       6.50375219       1.36111180
Si       1.40290568       2.41121334       4.11042391
Si       3.60734746       1.97877580       3.60105320
Si       8.61762317       6.93618973       1.87048250
Si       6.97129736       6.57353048       0.04732408
Si       5.25367327       2.34143505       5.42421163
16
Lattice="9.003792903466575 1.1779183066644 -0.5054316032702804 2.289784934565258 6.797670270981082 -0.48277318139940617 0.9282101860286448 0.9406113457297901 6.46070084753842" Properties=species:S:1:pos:R:3 unique_starting_index=30 config_type=initial n_minim_iter=15 stress="0.00015769483369695498 -3.155364616451508e-05 1.000152031070851e-05 -3.155364616451508e-05 0.000212638806884981 -4.579911128945791e-06 1.000152031070851e-05 -4.579911128945791e-06 0.00025019532138222193" pbc="T T T"
Si       6.40262689       6.53852438       2.10129130
Si       5.81916113       2.37767554       3.37120477
Si       4.49765995       3.49767789       2.07948271
Si       7.72412807       5.41852204       3.39301336
Si       6.80037281       3.87368679       4.55250160
Si       5.42141522       5.04251313       0.91999447
Si       6.47408779       4.69770042      -0.88872611
Si       5.74770023       4.21849950       6.36122218
Si       2.66441503       3.83399983       3.13907259
Si       9.55737299       5.08220009       2.33342347
Si      10.82022819       6.50241637       1.35893619
Si       1.40155983       2.41378355       4.11355987
Si       3.60696318       1.98071564       3.60155076
Si       8.61482484       6.93548428       1.87094530
Si       6.96839410       6.57318233       0.04848497
Si       5.25339392       2.34301759       5.42401109
16
Lattice="9.00336203864522 1.1774848533119862 -0.5040146985775287 2.289522023131026 6.796380077185974 -0.4813378450923265 0.9291185312620556 0.9415994633695625 6.4627395805591" Properties=species:S:1:pos:R:3 unique_starting_index=30 config_type=initial n_minim_iter=16 stress="1.8682169168418045e-05 -1.674645448203656e-05 -5.222882536995215e-06 -1.674645448203656e-05 1.3189017715100146e-05 9.911719947935597e-06 -5.222882536995215e-06 9.911719947935597e-06 -1.0898890234671899e-05" pbc="T T T"
Si       6.40182066       6.53775224       2.10356811
Si       5.82018194       2.37771215       3.37381893
Si       4.49805687       3.49663568       2.08172378
Si       7.72394572       5.41882871       3.39566326
Si       6.80038116       3.87401742       4.55543241
Si       5.42162143       5.04144697       0.92195463
Si       6.47351885       4.69647164      -0.88713874
Si       5.74848374       4.21899275       6.36452577
Si       2.66453492       3.83429167       3.14070105
Si       9.55746768       5.08117273       2.33668599
Si      10.82017733       6.49984758       1.35951971
Si       1.40182526       2.41561682       4.11786732
Si       3.60770914       1.98144244       3.60426190
Si       8.61429346       6.93402195       1.87312514
Si       6.96744541       6.57184240       0.05094867
Si       5.25455719       2.34362199       5.42643836
16
Lattice="9.002083334727024 1.1776202383875005 -0.5024268149524799 2.2894837376843684 6.795204117878428 -0.47924816689614524 0.9300503309463626 0.9432737552580501 6.465144590202735" Properties=species:S:1:pos:R:3 unique_starting_index=30 config_type=initial n_minim_iter=17 stress="-0.00017671655607636184 4.691743757200871e-05 -1.2416686669379255e-05 4.691743757200871e-05 -0.0002571965463619915 -1.3739512086499547e-05 -1.2416686669379255e-05 -1.3739512086499547e-05 -0.00029005053040790735" pbc="T T T"
Si       6.40014733       6.53794484       2.10587596
Si       5.82147008       2.37815327       3.37759365
Si       4.49876896       3.49473359       2.08422154
Si       7.72284844       5.42136452       3.39924807
Si       6.79977376       3.87586647       4.55858238
Si       5.42184364       5.04023164       0.92488723
Si       6.47264512       4.69552711      -0.88486539
Si       5.74897229       4.22057100       6.36833500
Si       2.66530976       3.83539837       3.14251569
Si       9.55630764       5.08069974       2.34095392
Si      10.81859243       6.49490616       1.35724619
Si       1.40302497       2.42119195       4.12622342
Si       3.60828283       1.98267995       3.60855741
Si       8.61333458       6.93341816       1.87491220
Si       6.96658543       6.57075185       0.05366431
Si       5.25503197       2.34534626       5.42980529
16
Lattice="8.999820687364661 1.1777002776360719 -0.506760917524304 2.2887486866749502 6.798203032525515 -0.4802429141246638 0.9265511261576892 0.9436764338239829 6.4630603911143725" Properties=species:S:1:pos:R:3 unique_starting_index=30 config_type=initial n_minim_iter=18 stress="-5.884890986469506e-05 -0.00010721641917001125 2.0719758489522003e-05 -0.00010721641917001125 -0.00016822976369963466 -1.0223403209551215e-05 2.0719758489522003e-05 -1.0223403209551215e-05 4.234304262232853e-05" pbc="T T T"
Si       6.39730886       6.54176956       2.10072755
Si       5.81781164       2.37781018       3.37532901
Si       4.49675837       3.49414529       2.08009293
Si       7.71836213       5.42543445       3.39596363
Si       6.79557265       3.87856118       4.55367180
Si       5.41954785       5.04101856       0.92238476
Si       6.47150340       4.69763262      -0.88705690
Si       5.74361710       4.22194712       6.36311346
Si       2.66467441       3.83709434       3.13974781
Si       9.55044609       5.08248540       2.33630875
Si      10.81187245       6.49205344       1.34709923
Si       1.40324805       2.42752631       4.12895733
Si       3.60433232       1.98285167       3.60667988
Si       8.61078818       6.93672807       1.86937668
Si       6.96656626       6.57298336       0.04909515
Si       5.24855424       2.34659638       5.42696141
16
Lattice="8.99686835324954 1.1751631866704628 -0.5055573217537582 2.286090187935209 6.799166428969279 -0.47662884691173 0.9265429362034682 0.9470677752274748 6.465693237088668" Properties=species:S:1:pos:R:3 unique_starting_index=30 config_type=initial n_minim_iter=19 stress="0.00017300713829309345 8.525844219286246e-05 1.5002264245215305e-05 8.525844219286246e-05 0.0004832950242312096 -2.5311677042116247e-05 1.5002264245215305e-05 -2.5311677042116247e-05 -6.2183036802154225e-06" pbc="T T T"
Si       6.39005416       6.54326493       2.10487411
Si       5.81944732       2.37813246       3.37863296
Si       4.49636582       3.49264982       2.08314696
Si       7.71313566       5.42874757       3.40036011
Si       6.79052811       3.88186620       4.55865229
Si       5.41897337       5.03953119       0.92485478
Si       6.46948936       4.69714453      -0.88550127
Si       5.74001212       4.22425286       6.36900833
Si       2.66377788       3.84013518       3.14041364
Si       9.54572360       5.08126221       2.34309343
Si      10.80593394       6.48088670       1.33740822
Si       1.40356754       2.44051069       4.14609884
Si       3.60295216       1.98689920       3.61230873
Si       8.60654931       6.93449819       1.87119833
Si       6.96082117       6.57408928       0.05361001
Si       5.24868030       2.34730811       5.42989705
16
Lattice="8.990134149475411 1.171010353001348 -0.5061985263312521 2.281462526649203 6.800223620997069 -0.4707234775228762 0.9246300805348504 0.9535097616704782 6.475104833763024" Properties=species:S:1:pos:R:3 unique_starting_index=30 config_type=initial n_minim_iter=20 stress="0.0007453412949491899 0.00017972695102253262 -8.189210374205524e-05 0.00017972695102253262 0.0015384334071515758 -0.00020126425866428063 -8.189210374205524e-05 -0.00020126425866428063 0.0003278522189944653" pbc="T T T"
Si       6.37660180       6.54731860       2.10979140
Si       5.81962496       2.37742514       3.38839143
Si       4.49610331       3.48562455       2.08834658
Si       7.70012344       5.43911918       3.40983625
Si       6.77877979       3.89155303       4.56929143
Si       5.41744697       5.03319071       0.92889140
Si       6.46705295       4.69739867      -0.88334471
Si       5.72917380       4.22734506       6.38152754
Si       2.66250838       3.84664938       3.14039585
Si       9.53371838       5.07809436       2.35778698
Si      10.78718931       6.44624545       1.30199088
Si       1.40903745       2.47849829       4.19619195
Si       3.59831440       1.99428996       3.62456161
Si       8.59791235       6.93045377       1.87362122
Si       6.95211638       6.57381153       0.06043689
Si       5.24411038       2.35093221       5.43774594
16
Lattice="8.987005874124524 1.169877438578311 -0.5075825822741339 2.27999330419637 6.800758242449338 -0.46749998887159666 0.9230368488110096 0.9574444214842824 6.481538746838894" Properties=species:S:1:pos:R:3 unique_starting_index=30 config_type=initial n_minim_iter=21 stress="0.0015436255120677416 0.0002817514498467523 -0.0002863422472973581 0.0002817514498467523 0.0026016181157950172 -0.00041323747287304384 -0.0002863422472973581 -0.00041323747287304384 0.0010105767125753366" pbc="T T T"
Si       6.36989046       6.55010213       2.11160959
Si       5.82014557       2.37797798       3.39484658
Si       4.49683414       3.48134316       2.09060429
Si       7.69320189       5.44673695       3.41585189
Si       6.77194441       3.89883040       4.57532520
Si       5.41809162       5.02924970       0.93113098
Si       6.46721052       4.69807824      -0.88227996
Si       5.72282551       4.23000186       6.38873614
Si       2.66256015       3.85108537       3.13904094
Si       9.52747587       5.07699473       2.36741523
Si      10.77513600       6.42166570       1.27463521
Si       1.41490003       2.50641440       4.23182097
Si       3.59533719       1.99892229       3.63117050
Si       8.59469884       6.92915781       1.87528568
Si       6.94973730       6.57431419       0.06369975
Si       5.24029872       2.35376592       5.44275642
