14
Lattice="7.979547040059081 -0.06504871564314385 2.257719238075025 -0.1705943204969516 8.421258603118398 0.1842294968908273 -1.9035737455012909 0.03608169359450226 6.196699097984161" Properties=species:S:1:pos:R:3 unique_starting_index=20 config_type=initial n_minim_iter=1 energy=-2284.79599292557 free_energy=-2284.79599292557 pbc="T T T"
Si       3.30759840       5.33883299       7.39978073
Si       5.04149406       3.08990277       1.94541214
Si       2.59778057       3.05345859       1.23886711
Si       0.86388491       5.30238881       6.69323570
Si       6.00404224       4.84746052       5.46850850
Si       6.02077481       2.97028340       4.50430067
Si      -0.09866326       3.54483106       3.17013934
Si      -0.11539583       5.42200818       4.13434717
Si       1.43848224       4.62908283       2.15152221
Si       0.41227269       3.73043840       5.32051014
Si       4.46689673       3.76320875       6.48712562
Si       5.49310629       4.66185318       3.31813770
Si       3.57675687       4.57596678       2.33037560
Si       2.32862211       3.81632480       6.30827223
14
Lattice="7.988385268552104 -0.06878937296301928 2.2559552409079076 -0.1765417661977961 8.428651294095735 0.1906984293488125 -1.9095432574624231 0.041901941977004475 6.205611832668384" Properties=species:S:1:pos:R:3 unique_starting_index=20 config_type=initial n_minim_iter=2 stress="0.006084347457967176 -9.950970600057826e-05 0.0024136604787330677 -9.950970600057826e-05 0.003994393944389783 -0.0030485551366865498 0.0024136604787330677 -0.0030485551366865498 0.002036851731742193" pbc="T T T"
Si       3.30434739       5.34687315       7.41122679
Si       5.04485472       3.09059884       1.94728245
Si       2.59795286       3.05489072       1.24103871
Si       0.85744552       5.31116502       6.70498305
Si       6.00500352       4.85151446       5.47562343
Si       6.02384813       2.97188571       4.50881165
Si      -0.10270327       3.55024940       3.17664207
Si      -0.12154788       5.42987816       4.14345386
Si       1.43578976       4.63325215       2.15727072
Si       0.40786070       3.73730663       5.32985075
Si       4.46651049       3.76851171       6.49499479
Si       5.49443954       4.66445723       3.32241475
Si       3.57693852       4.57927226       2.33506723
Si       2.32536172       3.82249160       6.31719827
14
Lattice="7.977121334412227 -0.0703094823196331 2.2435321840615985 -0.18367122464255967 8.424342977256096 0.20993963237420546 -1.918726412421442 0.057286437185167655 6.2138870399380375" Properties=species:S:1:pos:R:3 unique_starting_index=20 config_type=initial n_minim_iter=3 stress="0.00012387515614287572 -8.407212170175806e-05 -0.0029107050873700595 -8.407212170175806e-05 0.00487900698384029 0.005523502966645441 -0.0029107050873700595 0.005523502966645441 -0.004583765809122734" pbc="T T T"
Si       3.28497921       5.35838658       7.42356007
Si       5.03427775       3.08982904       1.94684219
Si       2.58974449       3.05293336       1.24379879
Si       0.84044594       5.32149089       6.72051666
Si       5.98502769       4.85580272       5.48059385
Si       6.00802695       2.97482288       4.50872612
Si      -0.11030399       3.55551721       3.18676501
Si      -0.13330326       5.43649705       4.15863273
Si       1.42653056       4.63280180       2.16826469
Si       0.39707608       3.74730168       5.34222230
Si       4.44819314       3.77851813       6.49909416
Si       5.47764762       4.66401826       3.32513656
Si       3.56624561       4.57894842       2.34176795
Si       2.30847808       3.83237152       6.32559091
14
Lattice="7.970497067636666 -0.07696517609379257 2.2450284536158676 -0.19093705735491429 8.405024517418864 0.21085994775221062 -1.9212243131031248 0.059068704053820316 6.232352406786847" Properties=species:S:1:pos:R:3 unique_starting_index=20 config_type=initial n_minim_iter=4 stress="-0.0027228981397205477 -0.0021150710460026215 -0.001379726888925682 -0.0021150710460026215 -0.00012566557936936142 -0.0012445621297893698 -0.001379726888925682 -0.0012445621297893698 0.002659183134130283" pbc="T T T"
Si       3.27516512       5.34423299       7.44282148
Si       5.02713132       3.07985062       1.94995642
Si       2.58317057       3.04289505       1.24541933
Si       0.83120437       5.30727743       6.73828438
Si       5.97241440       4.83938102       5.49265845
Si       5.99883599       2.96213936       4.51855226
Si      -0.11407870       3.54774702       3.19558236
Si      -0.14050030       5.42498869       4.16968855
Si       1.42027834       4.61884210       2.17556529
Si       0.39338474       3.73926824       5.35790557
Si       4.43805736       3.76828594       6.51267552
Si       5.46495095       4.64785980       3.33033524
Si       3.55939563       4.56475439       2.34770514
Si       2.29894007       3.82237366       6.34053567
14
Lattice="7.9887817090129305 -0.06789014315519125 2.251740275901154 -0.18364949049531654 8.392746793538352 0.21776529093367344 -1.9206883023058516 0.06243128264573726 6.233705112821115" Properties=species:S:1:pos:R:3 unique_starting_index=20 config_type=initial n_minim_iter=5 stress="0.007102154395863347 0.00511840530315912 0.000701755058090415 0.00511840530315912 0.0010828352041811617 0.0013871055701437378 0.000701755058090415 0.0013871055701437378 0.005816897001505049" pbc="T T T"
Si       3.29359983       5.34605662       7.45349324
Si       5.04145799       3.08349888       1.95609923
Si       2.59084409       3.04123131       1.24971744
Si       0.84298592       5.30378905       6.74711145
Si       5.99227588       4.84252655       5.50258140
Si       6.01725516       2.96547890       4.52842714
Si      -0.10783196       3.54476139       3.20062928
Si      -0.13281124       5.42180904       4.17478354
Si       1.43038361       4.61264597       2.18316399
Si       0.40498866       3.73913048       5.36393126
Si       4.45406031       3.77464197       6.52004669
Si       5.47945526       4.64815746       3.33927942
Si       3.57312059       4.56294580       2.35485390
Si       2.31132333       3.82434213       6.34835678
14
Lattice="8.005693521949492 -0.08336042684312693 2.2568832935745062 -0.20090023232710677 8.382091135058378 0.2198661481468567 -1.9190920525663224 0.06799173943029363 6.2278332607140285" Properties=species:S:1:pos:R:3 unique_starting_index=20 config_type=initial n_minim_iter=6 stress="0.005058743662110381 -0.0022866345307250915 0.002236460111059811 -0.0022866345307250915 -0.002271923688277339 4.0661147167022515e-05 0.002236460111059811 4.0661147167022515e-05 -0.00315876581570332" pbc="T T T"
Si       3.29651651       5.33444985       7.45360974
Si       5.04600690       3.07264358       1.95768283
Si       2.58918473       3.03227260       1.25097296
Si       0.83969434       5.29407886       6.74689987
Si       5.99711981       4.82653668       5.50354521
Si       6.02642945       2.94788253       4.53352561
Si      -0.11141858       3.54018577       3.20103749
Si      -0.14072822       5.41883992       4.17105709
Si       1.42865207       4.59996990       2.18712274
Si       0.40891773       3.73542680       5.36195450
Si       4.45704917       3.76675255       6.51745996
Si       5.47678350       4.63129565       3.34262821
Si       3.57239219       4.54994075       2.35605917
Si       2.31330905       3.81678170       6.34852353
14
Lattice="7.998197925715463 -0.0852840051414822 2.257718702279107 -0.20327657542352967 8.388462353641266 0.22190813982021687 -1.9220287911705867 0.06958346565626711 6.246840572810967" Properties=species:S:1:pos:R:3 unique_starting_index=20 config_type=initial n_minim_iter=7 stress="0.0035398419820328775 0.0013795686534714235 -0.002113428896881515 0.0013795686534714235 0.006541526154552887 -0.001768673429245211 -0.002113428896881515 -0.001768673429245211 0.001475854395629628" pbc="T T T"
Si       3.28888664       5.33867293       7.47421931
Si       5.03986571       3.07646090       1.95732271
Si       2.58400592       3.03408888       1.25224810
Si       0.83302684       5.29630091       6.76914470
Si       5.98801133       4.83164286       5.51301284
Si       6.01869245       2.94616128       4.54570892
Si      -0.11511877       3.54111895       3.21345458
Si      -0.14579989       5.42660053       4.18075849
Si       1.43033172       4.59843120       2.19607394
Si       0.41124436       3.73950790       5.37630988
Si       4.44256084       3.77433061       6.53039348
Si       5.46164820       4.63325391       3.35015753
Si       3.56637931       4.55165898       2.35945112
Si       2.30651325       3.82110284       6.36701629
14
Lattice="7.999702597237048 -0.09191738759321406 2.275499389751517 -0.21591215641649933 8.364794326387493 0.24247945223414621 -1.9148502398962466 0.08712729603074328 6.269402097887234" Properties=species:S:1:pos:R:3 unique_starting_index=20 config_type=initial n_minim_iter=8 stress="-0.004055779557705562 -0.0009332492258571192 0.007817914344684217 -0.0009332492258571192 0.006798263296322133 0.0038535884576966746 0.007817914344684217 0.0038535884576966746 0.006157566198996517" pbc="T T T"
Si       3.28904819       5.33554318       7.52145947
Si       5.03702888       3.06563849       1.97548805
Si       2.57989201       3.02446105       1.26592147
Si       0.83191132       5.29436575       6.81189289
Si       5.98737553       4.82354764       5.54927215
Si       6.01910264       2.93815972       4.58041462
Si      -0.11843533       3.53645659       3.23810879
Si      -0.15016244       5.42184452       4.20696632
Si       1.43094815       4.58300322       2.22047484
Si       0.41800671       3.74235285       5.40292424
Si       4.43799205       3.77700101       6.56690610
Si       5.45093349       4.61765138       3.38445670
Si       3.56158175       4.53707566       2.38226178
Si       2.30735845       3.82292858       6.40511916
14
Lattice="8.00993227511698 -0.0980913807658435 2.271856026574836 -0.22565082264124559 8.33357491649795 0.25190056595819976 -1.9245412794154397 0.09558598426639273 6.285173674900975" Properties=species:S:1:pos:R:3 unique_starting_index=20 config_type=initial n_minim_iter=9 stress="0.0010807525757681135 0.00031028527854358743 3.6161122075395265e-05 0.00031028527854358743 -0.00338271687435276 -1.0804533647412308e-06 3.6161122075395265e-05 -1.0804533647412308e-06 0.002587962023701851" pbc="T T T"
Si       3.28090843       5.31953464       7.54085844
Si       5.03987579       3.05145306       1.97549424
Si       2.57883174       3.01153488       1.26807183
Si       0.81986439       5.27961646       6.83343603
Si       5.98730571       4.80621278       5.55646707
Si       6.02115269       2.92482247       4.58967752
Si      -0.12756554       3.52485674       3.25246320
Si      -0.16141251       5.40624705       4.21925275
Si       1.43027132       4.56224992       2.23120103
Si       0.41433027       3.73526724       5.41447178
Si       4.42946885       3.76881960       6.57772923
Si       5.44540991       4.59580228       3.39445849
Si       3.55949765       4.51691442       2.38728655
Si       2.30024252       3.81415510       6.42164372
14
Lattice="8.021832784471918 -0.11391831042201286 2.2666409796610005 -0.24093393142083067 8.349279020791807 0.2460097648168547 -1.9258782329291189 0.09518120881011034 6.265286931672301" Properties=species:S:1:pos:R:3 unique_starting_index=20 config_type=initial n_minim_iter=10 stress="-0.0001875468291231234 0.00030997496134399776 -0.0009731776098118767 0.00030997496134399776 -0.0003552823030467902 -0.000159298737394707 -0.0009731776098118767 -0.000159298737394707 -0.00022634391764832714" pbc="T T T"
Si       3.27838004       5.32287365       7.52021125
Si       5.04249962       3.04844525       1.96776800
Si       2.57664058       3.00766827       1.25772643
Si       0.81252100       5.28209667       6.81016967
Si       5.99410654       4.80546368       5.52908708
Si       6.02811582       2.91625717       4.58213781
Si      -0.13908592       3.52507824       3.24885060
Si      -0.17309520       5.41428475       4.19579986
Si       1.42811463       4.55852902       2.22739224
Si       0.41922386       3.74481820       5.38710805
Si       4.42690599       3.77201290       6.55054544
Si       5.43579676       4.58572372       3.39082962
Si       3.56145702       4.51400815       2.37916233
Si       2.29356360       3.81653377       6.39877535
14
Lattice="8.02208643162536 -0.12572429631323326 2.2700937012488573 -0.2505335599687352 8.38280856450763 0.23713058435920462 -1.9168074198690375 0.09164997113082392 6.242199906333075" Properties=species:S:1:pos:R:3 unique_starting_index=20 config_type=initial n_minim_iter=11 stress="-0.004338492422092102 -0.0008803540946592681 -0.0011291504363600995 -0.0008803540946592681 0.00018567654324470032 0.0006936741110573826 -0.0011291504363600995 0.0006936741110573826 -0.0033362922913991256" pbc="T T T"
Si       3.28371605       5.33874119       7.49727064
Si       5.03863478       3.05330765       1.96277185
Si       2.57102940       3.00999305       1.25215355
Si       0.81611068       5.29542659       6.78665235
Si       5.99669478       4.81619056       5.50627252
Si       6.03073821       2.91476054       4.58077454
Si      -0.14194932       3.53254368       3.24315167
Si      -0.17599275       5.43397370       4.16864966
Si       1.42354887       4.56128903       2.22569009
Si       0.42752733       3.76165682       5.35399361
Si       4.43119658       3.78744521       6.52373410
Si       5.42721812       4.58707741       3.39543058
Si       3.55573895       4.51660135       2.37250325
Si       2.29900650       3.83213289       6.37692095
14
Lattice="8.025524998706077 -0.12381702807907334 2.269835387210134 -0.24938525729520636 8.40157324474391 0.24044591824495545 -1.9206330723313818 0.09361409217535055 6.252199951526103" Properties=species:S:1:pos:R:3 unique_starting_index=20 config_type=initial n_minim_iter=12 stress="0.0009214987678667049 0.00038766249994022446 -0.0011400485367994554 0.00038766249994022446 0.00011212548300822906 0.0007553889268503868 -0.0011400485367994554 0.0007553889268503868 -0.00037641028998984635" pbc="T T T"
Si       3.27994818       5.35576299       7.51451579
Si       5.04109806       3.06193050       1.96270963
Si       2.57555849       3.01560732       1.24796546
Si       0.81440861       5.30943981       6.79977163
Si       6.00059457       4.83364317       5.50765797
Si       6.02901827       2.91911970       4.59195881
Si      -0.14508790       3.53772713       3.25482329
Si      -0.17351160       5.45225061       4.17052244
Si       1.42051792       4.56309477       2.23420922
Si       0.42620256       3.78237634       5.35914984
Si       4.43498875       3.80827554       6.52827204
Si       5.42930411       4.58899397       3.40333142
Si       3.55686766       4.51720035       2.37223757
Si       2.29863901       3.85416996       6.39024368
14
Lattice="8.01919335995692 -0.11339391364304313 2.2835069920258158 -0.23534468113832735 8.430785916510915 0.23213549850125692 -1.9113150198894597 0.08442401892828003 6.262031114552098" Properties=species:S:1:pos:R:3 unique_starting_index=20 config_type=initial n_minim_iter=13 stress="0.011295221254087804 0.001757367154267771 0.0036290517930610195 0.001757367154267771 0.0033417284146095745 -0.0015147192506516224 0.0036290517930610195 -0.0015147192506516224 0.006768102674021426" pbc="T T T"
Si       3.29197065       5.37900192       7.54367185
Si       5.05050273       3.07409762       1.96103649
Si       2.58056301       3.02281410       1.23400175
Si       0.82203093       5.32771840       6.81663712
Si       6.01310221       4.85515105       5.50685743
Si       6.02252628       2.92957166       4.62262583
Si      -0.14056855       3.54666497       3.27081618
Si      -0.14999262       5.47224436       4.15504777
Si       1.42547447       4.55736004       2.23974170
Si       0.43684730       3.81440461       5.36527862
Si       4.44705919       3.84445598       6.53793191
Si       5.43568636       4.58741142       3.41239499
Si       3.55507945       4.52209213       2.37407696
Si       2.31745421       3.87972389       6.40359665
14
Lattice="7.928834762152778 -0.01167702435447423 2.333268404119597 -0.12588088051198065 8.509512690514356 0.23781199784150778 -1.93007880564513 0.057690503121552515 6.541967782093304" Properties=species:S:1:pos:R:3 unique_starting_index=20 config_type=initial n_minim_iter=14 stress="0.03496767791062322 0.01451294891970339 0.01052028929074297 0.01451294891970339 0.026986092107389913 0.00022877323356893816 0.01052028929074297 0.00022877323356893816 0.03569675841388781" pbc="T T T"
Si       3.25460841       5.50067537       7.99457250
Si       5.07728004       3.11409802       1.89560969
Si       2.61826666       3.05485080       1.11847569
Si       0.79559503       5.44142815       7.21743850
Si       6.03787145       4.96140813       5.59859654
Si       5.90188313       2.98982185       4.97339697
Si      -0.16499637       3.59411804       3.51445165
Si      -0.02900806       5.56570432       4.13965121
Si       1.40992477       4.43355412       2.33487836
Si       0.45649384       4.01504844       5.60848825
Si       4.46295030       4.12197204       6.77816982
Si       5.41638124       4.54047773       3.50455993
Si       3.54964719       4.48056565       2.41697669
Si       2.32322789       4.07496052       6.69607149
14
Lattice="7.889180033628223 0.015469499867195046 2.3471517881716686 -0.09838273448195893 8.537131837096231 0.2468052955383003 -1.941035680990718 0.055568328680579544 6.65260563263062" Properties=species:S:1:pos:R:3 unique_starting_index=20 config_type=initial n_minim_iter=15 stress="0.046515696620194905 0.016334874782806545 0.010304786081530596 0.016334874782806545 0.03368731030010434 -0.000332482625077846 0.010304786081530596 -0.000332482625077846 0.05189293664281319" pbc="T T T"
Si       3.22414695       5.54416558       8.17506526
Si       5.07901615       3.12200472       1.86502682
Si       2.62561466       3.06400409       1.07149745
Si       0.77074546       5.48616494       7.38153589
Si       6.02842599       4.99865931       5.62725522
Si       5.84188169       3.00295162       5.11419720
Si      -0.17866438       3.60951036       3.61930749
Si       0.00787993       5.60521804       4.13236551
Si       1.39772929       4.37942959       2.37372504
Si       0.45765764       4.10053151       5.70317984
Si       4.45203233       4.22874008       6.87283768
Si       5.39210398       4.50763815       3.54338288
Si       3.53668928       4.45638088       2.43699307
Si       2.31307234       4.15178878       6.80956964
14
Lattice="7.830376063751067 0.03314235805475644 2.324265610057505 -0.08084062143174234 8.564079023831436 0.2540771416570189 -1.9625029431839942 0.05525825327596716 6.715516669866099" Properties=species:S:1:pos:R:3 unique_starting_index=20 config_type=initial n_minim_iter=16 stress="0.04091631858883654 0.012477789298089719 0.0036715461833805047 0.012477789298089719 0.036630958416123675 0.002569796529777908 0.0036715461833805047 0.002569796529777908 0.055019307211558656" pbc="T T T"
Si       3.16476195       5.57249819       8.27501586
Si       5.06300453       3.12186315       1.80817072
Si       2.62227055       3.07998145       1.01884357
Si       0.72402797       5.53061649       7.48568870
Si       5.97507764       5.02844736       5.59679911
Si       5.75318348       3.00967679       5.20189845
Si      -0.18804514       3.62403227       3.69706031
Si       0.03384902       5.64280285       4.09196097
Si       1.38057482       4.33288949       2.38391109
Si       0.44121393       4.17383085       5.74936997
Si       4.40645768       4.31959015       6.90994833
Si       5.34581857       4.47864878       3.54448945
Si       3.51619124       4.43404717       2.43746805
Si       2.27084126       4.21843246       6.85639137
14
Lattice="7.799957434061684 0.016711868225076754 2.2777135121203775 -0.1012300598135396 8.557898043000879 0.26317658570010627 -1.9697651978160842 0.06805957459969529 6.639167111660203" Properties=species:S:1:pos:R:3 unique_starting_index=20 config_type=initial n_minim_iter=17 stress="0.00569189914113715 0.001989246786618831 -0.004412045635521072 0.001989246786618831 0.021178013352638147 0.004358346957878573 -0.004412045635521072 0.004358346957878573 0.00527747106356898" pbc="T T T"
Si       3.12070650       5.54887152       8.19662907
Si       5.04574057       3.09247411       1.73533864
Si       2.60825568       3.09379797       0.98342814
Si       0.68322161       5.55019538       7.44471857
Si       5.90944790       5.02935192       5.49536624
Si       5.69048405       2.98707564       5.20978290
Si      -0.18048572       3.61331757       3.68469097
Si       0.03847812       5.65559384       3.97027431
Si       1.37647445       4.29018506       2.34077721
Si       0.42114052       4.21952650       5.67780589
Si       4.35248772       4.35248442       6.83928000
Si       5.30782166       4.42314299       3.50225132
Si       3.50455941       4.39081925       2.41695671
Si       2.22440277       4.25185023       6.76310050
14
Lattice="7.789256327606953 0.012367246056663124 2.298803461160992 -0.10970968658904574 8.521515887214319 0.27842237867683267 -1.9610995434866156 0.08041450981439163 6.6757338056436435" Properties=species:S:1:pos:R:3 unique_starting_index=20 config_type=initial n_minim_iter=18 stress="0.0009652916952708347 0.0028080338294512778 -0.005636353920267903 0.0028080338294512778 0.015253207122938789 0.010378059838304707 -0.005636353920267903 0.010378059838304707 0.010131799532355467" pbc="T T T"
Si       3.11367699       5.52861839       8.28897316
Si       5.04365814       3.06858234       1.70882581
Si       2.60477011       3.08567925       0.96398648
Si       0.67478896       5.54571531       7.54413383
Si       5.89498686       5.02228102       5.52135066
Si       5.66633960       2.96711682       5.33418283
Si      -0.17653977       3.59201663       3.73160898
Si       0.05210749       5.64718082       3.91877681
Si       1.37344722       4.23118662       2.35686494
Si       0.42011367       4.26245722       5.71974964
Si       4.34499988       4.38311102       6.89609470
Si       5.29833342       4.35184042       3.53321001
Si       3.49701562       4.33589368       2.43693123
Si       2.22143148       4.27840397       6.81602841
14
Lattice="7.809470860015298 -0.01341902727937224 2.3183187680815216 -0.12989224959194728 8.543385635026516 0.25426713624397035 -1.9329763204572121 0.06925727479156009 6.612122651847758" Properties=species:S:1:pos:R:3 unique_starting_index=20 config_type=initial n_minim_iter=19 stress="-0.010711092782430143 -0.0008039646924560467 0.009773101443985263 -0.0008039646924560467 0.008820491717772619 -0.00652969689745107 0.009773101443985263 -0.00652969689745107 -0.00874132263099046" pbc="T T T"
Si       3.14314073       5.50506266       8.25314872
Si       5.05081496       3.04964073       1.67054598
Si       2.60346156       3.09416122       0.93155983
Si       0.69578733       5.54958315       7.51416257
Si       5.90388754       5.02875521       5.48414843
Si       5.68491262       2.94878016       5.39643234
Si      -0.15728525       3.57046867       3.70056013
Si       0.06168967       5.65044372       3.78827621
Si       1.37794954       4.20488509       2.32976861
Si       0.42402646       4.31375586       5.66028882
Si       4.36865275       4.39433879       6.85493994
Si       5.32257583       4.28546802       3.52441974
Si       3.50488163       4.28605944       2.42502906
Si       2.24172066       4.31316444       6.75967950
14
Lattice="7.830426519804265 -0.06949040639483249 2.3231245282962405 -0.1953801903889574 8.425194926219852 0.271981833511295 -1.9400655686104813 0.09599817491783307 6.632574489002796" Properties=species:S:1:pos:R:3 unique_starting_index=20 config_type=initial n_minim_iter=20 stress="-0.014865174002744936 -0.003793903799402836 0.009485958100384176 -0.003793903799402836 -0.006590139792619821 0.002432289156552132 0.009485958100384176 0.002432289156552132 -0.007366051958509331" pbc="T T T"
Si       3.11473760       5.40937415       8.28543997
Si       5.02284592       2.98782480       1.67781548
Si       2.58024316       3.04232855       0.94224089
Si       0.67213485       5.46387789       7.54986537
Si       5.86037816       4.93789749       5.52655177
Si       5.70105977       2.88670335       5.42783570
Si      -0.16539740       3.51380520       3.70112908
Si      -0.00607901       5.56499934       3.79984515
Si       1.35800749       4.17832399       2.33958114
Si       0.37179586       4.25013460       5.68767787
Si       4.33697327       4.27337871       6.88809971
Si       5.32318490       4.20156810       3.54000298
Si       3.48096315       4.21605508       2.44742903
Si       2.21401761       4.23564762       6.78025182
14
Lattice="7.797282387467973 -0.05967980425175619 2.2929840968205704 -0.1781419043726025 8.445824240212609 0.24828856777260833 -1.9682726291000712 0.07321248014526627 6.676987666205245" Properties=species:S:1:pos:R:3 unique_starting_index=20 config_type=initial n_minim_iter=21 stress="-0.0002857177311093906 -0.0033678832191087107 0.000744726231779783 -0.0033678832191087107 0.0012310741164176147 0.004867980009993486 0.000744726231779783 0.004867980009993486 0.006506339090604413" pbc="T T T"
Si       3.06692927       5.40725842       8.32712931
Si       5.00674035       2.99241648       1.62895922
Si       2.58393858       3.05209849       0.89113102
Si       0.64412750       5.46694043       7.58930111
Si       5.81751901       4.94461096       5.48364756
Si       5.65221505       2.88825704       5.45306777
Si      -0.16665115       3.51474596       3.73461277
Si      -0.00134720       5.57109987       3.76519256
Si       1.34261883       4.16854372       2.33942137
Si       0.34440930       4.26674926       5.69799486
Si       4.30824903       4.29081320       6.87883897
Si       5.30645855       4.19260766       3.52026548
Si       3.46820072       4.20788690       2.43001525
Si       2.18266713       4.25147002       6.78824508
