22
Lattice="5.430094188894352 0.48211715215419726 0.2872303963988332 3.1762217662156678 6.503192908567324 0.4600795914345501 1.7609130010052942 1.4024951183922476 15.773959291545358" Properties=species:S:1:pos:R:3 unique_starting_index=40 config_type=initial n_minim_iter=1 energy=-3570.9166426697357 free_energy=-3570.9166426697357 pbc="T T T"
Si       7.82963432       3.71355429      12.97789715
Si       2.10523207       3.03379200       5.30243928
Si       5.43395850       1.23854511       6.86472808
Si       4.40193129       4.95257841      13.51458417
Si       4.59478686       3.52543316      15.13210807
Si       6.99960014       6.47008358       6.74520167
Si       6.20709671       2.58353711       2.45589537
Si       5.83360664       6.24392006       9.92821880
Si       4.68145492       3.07698732       0.40860479
Si       6.24594327       6.25811639      14.68696746
Si       4.98976047       3.36765941      10.45404103
Si       4.19045625       6.10513978      11.46386504
Si       2.50942361       3.49582000       0.97220781
Si       1.68163910       0.86542179       7.89337690
Si       3.75571421       1.52460988      15.49207253
Si       7.78960687       6.50722775       8.88060099
Si       4.09461880       4.06239002       5.96766953
Si       5.09673009       7.19268633       6.09880474
Si       5.06469975       5.03428501       3.76782874
Si       5.21138478       2.06455408       8.81390695
Si       6.88841889       2.32034719      14.70670524
Si       4.43178867       1.94148183       5.09525048
22
Lattice="5.336277165971375 0.7106553961911627 0.3720819663727335 3.410607194675931 6.365655372893094 0.5326949747148698 2.02951297265562 1.4820082139679545 15.763193002207037" Properties=species:S:1:pos:R:3 unique_starting_index=40 config_type=initial n_minim_iter=2 stress="-0.01069279463984463 -0.004664528256405063 0.005099301278382059 -0.004664528256405063 -0.010710864551995181 0.0042523205861233065 0.005099301278382059 0.0042523205861233065 -0.014202054135186555" pbc="T T T"
Si       8.01686533       3.96902756      13.05057212
Si       2.27806991       2.97069223       5.23701925
Si       5.43419843       1.43261448       6.95666166
Si       4.76146333       5.05362135      13.53949291
Si       4.94565296       3.60778588      15.17945093
Si       7.24354782       6.49679660       6.88758272
Si       6.18507622       2.86737946       2.53478840
Si       6.24925541       6.21695670      10.04776706
Si       4.77252914       3.09439017       0.49803095
Si       6.63770325       6.28319073      14.73445247
Si       5.22453189       3.59473825      10.57883110
Si       4.54178557       6.03847093      11.58479810
Si       2.57677483       3.46362635       1.06936877
Si       1.83770150       0.88361367       7.87047547
Si       3.89233170       1.63240733      15.56706683
Si       8.00632293       6.60981327       9.05939441
Si       4.36567376       4.10339262       5.96405909
Si       5.39910113       7.25308866       6.11973410
Si       5.22644575       5.01522473       3.83158775
Si       5.27029893       2.32371408       8.88175500
Si       7.06500284       2.65413467      14.83585776
Si       4.48145229       2.02123158       5.10444116
22
Lattice="5.364111152219955 0.7616562527020159 0.3668243367455042 3.4849358089944684 6.403466734599147 0.5181265672893811 2.030634780867335 1.4645712026858901 15.902186657842902" Properties=species:S:1:pos:R:3 unique_starting_index=40 config_type=initial n_minim_iter=3 stress="0.0125913517664752 -0.0010533783860348451 0.0008255401589599967 -0.0010533783860348451 -0.0004764259186253845 0.0037677928320161975 0.0008255401589599967 0.0037677928320161975 0.008735024376231415" pbc="T T T"
Si       8.06843045       4.01937159      13.14616581
Si       2.30936602       2.97833968       5.26037297
Si       5.45519534       1.46550015       7.01237861
Si       4.81498128       5.08060956      13.64415207
Si       4.98847917       3.61644207      15.30509164
Si       7.32551970       6.55120766       6.93054551
Si       6.22811629       2.93902786       2.54109150
Si       6.33134571       6.24877047      10.12541348
Si       4.82701098       3.13282349       0.49033398
Si       6.70689046       6.31093782      14.84115795
Si       5.27075454       3.63906302      10.67126968
Si       4.60076740       6.05495890      11.67892953
Si       2.61169284       3.48952854       1.07468164
Si       1.84776764       0.87494242       7.93326976
Si       3.88984236       1.62566437      15.70958841
Si       8.08730055       6.67250780       9.12237592
Si       4.42619681       4.13653171       5.99356721
Si       5.48076341       7.31235109       6.14379525
Si       5.28825984       5.05372593       3.84442720
Si       5.29352500       2.36597648       8.95180805
Si       7.09886228       2.69778815      14.96465557
Si       4.50924732       2.04469048       5.13309827
22
Lattice="5.289430638451328 0.8556316791859695 0.3384221151804453 3.5493325160377363 6.477274993490063 0.4332008723251878 1.961916024012149 1.3275977159881365 15.87247285319971" Properties=species:S:1:pos:R:3 unique_starting_index=40 config_type=initial n_minim_iter=4 stress="-0.016680397022055787 0.00904561730914432 -0.002886317050755951 0.00904561730914432 -0.00024762082207035964 -0.006785969725775744 -0.002886317050755951 -0.006785969725775744 -0.0030180128005105997" pbc="T T T"
Si       7.95842210       4.02956390      13.05636783
Si       2.31169491       2.96888838       5.18559679
Si       5.35946189       1.48200981       6.98153973
Si       4.78918533       5.04532622      13.56560176
Si       4.93106990       3.53241905      15.24218271
Si       7.30332733       6.61638717       6.83665455
Si       6.16124291       3.06124995       2.48158806
Si       6.31561006       6.24336749      10.05098687
Si       4.81609063       3.20531170       0.44048994
Si       6.66110447       6.26971729      14.72874416
Si       5.22246875       3.65660224      10.62766763
Si       4.59214363       6.01431220      11.59934839
Si       2.61846743       3.53393863       1.03882686
Si       1.80967029       0.80598516       7.90201847
Si       3.77107190       1.51071891      15.68744943
Si       8.05333455       6.74386559       9.01414470
Si       4.42917609       4.16486738       5.90884642
Si       5.49938783       7.38087719       6.03277158
Si       5.27835572       5.10317395       3.75896635
Si       5.20215108       2.38479412       8.89868186
Si       6.97663370       2.68358712      14.91599011
Si       4.44915484       2.05414852       5.07791976
22
Lattice="5.28709013484169 0.874569918085339 0.3449652833935463 3.5705440301844646 6.4875162489727485 0.4283874400060197 1.9898106681117649 1.31512955667227 15.803509407097128" Properties=species:S:1:pos:R:3 unique_starting_index=40 config_type=initial n_minim_iter=5 stress="-0.0019938154738194497 0.004052041847979058 0.0006993497690036354 0.004052041847979058 -0.0010917981709905186 -0.009722323021030887 0.0006993497690036354 -0.009722323021030887 -0.005417592304864878" pbc="T T T"
Si       7.98186943       4.04193469      12.99620447
Si       2.33364855       2.97439832       5.13025585
Si       5.36354870       1.48391177       6.96257769
Si       4.83566358       5.06051307      13.51243347
Si       4.97685543       3.51630419      15.17871111
Si       7.33881106       6.62821191       6.82249765
Si       6.15872143       3.11123442       2.47586648
Si       6.34742458       6.22753169      10.03507816
Si       4.83230014       3.20722611       0.44616476
Si       6.70094685       6.26004856      14.65479528
Si       5.25815389       3.69379198      10.60531809
Si       4.62481981       6.00641079      11.55310429
Si       2.61713201       3.54155417       1.04690451
Si       1.83304117       0.78574475       7.85744024
Si       3.77577238       1.49347276      15.63817319
Si       8.09842665       6.77775918       8.96963333
Si       4.46679906       4.17832334       5.86433877
Si       5.51126045       7.40544376       6.00211106
Si       5.29139053       5.09976032       3.73641605
Si       5.20322974       2.40945660       8.86292559
Si       7.00687671       2.70881383      14.86847582
Si       4.45557880       2.04243122       5.04895644
22
Lattice="5.238486520544726 0.8871584070190972 0.3396512095329626 3.551627585668738 6.510499815747744 0.48646597652195145 1.944179466347314 1.4732490414904535 15.872423356588987" Properties=species:S:1:pos:R:3 unique_starting_index=40 config_type=initial n_minim_iter=6 stress="-0.010306141601998456 0.00094720049557618 -3.8448204897609034e-05 0.00094720049557618 -0.0015557332522044339 0.003719700785125256 -3.8448204897609034e-05 0.003719700785125256 -0.00039717961157638085" pbc="T T T"
Si       7.88881647       4.18607574      13.05738659
Si       2.31294883       3.03877367       5.15188019
Si       5.30002226       1.55560052       6.98609349
Si       4.78516539       5.21799888      13.61037558
Si       4.91672284       3.66611071      15.25868179
Si       7.27351010       6.71862949       6.90067305
Si       6.09639420       3.17030018       2.50004320
Si       6.28059917       6.33038145      10.13711183
Si       4.79847909       3.21831983       0.46960018
Si       6.62424820       6.41399325      14.74898679
Si       5.20451047       3.83171456      10.68260162
Si       4.57142516       6.13218564      11.64704065
Si       2.59076225       3.56345890       1.08794070
Si       1.80885018       0.85409011       7.88458343
Si       3.70122073       1.64688712      15.71309132
Si       8.03145086       6.90233939       9.04308784
Si       4.43333355       4.25378150       5.90329211
Si       5.45519574       7.49101948       6.08885565
Si       5.24193228       5.14325863       3.78268230
Si       5.13393276       2.52029452       8.90938433
Si       6.92389439       2.87938863      14.93797782
Si       4.40731698       2.08690831       5.07102008
22
Lattice="5.264882689673982 0.8797779566403555 0.3157205449671115 3.555488774599288 6.531112202158932 0.46533095497162663 1.8893957846518652 1.4639313729691241 15.735326942096643" Properties=species:S:1:pos:R:3 unique_starting_index=40 config_type=initial n_minim_iter=7 stress="-0.01444166123591999 0.0036987029176863725 0.0007212072668026777 0.0036987029176863725 0.0062133568218657505 -0.0003877424769272003 0.0007212072668026777 -0.0003877424769272003 -0.0014070103719756998" pbc="T T T"
Si       7.86587487       4.17067583      12.90640783
Si       2.30699577       3.06107218       5.06441054
Si       5.30482229       1.56351282       6.89517630
Si       4.76609702       5.23007351      13.50794891
Si       4.87624594       3.63743071      15.11097752
Si       7.27032390       6.73697948       6.81256905
Si       6.10556198       3.19454196       2.46087411
Si       6.25694288       6.31861316      10.04710519
Si       4.82044515       3.22331645       0.45115737
Si       6.58522340       6.39971458      14.59222335
Si       5.19451584       3.85222947      10.58931325
Si       4.53398231       6.13729380      11.51727650
Si       2.58474728       3.57459165       1.07530878
Si       1.79472271       0.82970646       7.81210905
Si       3.64405166       1.63360169      15.58176654
Si       8.02500284       6.91248981       8.94265021
Si       4.43086889       4.26155801       5.81452367
Si       5.43169397       7.49829255       6.03222166
Si       5.23671483       5.13585893       3.72158522
Si       5.11455338       2.52601211       8.80657786
Si       6.91615519       2.88078240      14.78449219
Si       4.41273960       2.06140356       5.01445125
22
Lattice="5.306304116977074 0.8694646418104228 0.27917997563064956 3.5698968620924076 6.478556449787297 0.4471690554610629 1.8001551767244384 1.4642823472141746 15.618700701797607" Properties=species:S:1:pos:R:3 unique_starting_index=40 config_type=initial n_minim_iter=8 stress="-0.006770520990382486 0.0059234999609889 -0.009267327228009527 0.0059234999609889 -0.0032059428581751514 0.00029712506054413565 -0.009267327228009527 0.00029712506054413565 -0.019333127475895637" pbc="T T T"
Si       7.83380574       4.13657164      12.75970397
Si       2.29470574       3.05394670       4.98234636
Si       5.29540101       1.56276567       6.81944672
Si       4.72792121       5.20913636      13.41900028
Si       4.81370935       3.59497797      14.97935442
Si       7.27068093       6.69468566       6.72638525
Si       6.12631628       3.19439123       2.41362217
Si       6.23271701       6.25507401       9.96478358
Si       4.85631266       3.19478881       0.42565925
Si       6.53026559       6.33998239      14.45003672
Si       5.17435140       3.85212227      10.50535699
Si       4.48113773       6.09144935      11.40597968
Si       2.58358518       3.54749508       1.06447164
Si       1.76659382       0.80908924       7.74824686
Si       3.55525557       1.62829545      15.46697655
Si       8.01976896       6.86637309       8.84349025
Si       4.42976798       4.23215747       5.72882715
Si       5.42186494       7.43962010       5.97432389
Si       5.23851535       5.07898665       3.66060511
Si       5.08694808       2.52363549       8.70566111
Si       6.89189277       2.88139302      14.64046953
Si       4.41746707       2.02539999       4.95225079
22
Lattice="5.311748892604278 0.8425291141227961 0.2968941264238525 3.5466208213965547 6.427614078495461 0.45144466758929314 1.8452716909116214 1.4296815667881413 15.69852453691598" Properties=species:S:1:pos:R:3 unique_starting_index=40 config_type=initial n_minim_iter=9 stress="-0.0018005287128902037 0.0018155815893541344 -0.0027650006210596456 0.0018155815893541344 -0.007521926004366952 -0.0045651647650328964 -0.0027650006210596456 -0.0045651647650328964 -0.01240734089297793" pbc="T T T"
Si       7.85964477       4.05907261      12.82893134
Si       2.30611555       3.03458739       4.97244889
Si       5.31427697       1.53221595       6.87795515
Si       4.77288857       5.15703279      13.51820023
Si       4.85330024       3.51374076      15.06166332
Si       7.26832737       6.62830768       6.77299303
Si       6.11955387       3.17537417       2.44676314
Si       6.24786138       6.16497190      10.04265924
Si       4.85372457       3.15565473       0.44482265
Si       6.55321430       6.24348820      14.52445819
Si       5.20985156       3.82089270      10.58519891
Si       4.49106154       6.02048709      11.45605406
Si       2.56577397       3.51711916       1.08155024
Si       1.79882377       0.76850363       7.79089733
Si       3.58623939       1.58243892      15.56414880
Si       8.02404487       6.78892252       8.90991560
Si       4.44269184       4.18466925       5.74240043
Si       5.41078162       7.36824036       6.01769231
Si       5.22624037       5.00878169       3.68051846
Si       5.10133838       2.49334925       8.75167481
Si       6.95404532       2.83469389      14.72912312
Si       4.43216743       1.97048842       4.98085565
22
Lattice="5.306264142842042 0.8290638399053666 0.3183020073838342 3.519234073351974 6.512607919435255 0.49530111443099784 1.8966968342164572 1.5259197292830982 15.64108790555662" Properties=species:S:1:pos:R:3 unique_starting_index=40 config_type=initial n_minim_iter=10 stress="0.003659743283648871 -0.001439092971647343 -0.0018946460686650513 -0.001439092971647343 0.004213441782683421 0.00340625598276839 -0.0018946460686650513 0.00340625598276839 -0.002515051613573538" pbc="T T T"
Si       7.86842309       4.13440989      12.79113601
Si       2.32033271       3.11928583       4.89846076
Si       5.31794697       1.57493492       6.88734733
Si       4.83741857       5.31416315      13.54471169
Si       4.89463158       3.57687404      15.03005867
Si       7.25652451       6.74366219       6.80662266
Si       6.09396258       3.25575712       2.48320574
Si       6.27132501       6.25240085      10.08061963
Si       4.84025319       3.17973396       0.48818112
Si       6.57374513       6.35589352      14.50222606
Si       5.25519074       3.95224660      10.60860558
Si       4.49701910       6.14014168      11.43233979
Si       2.54186985       3.56534521       1.11625657
Si       1.83873514       0.77102142       7.76758478
Si       3.60214733       1.66350829      15.53787230
Si       8.00656860       6.90187880       8.94941965
Si       4.45816643       4.25499531       5.70831225
Si       5.39474623       7.49534918       6.04859725
Si       5.19957243       5.05012096       3.69309398
Si       5.09990995       2.59807568       8.74044238
Si       7.03246409       2.94966403      14.69978396
Si       4.44753012       1.96798216       4.97554291
22
Lattice="5.3080747325214155 0.8324978347722921 0.35016532256300326 3.537407427414115 6.3996198248636915 0.49019336999888696 1.9928979077815807 1.4397659805634295 15.744734310309255" Properties=species:S:1:pos:R:3 unique_starting_index=40 config_type=initial n_minim_iter=11 stress="0.005916863563990081 -0.00206774116652114 -0.001627853688439571 -0.00206774116652114 -0.0014068167139280657 0.0017138787621909075 -0.001627853688439571 0.0017138787621909075 0.013626550336550164" pbc="T T T"
Si       7.92748304       4.01271052      12.86469628
Si       2.36125605       3.06763422       4.85236363
Si       5.36158966       1.55058791       6.97847206
Si       4.95946216       5.19766290      13.67559944
Si       4.98581444       3.41928666      15.15065180
Si       7.30320792       6.63510590       6.87168042
Si       6.10206856       3.23382915       2.53127197
Si       6.35638790       6.09752549      10.17442333
Si       4.83055738       3.14343865       0.51674922
Si       6.68439622       6.19327710      14.61429145
Si       5.35300006       3.86998865      10.71836870
Si       4.57214361       5.97970363      11.47859038
Si       2.56576670       3.49772557       1.11411092
Si       1.89574076       0.68598224       7.84442185
Si       3.66969785       1.57995203      15.66796289
Si       8.04777178       6.76091218       9.03839079
Si       4.49715864       4.14971508       5.71273399
Si       5.44646632       7.35148682       6.07675926
Si       5.21612169       4.94590217       3.71016913
Si       5.13663090       2.59229452       8.83331398
Si       7.17336762       2.88042684      14.81967719
Si       4.49942870       1.90772511       5.02099418
22
Lattice="5.340138321391435 0.8472953071220591 0.3950650622237687 3.5733661670099752 6.430403014658275 0.5202350835192379 2.1378175790472773 1.4611275094018967 15.703774211559983" Properties=species:S:1:pos:R:3 unique_starting_index=40 config_type=initial n_minim_iter=12 stress="0.01592501740407872 -0.00029503291605308184 0.0058455176816643905 -0.00029503291605308184 0.0007548356692218004 0.002568476018044243 0.0058455176816643905 0.002568476018044243 0.006032649181961479" pbc="T T T"
Si       8.06769052       4.03864324      12.86242994
Si       2.42053682       3.09808149       4.81725090
Si       5.45641501       1.58365857       7.02640559
Si       5.11927175       5.24278976      13.68681233
Si       5.13854391       3.42912105      15.14656403
Si       7.40414837       6.69561626       6.91383470
Si       6.16014793       3.25858648       2.57815643
Si       6.48736605       6.13871469      10.19861372
Si       4.84569897       3.17768881       0.56256216
Si       6.86769621       6.25052031      14.63589091
Si       5.49272253       3.89745777      10.73637662
Si       4.70430774       6.01382265      11.45636840
Si       2.61133532       3.51277912       1.11854448
Si       1.97452525       0.67476886       7.84835050
Si       3.81430419       1.60944671      15.64529492
Si       8.16309139       6.80800150       9.07663062
Si       4.56256875       4.16223600       5.71586334
Si       5.54432242       7.38914083       6.09997130
Si       5.27561586       4.98262524       3.73651200
Si       5.23505277       2.65040220       8.85412745
Si       7.37030093       2.91981357      14.82096283
Si       4.58475591       1.92686130       5.04197902
22
Lattice="5.296246431078232 0.7885337753935457 0.36833118043165314 3.4791203174536154 6.4262106403995345 0.4503865858373493 2.0425633348175034 1.3096161645457385 15.734704125277284" Properties=species:S:1:pos:R:3 unique_starting_index=40 config_type=initial n_minim_iter=13 stress="0.013440015177290241 -0.0015669109437661936 0.002514587714284078 -0.0015669109437661936 0.005578868619769293 -0.004539496621097471 0.002514587714284078 -0.004539496621097471 0.009123889241759494" pbc="T T T"
Si       7.88403627       3.82848822      12.78552024
Si       2.35047352       3.06597091       4.71819248
Si       5.38548543       1.49101658       7.06564213
Si       4.98932798       5.11119684      13.69891902
Si       4.99864133       3.21047342      15.16214077
Si       7.25267327       6.63025248       6.86280662
Si       6.07638399       3.17656974       2.53338836
Si       6.32407749       6.00603578      10.17342191
Si       4.73487899       3.16196449       0.52668782
Si       6.72477952       6.10950351      14.63997960
Si       5.40234697       3.75191587      10.73959703
Si       4.56950246       5.88633096      11.37999970
Si       2.58412228       3.48814334       1.05121636
Si       1.92822308       0.53903634       7.89315791
Si       3.68860317       1.44691278      15.67354139
Si       7.97008106       6.67975808       9.01306137
Si       4.43220169       4.05251926       5.65236248
Si       5.40397324       7.31607757       6.02290215
Si       5.15337920       4.94025288       3.67189514
Si       5.11699004       2.59473890       8.85655656
Si       7.28774364       2.72858679      14.80604844
Si       4.54977240       1.84178157       5.02583530
22
Lattice="5.280072646040404 0.8065107802919997 0.3680119759660469 3.491905982507364 6.41841409145802 0.44941533659948135 2.0415105365619604 1.310269802259321 15.724602752717121" Properties=species:S:1:pos:R:3 unique_starting_index=40 config_type=initial n_minim_iter=14 stress="-0.0015467156656539128 0.0009432003588875997 0.00411224005725162 0.0009432003588875997 0.0029455762111091736 -0.0027762591945641843 0.00411224005725162 -0.0027762591945641843 0.0014751278960601923" pbc="T T T"
Si       7.85502509       3.83114413      12.75284138
Si       2.35434329       3.06773041       4.67516240
Si       5.37859188       1.51068926       7.08031902
Si       4.99882732       5.11961083      13.70037484
Si       5.00007397       3.19452334      15.15721020
Si       7.25246603       6.64754658       6.86821060
Si       6.06499982       3.19421213       2.52855352
Si       6.32487388       5.99802352      10.18101049
Si       4.71828199       3.17265066       0.52772280
Si       6.74062055       6.12116958      14.64452677
Si       5.41528484       3.76415956      10.75029105
Si       4.58007887       5.87331604      11.36128515
Si       2.59371233       3.48368353       1.04358320
Si       1.92763271       0.51938509       7.89486574
Si       3.66539625       1.44998203      15.66886650
Si       7.95609222       6.68984399       9.00803185
Si       4.42547871       4.04413734       5.63161596
Si       5.40731829       7.31870339       6.01300525
Si       5.14513414       4.94719956       3.66262197
Si       5.09579189       2.63515814       8.85669383
Si       7.29431222       2.75249915      14.79909634
Si       4.55367907       1.84610528       5.01867746
22
Lattice="5.257723387242017 0.8163734855624134 0.32606514830076855 3.4917391771459645 6.3842998990864706 0.41880158322598665 1.9166968620783256 1.2894212931452664 15.726730577523236" Properties=species:S:1:pos:R:3 unique_starting_index=40 config_type=initial n_minim_iter=15 stress="-0.003041243915056999 0.004923821951247111 -0.010531356705105788 0.004923821951247111 -0.0002734814991430524 5.3848116349344986e-06 -0.010531356705105788 5.3848116349344986e-06 0.005826533602278883" pbc="T T T"
Si       7.71567116       3.79897147      12.67794835
Si       2.31505847       3.04472985       4.62694951
Si       5.32390901       1.50756082       7.06638197
Si       4.88331763       5.08823681      13.67082704
Si       4.88881608       3.15599955      15.13727446
Si       7.18947636       6.63093158       6.83241839
Si       6.03363198       3.18143125       2.47026328
Si       6.24793333       5.95805398      10.14450636
Si       4.69363351       3.16302219       0.48310698
Si       6.64128026       6.10466946      14.63005281
Si       5.34105023       3.74323569      10.73851539
Si       4.48541315       5.81895770      11.34273121
Si       2.58625763       3.46257077       1.01409351
Si       1.85769330       0.49286023       7.88937041
Si       3.52707994       1.42479022      15.66619310
Si       7.86220409       6.66395352       8.94727379
Si       4.36315200       4.01249124       5.59164733
Si       5.34641996       7.28621943       5.97127371
Si       5.10110064       4.94028779       3.62002465
Si       5.00037590       2.64964764       8.83135778
Si       7.16132984       2.74402291      14.75827249
Si       4.51671180       1.83948003       4.98336610
22
Lattice="5.2230325402957325 0.8150144881106632 0.3388796592430539 3.477112652786574 6.326860552098701 0.3978704716592322 1.9511226987543664 1.2075377359183772 15.697778053282939" Properties=species:S:1:pos:R:3 unique_starting_index=40 config_type=initial n_minim_iter=16 stress="-0.03043645291748757 -0.002353755143960934 0.005928259566996384 -0.002353755143960934 -0.014235512057745266 0.00197300879747078 0.005928259566996384 0.00197300879747078 -0.007075234272323571" pbc="T T T"
Si       7.65731964       3.68293259      12.60486305
Si       2.31198901       2.99137339       4.53556252
Si       5.32694027       1.46804577       7.08922333
Si       4.89509922       4.99822888      13.63411574
Si       4.94366836       3.03209723      15.11406189
Si       7.16123444       6.58558580       6.84491839
Si       6.01115551       3.14228568       2.44606672
Si       6.25038085       5.84445929      10.14007022
Si       4.65195477       3.13024993       0.46438446
Si       6.68876212       6.02863090      14.64108457
Si       5.38767247       3.67534217      10.76910497
Si       4.49754362       5.68841844      11.31858288
Si       2.56973265       3.42115307       0.99142510
Si       1.86942124       0.41146405       7.88092710
Si       3.54689767       1.32295246      15.67427812
Si       7.81901655       6.58535850       8.91509606
Si       4.32986392       3.93948388       5.55161603
Si       5.32355606       7.21553984       5.94031720
Si       5.06386372       4.91437474       3.59805039
Si       4.96452799       2.64567576       8.82500845
Si       7.14553289       2.67968558      14.73224752
Si       4.53961889       1.79123603       4.98334660
22
Lattice="5.231636051931324 0.816507560000877 0.3250553465643671 3.4827992766706064 6.344489157427631 0.3675747749241351 1.9223603292817384 1.1586295956394743 15.624463196919594" Properties=species:S:1:pos:R:3 unique_starting_index=40 config_type=initial n_minim_iter=17 stress="-0.018951315351407625 0.0015710914587994402 0.0022459346410701538 0.0015710914587994402 -0.011447203442315925 -0.00528573250346708 0.0022459346410701538 -0.00528573250346708 -0.008232634254330153" pbc="T T T"
Si       7.59952243       3.61891613      12.47490668
Si       2.30753734       2.98959057       4.42261233
Si       5.33059942       1.46052096       7.06501788
Si       4.89048206       4.98665513      13.56470421
Si       4.95177018       2.95334559      15.03140842
Si       7.14398060       6.61906891       6.80850900
Si       6.01883366       3.15213864       2.39670781
Si       6.25009237       5.80348451      10.09210976
Si       4.65253963       3.13415017       0.42974438
Si       6.69885784       6.01757815      14.57875715
Si       5.42353545       3.66651493      10.75235070
Si       4.47790722       5.64110167      11.25302116
Si       2.56003204       3.42241841       0.96636996
Si       1.87956394       0.34337780       7.85725009
Si       3.50291111       1.25745801      15.62057801
Si       7.79259818       6.58918334       8.83469847
Si       4.30917911       3.92557883       5.47465572
Si       5.30729577       7.22557914       5.88622036
Si       5.04631100       4.93433854       3.54801090
Si       4.92762747       2.67006780       8.76457538
Si       7.13884320       2.66083349      14.64363482
Si       4.56655485       1.75526434       4.94315199
22
Lattice="5.2434588449105615 0.7582050545316665 0.30938850064236467 3.4162725151363085 6.353148630125828 0.39634289002918194 1.8586030367409159 1.2441679464079682 15.613636830242859" Properties=species:S:1:pos:R:3 unique_starting_index=40 config_type=initial n_minim_iter=18 stress="-0.012972514622398975 -0.003938099192198046 0.003069358828592211 -0.003938099192198046 -0.002471590397132152 -3.483368604004424e-05 0.003069358828592211 -3.483368604004424e-05 -0.0031797997584348545" pbc="T T T"
Si       7.48984299       3.59292755      12.41248019
Si       2.26412324       3.01714295       4.36474751
Si       5.32307913       1.46930129       7.07228148
Si       4.81315934       5.06207103      13.58530848
Si       4.90354393       2.97956623      15.01677448
Si       7.03936029       6.66857684       6.83737789
Si       6.00404386       3.11157734       2.37533775
Si       6.16947923       5.82382482      10.11835221
Si       4.62538027       3.10722527       0.41493021
Si       6.61951124       6.09671109      14.61600105
Si       5.41358074       3.69614119      10.79614954
Si       4.38959966       5.68116054      11.27323466
Si       2.51217200       3.41704878       0.97036199
Si       1.87913226       0.34033083       7.85626822
Si       3.43526996       1.31537141      15.61434072
Si       7.68221160       6.60613041       8.85915116
Si       4.22917119       3.93342341       5.45532946
Si       5.21086435       7.25535005       5.91424933
Si       4.97643911       4.95861595       3.55308801
Si       4.86091389       2.71130547       8.74536808