22
Lattice="5.446094269169233 0.5214125014852248 -0.007477455157646246 3.3563902295614985 5.566794664300416 0.2093181515906672 0.9364990679381995 1.0406757452630249 15.811512374905218" Properties=species:S:1:pos:R:3 unique_starting_index=40 config_type=initial n_minim_iter=4 energy=-3584.757036036236 free_energy=-3584.757036036236 pbc="T T T"
Si       6.73579055       2.88980986      12.31333467
Si       1.55382589       2.57284980       4.24642913
Si       5.00000092       1.41872425       7.20548611
Si       4.01674200       4.53355467      13.19518033
Si       4.23589009       3.04060720      14.69651547
Si       6.49550279       6.16025131       6.73411350
Si       6.16343016       2.68385532       1.93065831
Si       5.45892340       5.10890264       9.83211354
Si       4.63543626       2.71094098       0.36834779
Si       4.92178803       5.34985010      14.93533068
Si       5.20697309       2.95823187      10.64942134
Si       3.82585405       4.54999452      11.05981206
Si       2.65922118       1.72956345       0.90457237
Si       1.54361684       0.71934261       7.93645535
Si       2.96551717       1.36084362      15.06521146
Si       6.94219851       6.28699864       8.83678655
Si       3.80751282       2.94644443       4.11471018
Si       4.54395872       6.73397751       6.05755939
Si       5.44992499       4.19430410       3.24594992
Si       5.51566950       1.14079857       9.47416574
Si       6.25000928       2.31849313      14.48192238
Si       4.65957713       1.19455670       5.10975085
