2
Lattice="2.793590579581729 1.2703678625800625e-16 2.793590579581729 2.793590579581729 2.793590579581729 1.6525029486083115e-16 -1.5453523134892628e-16 2.793590579581729 2.793590579581729" Properties=species:S:1:pos:R:3:forces:R:3 n_minim_iter=1 energy=-326.3028577263989 stress="0.031069404718571135 -5.995710856694393e-17 7.656089657214417e-17 -5.995710856694393e-17 0.031069404718571197 -8.091394689771124e-17 7.656089657214417e-17 -8.091394689771124e-17 0.03106940471857118" free_energy=-326.3028577263989 pbc="T T T"
Si       0.00000000       0.00000000       0.00000000      -0.00000000       0.00000000      -0.00000000
Si       1.39679529       1.39679529       1.39679529       0.00000000      -0.00000000       0.00000000
