2
Lattice="2.6808209239524152 1.219086566232353e-16 2.6808209239524152 2.6808209239524152 2.6808209239524152 1.5857958979033776e-16 -1.5187559258292488e-16 2.6808209239524152 2.6808209239524152" Properties=species:S:1:pos:R:3:forces:R:3 n_minim_iter=1 energy=-326.3420804573685 stress="-0.016331773746578484 2.021802407560308e-17 1.881574832026186e-16 2.021802407560308e-17 -0.016331773746578484 -1.518615697973652e-16 1.881574832026186e-16 -1.518615697973652e-16 -0.016331773746578335" free_energy=-326.3420804573685 pbc="T T T"
Si       0.00000000       0.00000000       0.00000000      -0.00000000       0.00000000      -0.00000000
Si       1.34041046       1.34041046       1.34041046       0.00000000      -0.00000000       0.00000000
