2
Lattice="2.608330504219468 1.186122000756383e-16 2.608330504219468 2.608330504219468 2.608330504219468 1.5429153723066438e-16 -1.4776881866335452e-16 2.608330504219468 2.608330504219468" Properties=species:S:1:pos:R:3:forces:R:3 n_minim_iter=1 energy=-326.2087667873103 stress="-0.07548591739209091 -2.2081361890712433e-16 3.8337487260697276e-17 -2.2081361890712433e-16 -0.07548591739209094 -3.2940733537463926e-16 3.8337487260697276e-17 -3.2940733537463926e-16 -0.07548591739209089" free_energy=-326.2087667873103 pbc="T T T"
Si       0.00000000       0.00000000       0.00000000      -0.00000000       0.00000000      -0.00000000
Si       1.30416525       1.30416525       1.30416525       0.00000000      -0.00000000       0.00000000
