2
Lattice="3.084522159066583 0.0 0.0 0.0 3.084522159066583 0.0 0.0 0.0 3.084522159066583" Properties=species:S:1:pos:R:3 Minim_Constant_Volume=F n_minim_iter=1 stress="-0.04476014119711721 4.3117968945139816e-18 -9.493054794668403e-19 4.3117968945139816e-18 -0.04476014119711724 -2.647540006214707e-18 -9.493054794668403e-19 -2.647540006214707e-18 -0.04476014119711724" pbc="T T T"
Ti       0.00000000       0.00000000       0.00000000
Ti       1.54226108       1.54226108       1.54226108
