2
Lattice="2.9388041601749584 0.0 0.0 0.0 2.9388041601749584 0.0 0.0 9.860761315262654e-32 2.9388041601749584" Properties=species:S:1:pos:R:3 Minim_Constant_Volume=F n_minim_iter=1 stress="-0.3193758960465875 7.252970379158259e-19 3.3076743177191294e-19 7.252970379158259e-19 -0.3193758960465875 -9.568554913765112e-19 3.3076743177191294e-19 -9.568554913765112e-19 -0.3193758960465876" pbc="T T T"
Ti       0.00000000       0.00000000       0.00000000
Ti       1.46940208       1.46940208       1.46940208
