2
Lattice="3.056479496348784 0.0 0.0 0.0 3.056479496348784 0.0 0.0 0.0 3.056479496348784" Properties=species:S:1:pos:R:3 Minim_Constant_Volume=F n_minim_iter=1 stress="-0.07618383027554967 -1.036097214200951e-18 -3.283950136889646e-18 -1.036097214200951e-18 -0.07618383027554966 -5.5892511242310495e-18 -3.283950136889646e-18 -5.5892511242310495e-18 -0.07618383027554973" pbc="T T T"
Ti       0.00000000       0.00000000       0.00000000
Ti       1.52823975       1.52823975       1.52823975
