2
Lattice="2.9691032462175064 0.0 0.0 0.0 2.9691032462175064 0.0 0.0 1.6252343044321957e-47 2.9691032462175064" Properties=species:S:1:pos:R:3 Minim_Constant_Volume=F n_minim_iter=1 stress="-0.14855359342112318 1.6269207463824215e-18 -2.448434741248946e-17 1.6269207463824215e-18 -0.14855359342112315 -2.0982473989470655e-17 -2.448434741248946e-17 -2.0982473989470655e-17 -0.148553593421123" pbc="T T T"
Ti       0.00000000       0.00000000       0.00000000
Ti       1.48455162       1.48455162       1.48455162
