2
Lattice="3.2924927281524994 0.0 0.0 0.0 3.2924927281524994 0.0 0.0 0.0 3.2924927281524994" Properties=species:S:1:pos:R:3 Minim_Constant_Volume=F n_minim_iter=1 stress="0.06413653137165402 2.8827256358463094e-18 5.712041177775542e-19 2.8827256358463094e-18 0.06413653137165402 1.7645906464346046e-18 5.712041177775542e-19 1.7645906464346046e-18 0.06413653137165402" pbc="T T T"
Ti       0.00000000       0.00000000       0.00000000
Ti       1.64624636       1.64624636       1.64624636
