4
Lattice="5.215961510751027 -0.015139446408456263 9.0500852332443e-13 2.2250150983311126 4.717604423504824 2.752419636300691e-12 -3.7204883045415604 -2.3512324885495857 2.7993135310343646" Properties=species:S:1:pos:R:3:tags:I:1 spacegroup="P 1" unit_cell=conventional n_minim_iter=1 energy=-1923.6297359050793 free_energy=-1923.6297359050793 pbc="T T T"
Ti       0.00000000       0.00000000       0.00000000        0
Al       3.72048830       2.35123249       0.00000000        1
Al       2.60798076      -0.00756972       1.39965677        2
Al       1.11250755       2.35880221       1.39965677        3
