4
Lattice="4.806724906148413 -0.013951627895801977 8.385025306367594e-13 2.050443713524352 4.347468176879146 2.539142159757575e-12 -3.428584309836837 -2.1667582744929654 2.579683542910903" Properties=species:S:1:pos:R:3:tags:I:1 spacegroup="P 1" unit_cell=conventional n_minim_iter=1 energy=-1923.8775563471393 free_energy=-1923.8775563471393 pbc="T T T"
Ti       0.00000000       0.00000000       0.00000000        0
Al       3.42858431       2.16675827       0.00000000        1
Al       2.40336245      -0.00697581       1.28984177        2
Al       1.02522186       2.17373409       1.28984177        3
