4
Lattice="5.100012642207768 -0.014802902191664346 8.875977167561902e-13 2.1755538470140916 4.612733846140979 2.6905999087474445e-12 -3.637783244611409 -2.2989654719760266 2.737085840904316" Properties=species:S:1:pos:R:3:tags:I:1 spacegroup="P 1" unit_cell=conventional n_minim_iter=1 energy=-1924.0866418044593 free_energy=-1924.0866418044593 pbc="T T T"
Ti       0.00000000       0.00000000       0.00000000        0
Al       3.63778324       2.29896547       0.00000000        1
Al       2.55000632      -0.00740145       1.36854292        2
Al       1.08777692       2.30636692       1.36854292        3
