4
Lattice="5.060167165707416 -0.014687249793761058 8.802679119764119e-13 2.158556638228953 4.576695390756045 2.6697253830672384e-12 -3.609361901968661 -2.281004070482501 2.715701484196919" Properties=species:S:1:pos:R:3:tags:I:1 spacegroup="P 1" unit_cell=conventional n_minim_iter=1 energy=-1924.1846635379377 free_energy=-1924.1846635379377 pbc="T T T"
Ti       0.00000000       0.00000000       0.00000000        0
Al       3.60936190       2.28100407       0.00000000        1
Al       2.53008358      -0.00734362       1.35785074        2
Al       1.07927832       2.28834770       1.35785074        3
