4
Lattice="5.087887319999521 7.565505387386569e-13 8.949401069404353e-13 2.183719785742836 4.595428737165575 2.682621221191863e-12 -3.635803552871657 -2.297714368584526 2.718094661033344" Properties=species:S:1:pos:R:3:tags:I:1 spacegroup="P 1" unit_cell=conventional n_minim_iter=1 energy=-1924.1462641318346 free_energy=-1924.1462641318346 pbc="T T T"
Ti       0.00000000       0.00000000       0.00000000        0
Al       3.63580355       2.29771437       0.00000000        1
Al       2.54394366      -0.00000000       1.35904733        2
Al       1.09185989       2.29771437       1.35904733        3
4
Lattice="4.9785372918541215 -0.01445031723626837 8.680453852376506e-13 2.1237351194305343 4.502864812599615 2.625711165299801e-12 -3.5511362056427975 -2.244207247683011 2.6718921865356604" Properties=species:S:1:pos:R:3:tags:I:1 spacegroup="P 1" unit_cell=conventional n_minim_iter=2 stress="0.003524566483124258 0.005568749571977793 4.230765372723415e-15 0.005568749571977793 -0.0017679053699679926 2.6107930412773206e-15 4.230765372723415e-15 2.6107930412773206e-15 -0.005287181293573287" pbc="T T T"
Ti       0.00000000       0.00000000       0.00000000        0
Al       3.55113621       2.24420725       0.00000000        1
Al       2.48926865      -0.00722516       1.33594609        2
Al       1.06186756       2.25143241       1.33594609        3
