4
Lattice="4.936698865975498 -0.01432888025765821 8.604015175051913e-13 2.1058877620298966 4.465023823437667 2.604436173677137e-12 -3.5212933140031635 -2.2253474715913306 2.6494382494355104" Properties=species:S:1:pos:R:3:tags:I:1 spacegroup="P 1" unit_cell=conventional n_minim_iter=1 stress="0.003524566483125234 0.005568749571978294 4.149852936544129e-15 0.005568749571978294 -0.0017679053699670147 2.6288253913430627e-15 4.149852936544129e-15 2.6288253913430627e-15 -0.0052871812935724564" pbc="T T T"
Ti       0.00000000       0.00000000       0.00000000        0
Al       3.52129331       2.22534747       0.00000000        1
Al       2.46834943      -0.00716444       1.32471912        2
Al       1.05294388       2.23251191       1.32471912        3
