4
Lattice="5.362966723593954 -0.01556613236789189 9.282407790414935e-13 2.2877243068700746 4.850564078394263 2.825690330101807e-12 -3.8253455152325166 -2.4174989730146255 2.8782086073487907" Properties=species:S:1:pos:R:3:tags:I:1 spacegroup="P 1" unit_cell=conventional n_minim_iter=1 stress="0.13850629950659457 -0.0012258255956401566 -9.460660087283968e-16 -0.0012258255956401566 0.13967130924134222 -6.053951496270964e-16 -9.460660087283968e-16 -6.053951496270964e-16 0.14044599275862285" pbc="T T T"
Ti       0.00000000       0.00000000       0.00000000        0
Al       3.82534552       2.41749897       0.00000000        1
Al       2.68148336      -0.00778307       1.43910430        2
Al       1.14386215       2.42528204       1.43910430        3
