4
Lattice="5.100012642207769 -0.014802902191665645 8.871994407682612e-13 2.175553847014092 4.612733846140977 2.6907477083244576e-12 -3.6377832446114104 -2.2989654719760253 2.7370858409043155" Properties=species:S:1:pos:R:3:tags:I:1 spacegroup="P 1" unit_cell=conventional n_minim_iter=1 stress="0.05976929459113783 0.00717560942265329 5.666718048016281e-15 0.00717560942265329 0.05294968268233893 3.6115399744096176e-15 5.666718048016281e-15 3.6115399744096176e-15 0.048414921484707656" pbc="T T T"
Ti       0.00000000       0.00000000       0.00000000        0
Al       3.63778324       2.29896547       0.00000000        1
Al       2.55000632      -0.00740145       1.36854292        2
Al       1.08777692       2.30636692       1.36854292        3
