4
Lattice="5.253487703936444 -0.015248367034015517 9.11519599874884e-13 2.2410229515808617 4.751545190629719 2.772221897261831e-12 -3.747255327759147 -2.3681484117992637 2.8194531697444325" Properties=species:S:1:pos:R:3:tags:I:1 spacegroup="P 1" unit_cell=conventional n_minim_iter=1 stress="0.12540542957739015 0.004743248569146175 3.557856604455957e-15 0.004743248569146175 0.1208975038357209 2.3171855617096763e-15 3.557856604455957e-15 2.3171855617096763e-15 0.11789991878124728" pbc="T T T"
Ti       0.00000000       0.00000000       0.00000000        0
Al       3.74725533       2.36814841       0.00000000        1
Al       2.62674385      -0.00762418       1.40972658        2
Al       1.12051148       2.37577260       1.40972658        3
