4
Lattice="4.591467712188633 0.0670034350537213 8.378115308318209e-13 2.0311747783829195 4.118299920117619 2.416006348175582e-12 -3.3113212452861958 -2.092651677586871 2.3962524447955906" Properties=species:S:1:pos:R:3:tags:I:1 spacegroup="P 1" unit_cell=conventional n_minim_iter=2 stress="-0.3494386628113703 -0.0016729009118215462 -2.273853900033385e-15 -0.0016729009118215462 -0.34784875813449656 -9.153444962427496e-16 -2.273853900033385e-15 -9.153444962427496e-16 -0.3467915369710271" pbc="T T T"
Ti       0.00000000       0.00000000       0.00000000        0
Al       3.31132125       2.09265168       0.00000000        1
Al       2.29573386       0.03350172       1.19812622        2
Al       1.01558739       2.05914996       1.19812622        3
