4
Lattice="4.658762303541733 0.030423786696032178 8.323900926582229e-13 2.0270185077508986 4.194781016564955 2.457090466894677e-12 -3.3428904056467483 -2.112602401631727 2.463125379706274" Properties=species:S:1:pos:R:3:tags:I:1 spacegroup="P 1" unit_cell=conventional n_minim_iter=1 stress="-0.31109533918066845 -0.00799439217278354 -6.162155446619575e-15 -0.00799439217278354 -0.3034975661060913 -4.326950452315801e-15 -6.162155446619575e-15 -4.326950452315801e-15 -0.29844535976535336" pbc="T T T"
Ti       0.00000000       0.00000000       0.00000000        0
Al       3.34289041       2.11260240       0.00000000        1
Al       2.32938115       0.01521189       1.23156269        2
Al       1.01350925       2.09739051       1.23156269        3
