4
Lattice="4.806724906148413 -0.013951627895800164 8.411039561781406e-13 2.0504437135243507 4.347468176879147 2.5403640272209414e-12 -3.4285843098368374 -2.1667582744929654 2.5796835429109013" Properties=species:S:1:pos:R:3:tags:I:1 spacegroup="P 1" unit_cell=conventional n_minim_iter=1 stress="-0.0955970403277228 0.0018580896824277754 1.5269008981076162e-15 0.0018580896824277754 -0.09736294615948358 9.459408841898134e-16 1.5269008981076162e-15 9.459408841898134e-16 -0.09853720084606046" pbc="T T T"
Ti       0.00000000       0.00000000       0.00000000        0
Al       3.42858431       2.16675827       0.00000000        1
Al       2.40336245      -0.00697581       1.28984177        2
Al       1.02522186       2.17373409       1.28984177        3
