4
Lattice="5.019684094101906 -0.01456974676162454 8.742596172943784e-13 2.141287445317269 4.540080259051265 2.649950322879854e-12 -3.58048576971006 -2.262755256146169 2.693974941566273" Properties=species:S:1:pos:R:3:tags:I:1 spacegroup="P 1" unit_cell=conventional n_minim_iter=1 stress="0.03347932233109417 0.006816201177297703 5.2985395908723946e-15 0.006816201177297703 0.027001287646720537 3.337935315977747e-15 5.2985395908723946e-15 3.337935315977747e-15 0.022693661242686212" pbc="T T T"
Ti       0.00000000       0.00000000       0.00000000        0
Al       3.58048577       2.26275526       0.00000000        1
Al       2.50984205      -0.00728487       1.34698747        2
Al       1.07064372       2.27004013       1.34698747        3
