4
Lattice="5.253487703936445 -0.015248367034014238 9.10422155106823e-13 2.241022951580861 4.751545190629721 2.7727102566130605e-12 -3.747255327759145 -2.3681484117992646 2.819453169744434" Properties=species:S:1:pos:R:3:tags:I:1 spacegroup="P 1" unit_cell=conventional n_minim_iter=1 stress="0.13285638729476099 0.003121487153570655 2.4320848400518883e-15 0.003121487153570655 0.1298897638748114 1.5641411474388203e-15 2.4320848400518883e-15 1.5641411474388203e-15 0.1279170814182901" pbc="T T T"
Ti       0.00000000       0.00000000       0.00000000        0
Al       3.74725533       2.36814841       0.00000000        1
Al       2.62674385      -0.00762418       1.40972658        2
Al       1.12051148       2.37577260       1.40972658        3
