4
Lattice="4.658762303541732 0.030423786696033166 8.347452451003716e-13 2.027018507750896 4.1947810165649555 2.4575910591572178e-12 -3.3428904056467466 -2.1126024016317286 2.4631253797062724" Properties=species:S:1:pos:R:3:tags:I:1 spacegroup="P 1" unit_cell=conventional n_minim_iter=1 stress="-0.257373343275021 -0.005033536505830941 -3.817427961747084e-15 -0.005033536505830941 -0.25258953140948553 -2.5292708959088636e-15 -3.817427961747084e-15 -2.5292708959088636e-15 -0.2494084934391865" pbc="T T T"
Ti       0.00000000       0.00000000       0.00000000        0
Al       3.34289041       2.11260240       0.00000000        1
Al       2.32938115       0.01521189       1.23156269        2
Al       1.01350925       2.09739051       1.23156269        3
