2
Lattice="3.2429740366644397 0.0 0.0 0.0 3.24297403666444 0.0 0.0 4.930380657631325e-32 3.2429740366644397" Properties=species:S:1:pos:R:3 Minim_Constant_Volume=F n_minim_iter=1 stress="0.04921323871703494 5.895826890840656e-18 -5.070242572456847e-17 5.895826890840656e-18 0.049213238717034986 8.745214142115569e-18 -5.070242572456847e-17 8.745214142115569e-18 0.0492132387170347" pbc="T T T"
Ti       0.00000000       0.00000000       0.00000000
Ti       1.62148702       1.62148702       1.62148702
