2
Lattice="2.8762573276003454 0.0 0.0 0.0 2.8762573276003454 0.0 0.0 -1.0267678985292495e-33 2.8762573276003454" Properties=species:S:1:pos:R:3 Minim_Constant_Volume=F n_minim_iter=1 stress="-0.34296001408041676 1.617394443488039e-17 -1.83328220780967e-16 1.617394443488039e-17 -0.34296001408041615 7.732450643676731e-17 -1.83328220780967e-16 7.732450643676731e-17 -0.3429600140804149" pbc="T T T"
Ti       0.00000000       0.00000000       0.00000000
Ti       1.43812866       1.43812866       1.43812866
