2
Lattice="3.267920971155693 0.0 0.0 0.0 3.267920971155693 0.0 0.0 0.0 3.267920971155693" Properties=species:S:1:pos:R:3 Minim_Constant_Volume=F n_minim_iter=1 stress="0.05821908962657094 6.56331582555997e-18 -1.0831815093339794e-17 6.56331582555997e-18 0.05821908962657092 -8.10220493996734e-18 -1.0831815093339794e-17 -8.10220493996734e-18 0.05821908962657102" pbc="T T T"
Ti       0.00000000       0.00000000       0.00000000
Ti       1.63396049       1.63396049       1.63396049
