2
Lattice="3.165730814945473 0.0 0.0 0.0 3.165730814945473 0.0 0.0 0.0 3.165730814945473" Properties=species:S:1:pos:R:3 Minim_Constant_Volume=F n_minim_iter=1 stress="-0.0007756840825439851 -1.249379884454474e-17 -3.813752601343526e-18 -1.249379884454474e-17 -0.0007756840825439292 1.5350695954511752e-17 -3.813752601343526e-18 1.5350695954511752e-17 -0.0007756840825437052" pbc="T T T"
Ti       0.00000000       0.00000000       0.00000000
Ti       1.58286541       1.58286541       1.58286541
