2
Lattice="3.3872923388307434 0.0 0.0 0.0 3.3872923388307434 0.0 0.0 0.0 3.3872923388307434" Properties=species:S:1:pos:R:3 Minim_Constant_Volume=F n_minim_iter=1 stress="0.07000284338150198 1.6837060830148202e-17 3.2879624773879462e-19 1.6837060830148202e-17 0.07000284338150198 -8.43595045458475e-18 3.2879624773879462e-19 -8.43595045458475e-18 0.07000284338150195" pbc="T T T"
Ti       0.00000000       0.00000000       0.00000000
Ti       1.69364617       1.69364617       1.69364617
