2
Lattice="3.1918950660449696 0.0 0.0 0.0 3.1918950660449705 0.0 0.0 0.0 3.1918950660449696" Properties=species:S:1:pos:R:3 Minim_Constant_Volume=F n_minim_iter=1 stress="0.017522049333051744 5.1826970479189846e-17 3.199480244888756e-17 5.1826970479189846e-17 0.01752204933305098 2.0884121247325673e-17 3.199480244888756e-17 2.0884121247325673e-17 0.01752204933305166" pbc="T T T"
Ti       0.00000000       0.00000000       0.00000000
Ti       1.59594753       1.59594753       1.59594753
