4
Lattice="3.2750706827771885 -0.7385730887661992 1.9832159692249942e-13 0.7385730887356551 3.275070682784081 1.7655572769399654e-12 -2.0068218857568403 -1.2682487970101306 2.3739816958784745" Properties=species:S:1:pos:R:3:tags:I:1 spacegroup="P 1" unit_cell=conventional n_minim_iter=13 stress="3.358857244789786e-06 -1.557222678294431e-07 -8.384894825660778e-11 -1.557222678294431e-07 3.5069394962883495e-06 -1.736920102956124e-11 -8.384894825660778e-11 -1.736920102956124e-11 3.605289050082107e-06" pbc="T T T"
Ti       0.00000000       0.00000000       0.00000000        0
Al       2.00682189       1.26824880       0.00000000        1
Al       1.63753534      -0.36928654       1.18699085        2
Al       0.36928654       1.63753534       1.18699085        3
