8
Lattice="5.708662258709082 1.5560482169942156e-17 6.129993916220421e-49 -2.854331129354541 4.943846537667519 -1.4836156487929694e-48 -3.6278398607039907e-48 -7.517790686729915e-48 4.6338806207580205" Properties=species:S:1:pos:R:3:tags:I:1 spacegroup="P 1" unit_cell=conventional n_minim_iter=6 stress="8.488058746723439e-06 -1.941019413173749e-15 -2.64585877949407e-16 -1.941019413173749e-15 8.488058747565566e-06 -4.1874251806954443e-16 -2.64585877949407e-16 -4.1874251806954443e-16 4.0915455595264535e-05" pbc="T T T"
Ti       2.85433113       3.28712778       1.15847015        0
Ti      -1.41956631       4.11548963       3.47541046        1
Ti       1.41956632       4.11548963       3.47541046        2
Ti       1.43476482       0.82836680       1.15847015        3
Ti       4.27389745       0.82836680       1.15847015        4
Ti       0.00000000       1.65672865       3.47541046        5
Al       0.00000000       3.29590264       1.15847015        6
Al       2.85433113       1.64795379       3.47541046        7
