12
Lattice="5.76856649087334 9.934818269312426e-05 -6.440845794215076e-05 9.934812537808072e-05 5.7678536199754475 -9.68137364890064e-05 -7.738280286450281e-05 -0.00011714266326186115 6.977369149430122" Properties=species:S:1:pos:R:3:forces:R:3 cutoff=-1.0 nneightol=1.2 n_minim_iter=8 energy=-1955.889237180904 stress="0.02547675043548772 4.7074631453814936e-08 6.206488884630402e-07 4.7074631453814936e-08 0.02533066562507627 -4.3266237542517685e-06 6.206488884630402e-07 -4.3266237542517685e-06 0.025655852947524448" free_energy=-1955.889237180904 pbc="T T T"
Si       0.45949095       0.45939275       0.00000699      -0.00159953      -0.00184832      -0.00031547
Si      -0.45950589      -0.45947321       3.48869982       0.00101476       0.00002194      -0.00010369
Si       2.42479256       3.34328080       5.23295689       0.00149688       0.00011018       0.00000867
Si       3.34377827       2.42455718       1.74426009      -0.00155559       0.00027814       0.00046581
Si       0.72909210       3.84091452      -0.11203052       0.00392364       0.00170955      -0.00027708
Si       0.95713909       2.15501351       1.63232808       0.00019544      -0.00467002       0.00193912
Si       1.92721163       5.03890122       3.60053260      -0.00037912      -0.00421435      -0.00111317
Si       2.15521666       0.95696366       5.34494078      -0.00306984      -0.00035657      -0.00002304
Si       3.61338002       4.81087105       1.85618752       0.00368380       0.00098030      -0.00030106
Si       3.84141007       0.72902413       0.11188800       0.00017324       0.00304532      -0.00119065
Si       4.81143474       3.61284812       5.12094610      -0.00021667       0.00437286       0.00114533
Si       5.03954076       1.92694395       3.37663870      -0.00366700       0.00057098      -0.00023475
