2
Lattice="2.7042465840601113 -2.330119788345639e-68 -1.918707095123257e-52 2.372810470550507e-68 2.7042465840601113 6.0168710386873745e-18 2.7278809860949e-52 -8.55435837181077e-18 3.8447050397214353" Properties=species:S:1:pos:R:3:tags:I:1 spacegroup="P 1" unit_cell=conventional n_minim_iter=1 stress="-0.09057285426452819 -3.2092880368112404e-18 -1.2017535824933429e-18 -3.2092880368112404e-18 -0.09057285426452824 -4.257196927298914e-18 -1.2017535824933429e-18 -4.257196927298914e-18 -0.09103744895647267" pbc="T T T"
Ti       1.35212329       1.35212329       1.92235252        0
Al       0.00000000       0.00000000       0.00000000        1
