2
Lattice="2.7283929204891906 -2.3509255301966555e-68 -1.9358393149810145e-52 8.380624347625393e-68 2.72839292048919 6.070595944251421e-18 2.6924775262350056e-53 8.692012980486114e-18 3.8790345797518806" Properties=species:S:1:pos:R:3:tags:I:1 spacegroup="P 1" unit_cell=conventional n_minim_iter=2 stress="-0.03991305167863788 -2.4139066012535942e-18 8.277622747515566e-18 -2.4139066012535942e-18 -0.039913051678638095 3.123892787232308e-18 8.277622747515566e-18 3.123892787232308e-18 -0.04299349538534879" pbc="T T T"
Ti       1.36419646       1.36419646       1.93951729        0
Al      -0.00000000       0.00000000       0.00000000        1
