2
Lattice="2.567554608147489 -1.0038464705745686e-50 -6.971418731023535e-34 2.250810065906759e-50 2.567554608147489 1.135519229290863e-16 8.643202397258118e-34 -1.431098997797459e-16 3.4580857546580335" Properties=species:S:1:pos:R:3:tags:I:1 spacegroup="P 1" unit_cell=conventional n_minim_iter=4 stress="0.2253583132790374 -3.0651941794876474e-19 3.0042536075259155e-18 -3.0651941794876474e-19 0.2253583132790369 -5.125354617662537e-17 3.0042536075259155e-18 -5.125354617662537e-17 0.21967114861950038" pbc="T T T"
Ti       1.28377730       1.28377730       1.72904288        0
Al       0.00000000      -0.00000000       0.00000000        1
