2
Lattice="2.564443889207857 -1.0026302611048298e-50 -6.9547862222721904e-34 4.0968787232344664e-50 2.564443889207857 1.1382757127137834e-16 9.423157488002494e-34 -1.5275100440840992e-16 3.4664802897851104" Properties=species:S:1:pos:R:3:tags:I:1 spacegroup="P 1" unit_cell=conventional n_minim_iter=2 stress="-0.07367611240253001 1.3547059010859491e-17 3.7319220851806476e-18 1.3547059010859491e-17 -0.07367611240253061 4.227828438351172e-16 3.7319220851806476e-18 4.227828438351172e-16 -0.07368072471647746" pbc="T T T"
Ti       1.28222194       1.28222194       1.73324015        0
Al       0.00000000      -0.00000000       0.00000000        1
