2
Lattice="2.6961172212599527 2.9797348259958352e-52 -6.9891482101450585e-34 2.591126947451503e-50 2.6961172212599527 1.047913450575833e-16 8.868126684486879e-34 -1.2858985301375418e-16 3.4497711146249306" Properties=species:S:1:pos:R:3:tags:I:1 spacegroup="P 1" unit_cell=conventional n_minim_iter=2 stress="-0.20839668287051671 -1.839348751600427e-17 9.198129894969355e-18 -1.839348751600427e-17 -0.20839668287051644 1.3428498406654712e-19 9.198129894969355e-18 1.3428498406654712e-19 -0.20998139198937363" pbc="T T T"
Ti       1.34805861       1.34805861       1.72488556        0
Al       0.00000000      -0.00000000       0.00000000        1
