2
Lattice="2.6796611633849343 -2.3089357086253563e-68 -1.9012633378253453e-52 2.3512382722366374e-68 2.6796611633849343 5.96216918327731e-18 2.703080695326198e-52 -8.476587172831782e-18 3.8097512410069676" Properties=species:S:1:pos:R:3:tags:I:1 spacegroup="P 1" unit_cell=conventional n_minim_iter=1 stress="-0.09057285426452819 -3.2092880368112404e-18 -1.2017535824933429e-18 -3.2092880368112404e-18 -0.09057285426452824 -4.257196927298914e-18 -1.2017535824933429e-18 -4.257196927298914e-18 -0.09103744895647267" pbc="T T T"
Ti       1.33983058       1.33983058       1.90487563        0
Al       0.00000000      -0.00000000       0.00000000        1
