65
Lattice="10.98385004114948 0.0 0.0 0.0 10.98385004114948 0.0 0.0 0.0 10.98385004114948" Properties=species:S:1:pos:R:3:forces:R:3 cutoff=-1.0 nneightol=1.2 Zs=14 interstitial_position="mean 1 3 4 5 7 18" interstitial_constraint="plane atoms 4 5 7" bulk_struct_test=bulk_Si_diamond supercell_a1_in_bulk_lattice_coords="2 2 -2" n_minim_iter=0 energy=-10603.13943155994 stress="0.004105680459731755 -0.0008245347244543995 0.0008245346891431522 -0.0008245347244543995 0.004105680459711964 -0.0008245347244548583 0.0008245346891431522 -0.0008245347244548583 0.00410568045973196" free_energy=-10603.13943155994 pbc="T T T"
Si      -0.06133231      -0.03985806      -0.06133231      -0.00488441       0.00444434      -0.00488441
Si       2.76922668       2.72269833      -0.11640559       0.00234172      -0.00234172      -0.00004774
Si       2.74804559      -0.02586493       2.74804559      -0.00085674       0.00020442      -0.00085674
Si      -0.11640559       2.72269833       2.76922668      -0.00004774      -0.00234172       0.00234172
Si       1.34971708       1.25657567       1.34971708      -0.00234172      -0.00004774      -0.00234172
Si       4.23534935       4.14220794       1.34971708       0.00004775       0.00234172      -0.00234173
Si       4.08398841       1.40793661       4.08398841       0.00426040      -0.00426039       0.00426040
Si       1.34971708       4.14220794       4.23534935      -0.00234173       0.00234172       0.00004775
Si       0.01577903      -0.02611721       5.51804223      -0.00398770       0.00524967      -0.00524967
Si       2.74804559       2.74387942       5.51778995      -0.00085674       0.00085674      -0.00020442
Si       2.74313667      -0.00821538       8.22997447       0.00091001       0.00209633       0.00109880
Si      -0.00277933       2.74602656       8.22961000       0.00366954       0.00427661      -0.00490057
Si       1.37304531       1.37020192       6.87318380       0.00427662       0.00366954       0.00490057
Si       4.12172309       4.11887971       6.87318380      -0.00366954      -0.00427661       0.00490057
Si       4.18027607       1.31164894       9.57101072       0.00488441      -0.00488440       0.00444434
Si       1.37089817       4.12102685       9.58500385       0.00085674      -0.00085674       0.00020442
Si       0.03495535       5.45696966       0.03495535      -0.00426040       0.00426040      -0.00426040
Si       2.74589845       8.24616505      -0.00277933      -0.00427662       0.00490057       0.00366954
Si       2.76922668       5.60833060       2.76922668       0.00234172       0.00004776       0.00234172
Si      -0.00277933       8.24616505       2.74589845       0.00366954       0.00490057      -0.00427662
Si       1.37089817       6.89077121       1.37089817       0.00085674      -0.00020442       0.00085674
Si       4.12172309       9.60259126       1.37304531      -0.00366954      -0.00490057       0.00427662
Si       4.18027607       6.90476434       4.18027607       0.00488440      -0.00444434       0.00488440
Si       1.37304531       9.60259126       4.12172309       0.00427662      -0.00490057      -0.00366954
Si      -0.06133231       5.55325733       5.53178308      -0.00488440       0.00488440      -0.00444434
Si       2.74313667       8.24580058       5.50014040       0.00091001      -0.00109880      -0.00209633
Si       2.74589845       5.49470435       8.22961000      -0.00427662      -0.00366954      -0.00490057
Si       0.00153828       8.22327288       8.25250217      -0.00298483       0.00116274      -0.00116275
Si       1.37580709       6.87312166       6.87281933      -0.00091001      -0.00209633      -0.00109880
Si       4.11740548       9.62548343       6.85029163       0.00298483      -0.00116274       0.00116274
Si       4.10316473       6.89102348       9.58475158       0.00398770      -0.00524967       0.00524967
Si       1.37580709       9.60295573       9.60265340      -0.00091001       0.00109880       0.00209633
Si       5.51804223      -0.02611721       0.01577903      -0.00524967       0.00524967      -0.00398770
Si       8.22961000       2.74602656      -0.00277933      -0.00490057       0.00427661       0.00366954
Si       8.22997447      -0.00821538       2.74313667       0.00109880       0.00209633       0.00091001
Si       5.51778995       2.74387942       2.74804559      -0.00020442       0.00085674      -0.00085674
Si       6.87318380       1.37020192       1.37304531       0.00490057       0.00366954       0.00427662
Si       9.58500385       4.12102685       1.37089817       0.00020442      -0.00085674       0.00085674
Si       9.57101072       1.31164894       4.18027607       0.00444434      -0.00488440       0.00488441
Si       6.87318380       4.11887971       4.12172309       0.00490057      -0.00427661      -0.00366954
Si       5.46371193       0.02821309       5.46371193       0.00081094      -0.00081094       0.00081094
Si       8.22997447       2.74878835       5.50014040       0.00109880      -0.00091001      -0.00209633
Si       8.22380526      -0.00042785       8.22380526      -0.00304232       0.00837580      -0.00304232
Si       5.50014040       2.74878835       8.22997447      -0.00209633      -0.00091001       0.00109880
Si       6.85029163       1.37451954       6.85029163       0.00116274      -0.00298483       0.00116274
Si       9.60265340       4.11611793       6.87281933       0.00209633       0.00091001      -0.00109880
Si       9.58475158       1.38876029       9.58475158       0.00524967      -0.00398770       0.00524967
Si       6.87281933       4.11611793       9.60265340      -0.00109880       0.00091001       0.00209633
Si       5.53178308       5.55325733      -0.06133231      -0.00444434       0.00488440      -0.00488440
Si       8.25250217       8.22327288       0.00153828      -0.00116275       0.00116274      -0.00298483
Si       8.22961000       5.49470435       2.74589845      -0.00490057      -0.00366954      -0.00427662
Si       5.50014040       8.24580058       2.74313667      -0.00209633      -0.00109880       0.00091001
Si       6.87281933       6.87312166       1.37580709      -0.00109880      -0.00209633      -0.00091001
Si       9.60265340       9.60295573       1.37580709       0.00209633       0.00109880      -0.00091001
Si       9.58475158       6.89102348       4.10316473       0.00524967      -0.00524967       0.00398770
Si       6.85029163       9.62548343       4.11740548       0.00116274      -0.00116274       0.00298483
Si       5.51804223       5.47614599       5.51804223      -0.00524967       0.00398770      -0.00524967
Si       8.22380526       8.25196980       5.49235287      -0.00304232       0.00304232      -0.00837580
Si       8.25250217       5.49038673       8.25250217      -0.00116275       0.00298483      -0.00116275
Si       5.49235287       8.25196980       8.22380526      -0.00837580       0.00304232      -0.00304232
Si       6.87898854       6.86533412       6.87898854       0.00304232      -0.00837580       0.00304232
Si       9.61044094       9.59678651       6.87898854       0.00837580      -0.00304232       0.00304232
Si       9.63908187       6.83669318       9.63908187      -0.00081094       0.00081094      -0.00081094
Si       6.87898854       9.59678651       9.61044094       0.00304232      -0.00304232       0.00837580
Si       2.05947188       3.43245314       2.05947188      -0.00000001      -0.00000001      -0.00000001
