2
Lattice="5.0392586228087834 2.6096253771406315e-17 1.4967336443025792e-16 2.6096253771405628e-17 5.0392586228087834 -2.6695483134353336e-16 2.5196293114043917 2.5196293114043917 1.3897398766171516" Properties=species:S:1:pos:R:3:forces:R:3 cutoff=-1.0 nneightol=1.2 n_minim_iter=1 energy=-325.5996469723045 stress="0.058425541002085635 5.0454112811502194e-17 3.300520641697998e-17 5.0454112811502194e-17 0.058425541002085614 4.4478248701628194e-17 3.300520641697998e-17 4.4478248701628194e-17 0.04343448998126181" free_energy=-325.5996469723045 pbc="T T T"
Si      -0.00000000      -1.25981465      -0.34743497       0.00000000       0.00000000      -0.00000000
Si      -0.00000000       1.25981466       0.34743497      -0.00000000      -0.00000000       0.00000000
