2
Lattice="4.486425781286545 4.634065673144552e-17 -1.4662324317342545e-16 4.634065673144529e-17 4.486425781286545 2.4355666030115886e-16 2.2432128906432727 2.2432128906432727 1.2197139355059021" Properties=species:S:1:pos:R:3:forces:R:3 cutoff=-1.0 nneightol=1.2 n_minim_iter=1 energy=-325.0966580885542 stress="-0.24545211561520922 4.0407362831496923e-17 -3.688310678117258e-17 4.0407362831496923e-17 -0.245452115615209 2.747726756628685e-17 -3.688310678117258e-17 2.747726756628685e-17 -0.2350100929550447" free_energy=-325.0966580885542 pbc="T T T"
Si      -0.00000000      -1.12160644      -0.30492848      -0.00000000       0.00000000       0.00000000
Si      -0.00000000       1.12160645       0.30492848       0.00000000      -0.00000000      -0.00000000
