2
Lattice="4.686492702163507 2.426942374021975e-17 1.3919569972768969e-16 2.4269423740219037e-17 4.686492702163507 -2.482670492909591e-16 2.3432463510817536 2.3432463510817536 1.292453171621834" Properties=species:S:1:pos:R:3:forces:R:3 cutoff=-1.0 nneightol=1.2 n_minim_iter=1 energy=-325.6827027130984 stress="-0.04117591278538109 7.255626703335342e-17 1.0823677724794241e-16 7.255626703335342e-17 -0.041175912785381144 -5.705800565125113e-17 1.0823677724794241e-16 -5.705800565125113e-17 -0.03770786829963482" free_energy=-325.6827027130984 pbc="T T T"
Si      -0.00000000      -1.17162317      -0.32311329       0.00000000      -0.00000000       0.00000000
Si      -0.00000000       1.17162318       0.32311329      -0.00000000       0.00000000       0.00000000
