2
Lattice="4.72833860117504 2.4486126489897035e-17 1.4043858423937485e-16 2.4486126489896292e-17 4.72833860117504 -2.5048383666965806e-16 2.36416930058752 2.36416930058752 1.3039935427125338" Properties=species:S:1:pos:R:3:forces:R:3 cutoff=-1.0 nneightol=1.2 n_minim_iter=1 energy=-325.705371823055 stress="-0.020063862970048484 -6.551414488637667e-18 -4.705048259801965e-17 -6.551414488637667e-18 -0.020063862970048446 4.833266959279597e-17 -4.705048259801965e-17 4.833266959279597e-17 -0.01853083859635161" free_energy=-325.705371823055 pbc="T T T"
Si      -0.00000000      -1.18208465      -0.32599839      -0.00000000       0.00000000      -0.00000000
Si      -0.00000000       1.18208465       0.32599839       0.00000000      -0.00000000       0.00000000
