2
Lattice="5.006957647560872 1.0787975469556763e-17 2.3229977379961676e-15 1.0787975469556516e-17 5.006957647560871 -3.856620378986346e-15 2.503478823780436 2.503478823780434 1.438331543695266" Properties=species:S:1:pos:R:3:forces:R:3 cutoff=-1.0 nneightol=1.2 n_minim_iter=2 energy=-325.5653134045657 stress="0.05660599166214321 1.5735433926369586e-16 -1.9220156506995152e-17 1.5735433926369586e-16 0.056605991662143 -1.2752629451624182e-16 -1.9220156506995152e-17 -1.2752629451624182e-16 0.05321651289646695" free_energy=-325.5653134045657 pbc="T T T"
Si      -0.00000000      -1.25173941      -0.35958289       0.00000000       0.00000000      -0.00000000
Si      -0.00000000       1.25173941       0.35958289      -0.00000000      -0.00000000       0.00000000
