2
Lattice="5.03668740036937 -2.8656912983861026e-17 2.441100625558477e-15 -2.865691298384729e-17 5.03668740036937 -3.8441768471993275e-15 2.5183437001846842 2.5183437001846865 1.5121295213420485" Properties=species:S:1:pos:R:3:forces:R:3 cutoff=-1.0 nneightol=1.2 n_minim_iter=2 energy=-325.3689703214287 stress="0.07806403364494632 4.8896793710152474e-17 3.49533297783118e-18 4.8896793710152474e-17 0.07806403364494613 4.931668138567742e-17 3.49533297783118e-18 4.931668138567742e-17 0.07337012381148197" free_energy=-325.3689703214287 pbc="T T T"
Si      -0.00000000      -1.25917185      -0.37803238       0.00000000       0.00000000       0.00000000
Si      -0.00000000       1.25917185       0.37803238      -0.00000000      -0.00000000      -0.00000000
