2
Lattice="4.622460155274588 4.77457668426953e-17 -1.5106905417522347e-16 4.774576684269489e-17 4.622460155274594 2.509416209424085e-16 2.311230077637294 2.311230077637297 1.2566972780930292" Properties=species:S:1:pos:R:3:forces:R:3 cutoff=-1.0 nneightol=1.2 n_minim_iter=2 energy=-325.5049207564952 stress="-0.12042338951468316 2.970933951467196e-17 -6.3671457175156e-17 2.970933951467196e-17 -0.12042338951468116 -2.5968134286468814e-16 -6.3671457175156e-17 -2.5968134286468814e-16 -0.1207277181123359" free_energy=-325.5049207564952 pbc="T T T"
Si      -0.00000000      -1.15561504      -0.31417432      -0.00000000      -0.00000000       0.00000000
Si      -0.00000000       1.15561504       0.31417432       0.00000000       0.00000000      -0.00000000
