2
Lattice="4.532680854221591 4.6818429141258216e-17 -1.4813492956646668e-16 4.68184291412579e-17 4.532680854221591 2.4606773072453195e-16 2.2663404271107956 2.2663404271107956 1.2322891924692612" Properties=species:S:1:pos:R:3:forces:R:3 cutoff=-1.0 nneightol=1.2 n_minim_iter=1 energy=-325.3991226926794 stress="-0.15710196846159372 9.200713062367982e-17 7.87320468033988e-17 9.200713062367982e-17 -0.15710196846159347 4.0349369336587547e-16 7.87320468033988e-17 4.0349369336587547e-16 -0.1537765912201314" free_energy=-325.3991226926794 pbc="T T T"
Si      -0.00000000      -1.13317021      -0.30807230       0.00000000      -0.00000000      -0.00000000
Si      -0.00000000       1.13317021       0.30807230      -0.00000000       0.00000000       0.00000000
