2
Lattice="2.8081346965409395 4.6068928160063904e-17 2.0042071465405454e-17 4.606892816006389e-17 2.8081346965409395 2.4217503020698255e-17 2.0042071465405454e-17 2.4217503020698255e-17 2.8081346965409395" Properties=species:S:1:pos:R:3:forces:R:3 n_minim_iter=1 energy=-324.1376216926732 stress="-0.3231582016409199 7.035374653992986e-16 4.417490808844807e-16 7.035374653992986e-16 -0.3231582016409202 4.250854257420611e-16 4.417490808844807e-16 4.250854257420611e-16 -0.32315820164092035" free_energy=-324.1376216926732 pbc="T T T"
Si      -0.00000000      -0.00000000      -0.00000000      -0.00000000      -0.00000000      -0.00000000
Si       1.40406735       1.40406735       1.40406735       0.00000000       0.00000000       0.00000000
