2
Lattice="2.8692001405212397 4.7070738919090593e-17 2.0477904544861173e-17 4.707073891909058e-17 2.8692001405212397 2.4744134658373916e-17 2.0477904544861173e-17 2.4744134658373916e-17 2.8692001405212397" Properties=species:S:1:pos:R:3:forces:R:3 n_minim_iter=1 energy=-324.7927973009877 stress="-0.2284644308691808 4.0570081824585086e-17 -1.0332275495536048e-17 4.0570081824585086e-17 -0.22846443086918086 3.945422309247584e-17 -1.0332275495536048e-17 3.945422309247584e-17 -0.2284644308691808" free_energy=-324.7927973009877 pbc="T T T"
Si      -0.00000000      -0.00000000      -0.00000000      -0.00000001      -0.00000001      -0.00000001
Si       1.43460007       1.43460007       1.43460007       0.00000001       0.00000001       0.00000001
