2
Lattice="3.261445582202528 5.3505731904358325e-17 2.3277418109448944e-17 5.350573190435831e-17 3.261445582202528 2.812688021558414e-17 2.3277418109448944e-17 2.812688021558414e-17 3.261445582202528" Properties=species:S:1:pos:R:3:forces:R:3 n_minim_iter=1 energy=-325.021713988288 stress="0.07499767419799558 -1.5983157470947832e-17 4.96159995152709e-17 -1.5983157470947832e-17 0.07499767419799558 5.611140339597618e-17 4.96159995152709e-17 5.611140339597618e-17 0.07499767419799563" free_energy=-325.021713988288 pbc="T T T"
Si      -0.00000000      -0.00000000      -0.00000000       0.00000000       0.00000000       0.00000000
Si       1.63072279       1.63072279       1.63072279      -0.00000000      -0.00000000      -0.00000000
