2
Lattice="3.1162967223648064 5.1124488438859286e-17 2.224146929062157e-17 5.1124488438859274e-17 3.1162967223648064 2.6875108726167727e-17 2.224146929062157e-17 2.6875108726167727e-17 3.1162967223648064" Properties=species:S:1:pos:R:3:forces:R:3 n_minim_iter=1 energy=-325.2017746458616 stress="0.01719273427778414 -5.0060115027604293e-17 3.0265998183797836e-17 -5.0060115027604293e-17 0.017192734277784148 3.5769390538190226e-17 3.0265998183797836e-17 3.5769390538190226e-17 0.017192734277784023" free_energy=-325.2017746458616 pbc="T T T"
Si      -0.00000000      -0.00000000      -0.00000000      -0.00000000      -0.00000000      -0.00000000
Si       1.55814836       1.55814836       1.55814836       0.00000000       0.00000000       0.00000000
