22
Lattice="9.001101541535121 0.16414612471051637 -1.6097101611497215 -3.640724468865383 8.23358356082505 1.6097101611496496 -4.037039230245323 -3.3327698834120745 7.498859838126981" Properties=species:S:1:pos:R:3 unique_starting_index=6 config_type=initial n_minim_iter=1 energy=-3589.730101940872 free_energy=-3589.730101940872 pbc="T T T"
Si      -3.87111597       5.75505735       7.29534823
Si       1.36231734       1.75600363       4.74979417
Si       6.34722770       2.60595494      -0.54667465
Si      -1.23520044       0.04063649       3.55079564
Si       5.98329221      -1.19362307       1.13935550
Si      -0.82781790       3.81248171       1.81322177
Si       1.88023725       3.96167629       3.94806419
Si      -4.34558882       3.52165189       8.04553449
Si      -1.17487241       6.04171885       2.64816362
Si       0.72823293       6.06270295       4.24103208
Si       1.45429728       3.67199692       1.49103747
Si       2.01720228       5.93142719       0.74984591
Si       1.15555490      -0.11972515       3.25782775
Si       1.93776026      -1.85477703       4.85069622
Si       0.49380327       0.99416896       6.74901392
Si      -1.31862714      -0.46767344       6.00782236
Si      -1.44169187       2.08329904       2.61422759
Si       2.99943994       2.83203376       5.16272644
Si      -2.73104896       0.58021422       2.33613339
Si      -5.18112497       4.47022648       6.49434240
Si       2.68018854       4.19886485      -0.00000000
Si       2.48203116      -1.58431188       2.94457484
22
Lattice="9.001478648440942 0.16403255712440418 -1.6096297297462656 -3.640986248963512 8.233877802894186 1.6096297297461941 -4.037029096653837 -3.332903496333204 7.499238812167415" Properties=species:S:1:pos:R:3 unique_starting_index=6 config_type=initial n_minim_iter=2 stress="0.00016890488489243997 0.0003492902866532768 -0.00016231122426456885 0.0003492902866532768 0.000493157259090053 0.00010360530736203583 -0.00016231122426456885 0.00010360530736203583 -5.405148271255337e-05" pbc="T T T"
Si      -3.87124108       5.75520846       7.29560880
Si       1.36244250       1.75597964       4.75006137
Si       6.34746542       2.60594829      -0.54661961
Si      -1.23518718       0.04061008       3.55097066
Si       5.98360500      -1.19376683       1.13954771
Si      -0.82787981       3.81259247       1.81325974
Si       1.88033317       3.96172427       3.94826815
Si      -4.34568481       3.52173110       8.04585842
Si      -1.17496771       6.04189061       2.64820844
Si       0.72826017       6.06282892       4.24120483
Si       1.45433604       3.67207116       1.49110358
Si       2.01721699       5.93157310       0.74985318
Si       1.15566783      -0.11978102       3.25803398
Si       1.93796631      -1.85492477       4.85103037
Si       0.49393956       0.99411012       6.74938563
Si      -1.31856599      -0.46774063       6.00813523
Si      -1.44173358       2.08335468       2.61432343
Si       2.99963302       2.83200864       5.16304031
Si      -2.73114290       0.58024517       2.33619849
Si      -5.18130858       4.47037270       6.49454511
Si       2.68024620       4.19895518      -0.00000000
Si       2.48222478      -1.58443547       2.94480454
22
Lattice="9.001431925585125 0.16385887316645134 -1.609548766429034 -3.641124118401649 8.23376229895255 1.6095487664289625 -4.036868555181174 -3.3328024642379637 7.499292878353971" Properties=species:S:1:pos:R:3 unique_starting_index=6 config_type=initial n_minim_iter=3 stress="-0.0001223342653890542 -0.0003110648091675991 7.738638665332056e-05 -0.0003110648091675991 -0.00041110125027481935 -4.9396709385146795e-05 7.738638665332056e-05 -4.9396709385146795e-05 7.622231750522638e-05" pbc="T T T"
Si      -3.87126788       5.75510838       7.29559803
Si       1.36245800       1.75588343       4.75011107
Si       6.34739785       2.60577192      -0.54656960
Si      -1.23515383       0.04060479       3.55098679
Si       5.98362502      -1.19386593       1.13963304
Si      -0.82793663       3.81251155       1.81324361
Si       1.88029028       3.96156413       3.94830609
Si      -4.34565579       3.52169659       8.04586248
Si      -1.17505518       6.04175923       2.64817349
Si       0.72818995       6.06265395       4.24120787
Si       1.45427986       3.67195335       1.49110494
Si       2.01710094       5.93139383       0.74983715
Si       1.15569922      -0.11981735       3.25808501
Si       1.93804451      -1.85495840       4.85111939
Si       0.49398635       0.99403041       6.74945572
Si      -1.31848865      -0.46774016       6.00818794
Si      -1.44174053       2.08332342       2.61431131
Si       2.99961494       2.83185236       5.16310534
Si      -2.73111650       0.58026401       2.33618753
Si      -5.18131134       4.47033877       6.49453033
Si       2.68015390       4.19881059      -0.00000000
Si       2.48228169      -1.58447179       2.94487205
22
Lattice="9.001620002298532 0.16381403814188036 -1.6092421123840046 -3.6412439695702683 8.233914018189747 1.609242112383933 -4.036644184164428 -3.333020899816184 7.499475534527971" Properties=species:S:1:pos:R:3 unique_starting_index=6 config_type=initial n_minim_iter=4 stress="7.021021890450697e-05 -0.00014759020719290903 -0.00044600000719205446 -0.00014759020719290903 -6.680039070868514e-05 0.00028468744559576655 -0.00044600000719205446 0.00028468744559576655 0.0001644190253153269" pbc="T T T"
Si      -3.87113640       5.75504678       7.29553937
Si       1.36268540       1.75579117       4.75027376
Si       6.34767491       2.60582013      -0.54631159
Si      -1.23518079       0.04047215       3.55096184
Si       5.98385804      -1.19396177       1.13995966
Si      -0.82794335       3.81253816       1.81317828
Si       1.88047392       3.96137228       3.94851369
Si      -4.34550435       3.52174976       8.04578712
Si      -1.17501326       6.04173672       2.64798670
Si       0.72841369       6.06265732       4.24116042
Si       1.45441074       3.67197950       1.49108348
Si       2.01713751       5.93141123       0.74974090
Si       1.15583246      -0.11983142       3.25831511
Si       1.93823081      -1.85514829       4.85148883
Si       0.49421111       0.99385247       6.74973463
Si      -1.31829566      -0.46782887       6.00839205
Si      -1.44165651       2.08336862       2.61417552
Si       2.99974825       2.83174366       5.16333450
Si      -2.73104686       0.58012072       2.33614103
Si      -5.18120119       4.47036729       6.49454213
Si       2.68018802       4.19886403      -0.00000000
Si       2.48248791      -1.58460343       2.94511671
22
Lattice="9.001538469038938 0.16401587915837906 -1.608580816335277 -3.6410265622292957 8.233925041639903 1.6085808163352056 -4.03615470382946 -3.3334831386106005 7.499298209315322" Properties=species:S:1:pos:R:3 unique_starting_index=6 config_type=initial n_minim_iter=5 stress="-0.00020668272320934817 0.0002627138840361273 0.000456524424546222 0.0002627138840361273 3.7199239396586865e-05 -0.00029140531430328913 0.000456524424546222 -0.00029140531430328913 -0.00037437643117911975" pbc="T T T"
Si      -3.87052259       5.75474683       7.29495412
Si       1.36305552       1.75561285       4.75025627
Si       6.34777907       2.60600845      -0.54592033
Si      -1.23500079       0.04025226       3.55079804
Si       5.98394842      -1.19396153       1.14046112
Si      -0.82776695       3.81251743       1.81292490
Si       1.88082403       3.96119360       3.94850016
Si      -4.34488790       3.52146128       8.04521854
Si      -1.17472203       6.04165682       2.64759369
Si       0.72883277       6.06258342       4.24087196
Si       1.45460520       3.67199089       1.49100268
Si       2.01728003       5.93148434       0.74958311
Si       1.15607846      -0.11994465       3.25842625
Si       1.93852521      -1.85538001       4.85170451
Si       0.49470690       0.99355029       6.74971509
Si      -1.31787772      -0.46810993       6.00829552
Si      -1.44143768       2.08325177       2.61389995
Si       3.00013097       2.83162633       5.16340450
Si      -2.73082494       0.57995623       2.33589371
Si      -5.18069242       4.47006537       6.49397907
Si       2.68025595       4.19897046      -0.00000000
Si       2.48269188      -1.58473363       2.94535869
22
Lattice="9.001949047480487 0.16389654125702666 -1.6076829502357368 -3.641307668382738 8.23424721476395 1.6076829502356655 -4.0354626137325 -3.3340676479839173 7.4997085016675" Properties=species:S:1:pos:R:3 unique_starting_index=6 config_type=initial n_minim_iter=6 stress="4.8686967953968946e-05 -2.25153924375139e-05 -0.0002030507009031674 -2.25153924375139e-05 2.7785529369172598e-05 0.00012960983056581912 -0.0002030507009031674 0.00012960983056581912 6.305887800826187e-05" pbc="T T T"
Si      -3.87003498       5.75455188       7.29471305
Si       1.36361656       1.75528118       4.75063823
Si       6.34839870       2.60610894      -0.54524643
Si      -1.23497223       0.03988075       3.55074011
Si       5.98451404      -1.19429612       1.14138731
Si      -0.82773809       3.81261529       1.81267840
Si       1.88129660       3.96068142       3.94896839
Si      -4.34436553       3.52148112       8.04495492
Si      -1.17458552       6.04160045       2.64722922
Si       0.72925550       6.06256829       4.24072656
Si       1.45482882       3.67196881       1.49106616
Si       2.01730127       5.93163560       0.74938274
Si       1.15657885      -0.12015209       3.25898194
Si       1.93910870      -1.85586442       4.85247928
Si       0.49552725       0.99304873       6.75032576
Si      -1.31729981      -0.46850090       6.00864234
Si      -1.44132564       2.08308673       2.61355642
Si       3.00070538       2.83149594       5.16399803
Si      -2.73049295       0.57983785       2.33571047
Si      -5.18047831       4.46983517       6.49383503
Si       2.68032069       4.19907188      -0.00000000
Si       2.48324322      -1.58508555       2.94601277
22
Lattice="9.004429371541805 0.16280136848769722 -1.5961145275743303 -3.643345305772186 8.236035913931772 1.5961145275742588 -4.025932741785907 -3.340638735231263 7.502388458157088" Properties=species:S:1:pos:R:3 unique_starting_index=6 config_type=initial n_minim_iter=7 stress="6.440377214351201e-05 4.154712541348335e-05 -3.441808951471558e-05 4.154712541348335e-05 0.00010297270624986164 2.1969501851036218e-05 -3.441808951471558e-05 2.1969501851036218e-05 3.7883725063902774e-05" pbc="T T T"
Si      -3.86315010       5.75014324       7.28914808
Si       1.37079401       1.75120171       4.75403123
Si       6.35362778       2.60692149      -0.53735685
Si      -1.23353221       0.03529928       3.54944957
Si       5.98980211      -1.19716958       1.15224269
Si      -0.82714337       3.81222175       1.80935490
Si       1.88650725       3.95418116       3.95293888
Si      -4.33630017       3.51999518       8.03974531
Si      -1.17234627       6.03986900       2.64290521
Si       0.73347998       6.06114996       4.23790746
Si       1.45668495       3.67063984       1.49204989
Si       2.01698014       5.93296085       0.74710314
Si       1.16304364      -0.12348848       3.26448100
Si       1.94612529      -1.86113336       4.85948324
Si       0.50639439       0.98674431       6.75528532
Si      -1.30975684      -0.47394790       6.01033857
Si      -1.43849905       2.08154442       2.60898753
Si       3.00670796       2.82789053       5.16989039
Si      -2.72676056       0.57719348       2.33249806
Si      -5.17557507       4.46696731       6.48951545
Si       2.68054203       4.19941865      -0.00000000
Si       2.48924831      -1.58891868       2.95313696
22
Lattice="8.99939741367757 0.1570384423601265 -1.5950343814096648 -3.646454046579103 8.229045374031687 1.5950343814095937 -4.020951919460076 -3.3348431686427706 7.501247646992558" Properties=species:S:1:pos:R:3 unique_starting_index=6 config_type=initial n_minim_iter=8 stress="0.00036617320462653503 -7.391598514026294e-05 0.0009344761138014216 -7.391598514026294e-05 0.0002975556833390634 -0.0005964879226840157 0.0009344761138014216 -0.0005964879226840157 0.00041335448155742035" pbc="T T T"
Si      -3.86154060       5.74628460       7.28833842
Si       1.36772859       1.74701479       4.75167859
Si       6.35462486       2.60457604      -0.53663373
Si      -1.23652654       0.02994472       3.54620635
Si       5.98724382      -1.20168021       1.15453467
Si      -0.82944890       3.81086212       1.80794361
Si       1.87975116       3.94225288       3.95504130
Si      -4.33386658       3.52570768       8.03788137
Si      -1.17094804       6.02902871       2.64291819
Si       0.72983993       6.05547145       4.23089631
Si       1.45572283       3.66441928       1.49466811
Si       2.00973222       5.92647221       0.74456719
Si       1.16440629      -0.12338538       3.27035133
Si       1.94068472      -1.85863347       4.85832946
Si       0.50854118       0.98323380       6.75668045
Si      -1.31001332      -0.47164399       6.00657953
Si      -1.43223615       2.07666098       2.60665596
Si       3.00198447       2.82281645       5.17665620
Si      -2.72439353       0.57656832       2.32459145
Si      -5.18076931       4.46939711       6.48962607
Si       2.67647168       4.19304191      -0.00000000
Si       2.48922275      -1.58890236       2.95310663
22
Lattice="9.004114665906632 0.152768790439726 -1.6033473085859846 -3.6523128885277996 8.231526576791271 1.6033473085859133 -4.027388228036514 -3.329476221313233 7.507521159774376" Properties=species:S:1:pos:R:3 unique_starting_index=6 config_type=initial n_minim_iter=9 stress="-3.3071286572745266e-05 2.6289331686256986e-06 -0.0006890795179649346 2.6289331686256986e-06 -3.063080126368295e-05 0.0004398481717810753 -0.0006890795179649346 0.0004398481717810753 -3.4749197229969026e-05" pbc="T T T"
Si      -3.87126964       5.75192634       7.29882752
Si       1.36386220       1.74879261       4.75460193
Si       6.35893965       2.60373860      -0.54119799
Si      -1.24112645       0.02970558       3.54839228
Si       5.98876515      -1.20334143       1.14957192
Si      -0.83253062       3.81226079       1.81204095
Si       1.87389298       3.94155834       3.95912888
Si      -4.34287909       3.53463579       8.04871914
Si      -1.17429705       6.02975935       2.65092389
Si       0.72258835       6.05899017       4.23411236
Si       1.45637278       3.66427534       1.49594044
Si       2.00739528       5.92517583       0.74394189
Si       1.16421467      -0.12311457       3.27340879
Si       1.93632113      -1.85599664       4.85659727
Si       0.50191287       0.98593523       6.76357927
Si      -1.31685384      -0.46574810       6.01158071
Si      -1.43231003       2.07624107       2.60905973
Si       2.99664458       2.82543348       5.18309337
Si      -2.72620787       0.57819352       2.32442779
Si      -5.19341425       4.47700145       6.50180874
Si       2.67590089       4.19214769      -0.00000000
Si       2.48836322      -1.58835371       2.95208692
22
Lattice="9.007651678067798 0.15606177899781443 -1.603349616237327 -3.6508151147266283 8.236121236986811 1.6033496162372565 -4.029907566068839 -3.3334188041392903 7.508730792171318" Properties=species:S:1:pos:R:3 unique_starting_index=6 config_type=initial n_minim_iter=10 stress="-0.00015865639685437984 -3.289540665521269e-05 0.0013283117753999244 -3.289540665521269e-05 -0.0001891937868711865 -0.0008478782067161067 0.0013283117753999244 -0.0008478782067161067 -0.0001376591714783067" pbc="T T T"
Si      -3.87403838       5.75629846       7.29763020
Si       1.36722711       1.74959067       4.75928584
Si       6.36398142       2.60877963      -0.54197786
Si      -1.24169943       0.02736277       3.54806441
Si       5.98909002      -1.20060289       1.14609533
Si      -0.82842075       3.81224220       1.81445020
Si       1.87452461       3.94399732       3.96066637
Si      -4.34294861       3.53738872       8.05070865
Si      -1.17210213       6.03236725       2.65222751
Si       0.72470613       6.06473083       4.23366539
Si       1.46043882       3.66621843       1.49632708
Si       2.01004584       5.93004688       0.74156003
Si       1.16601080      -0.12271930       3.27506540
Si       1.93524319      -1.85685034       4.85650328
Si       0.50269590       0.98644763       6.76717076
Si      -1.31932256      -0.46518450       6.01240371
Si      -1.42768595       2.07303633       2.60480177
Si       2.99568573       2.83184936       5.18992500
Si      -2.72250397       0.57608240       2.31880579
Si      -5.19928949       4.48049857       6.50727863
Si       2.67841828       4.19609151      -0.00000000
Si       2.48887206      -1.58867851       2.95269059
22
Lattice="9.007508081635562 0.15926066154691798 -1.6046205115147227 -3.6478531025253993 8.237337770265468 1.6046205115146523 -4.032388032792051 -3.334942713987148 7.50688861196432" Properties=species:S:1:pos:R:3 unique_starting_index=6 config_type=initial n_minim_iter=11 stress="0.0001718352460335093 5.348238559914698e-05 0.0010490271130836762 5.348238559914698e-05 0.00022148389408542594 -0.0006696072743668031 0.0010490271130836762 -0.0006696072743668031 0.00013769650325857062" pbc="T T T"
Si      -3.87606243       5.75971097       7.29521585
Si       1.36815689       1.74998386       4.76155712
Si       6.36571432       2.61237479      -0.54385437
Si      -1.24191190       0.02590433       3.54669590
Si       5.98643115      -1.19791901       1.14071097
Si      -0.82399172       3.81153563       1.81629327
Si       1.87362913       3.94608208       3.96019271
Si      -4.34289766       3.53895026       8.05074297
Si      -1.16996380       6.03253786       2.65247654
Si       0.72661823       6.06818923       4.23195475
Si       1.46284550       3.66711900       1.49670392
Si       2.01144146       5.93293369       0.74001594
Si       1.16586226      -0.12105279       3.27493385
Si       1.93201720      -1.85636284       4.85441207
Si       0.50224634       0.98740503       6.76687267
Si      -1.32199942      -0.46414627       6.01018469
Si      -1.42278975       2.06955989       2.60084868
Si       2.99285080       2.83711730       5.19408039
Si      -2.71901259       0.57420494       2.31280822
Si      -5.20402264       4.48316867       6.51066044
Si       2.67982749       4.19829922      -0.00000000
Si       2.48756002      -1.58784102       2.95113405
22
Lattice="9.006754898095304 0.1601122852008866 -1.6048554427240553 -3.646763531998592 8.237013140691293 1.604855442723985 -4.032754253788514 -3.3350798075671135 7.505795529854636" Properties=species:S:1:pos:R:3 unique_starting_index=6 config_type=initial n_minim_iter=12 stress="0.0001702024751873182 1.548534643167764e-05 0.00011586072561862548 1.548534643167764e-05 0.00018457779722585036 -7.395536659332669e-05 0.00011586072561862548 -7.395536659332669e-05 0.0001603179541195273" pbc="T T T"
Si      -3.87715479       5.76150510       7.29372686
Si       1.36816134       1.74925501       4.76320829
Si       6.36622949       2.61304838      -0.54458824
Si      -1.24177777       0.02518713       3.54553099
Si       5.98464877      -1.19750730       1.13773180
Si      -0.82118110       3.81083844       1.81692410
Si       1.87289230       3.94629169       3.96026454
Si      -4.34286980       3.53956405       8.05038376
Si      -1.16938766       6.03138220       2.65235209
Si       0.72741685       6.06920908       4.23084732
Si       1.46363201       3.66701294       1.49715885
Si       2.01121479       5.93342412       0.73929591
Si       1.16608486      -0.12003612       3.27494821
Si       1.93036017      -1.85646390       4.85344344
Si       0.50242040       0.98726881       6.76649962
Si      -1.32279298      -0.46361461       6.00863667
Si      -1.41949096       2.06722244       2.59811527
Si       2.99062205       2.83914258       5.19702557
Si      -2.71660343       0.57289893       2.30876996
Si      -5.20680833       4.48471502       6.51253570
Si       2.67999568       4.19856272      -0.00000000
Si       2.48700032      -1.58748376       2.95047004
22
Lattice="9.005757725455986 0.15821129230426076 -1.6048423376007908 -3.6480680068373057 8.235308302675291 1.6048423376007204 -4.031592383508032 -3.333283943257934 7.505977814917756" Properties=species:S:1:pos:R:3 unique_starting_index=6 config_type=initial n_minim_iter=13 stress="-0.00038872966436441665 1.4254243942660718e-05 -0.0007986474343181761 1.4254243942660718e-05 -0.0003754971966349404 0.0005097867585860723 -0.0007986474343181761 0.0005097867585860723 -0.0003978281307874505" pbc="T T T"
Si      -3.87868621       5.76294333       7.29416226
Si       1.36658822       1.74726095       4.76528609
Si       6.36557265       2.61004034      -0.54481137
Si      -1.24117509       0.02569225       3.54464848
Si       5.98366705      -1.19987887       1.13584938
Si      -0.81937439       3.81014590       1.81665789
Si       1.87195695       3.94524105       3.96132933
Si      -4.34415984       3.53949769       8.05078918
Si      -1.17130486       6.02888913       2.65263025
Si       0.72656642       6.06839375       4.23112198
Si       1.46283497       3.66610473       1.49782190
Si       2.00899689       5.93118180       0.73947909
Si       1.16686523      -0.11935490       3.27485583
Si       1.93006787      -1.85745666       4.85334756
Si       0.50248214       0.98610886       6.76649872
Si      -1.32211933      -0.46292407       6.00815592
Si      -1.41719565       2.06562308       2.59608761
Si       2.98783401       2.83851895       5.20000314
Si      -2.71483341       0.57190334       2.30597468
Si      -5.20936800       4.48621466       6.51473254
Si       2.67884486       4.19675980      -0.00000000
Si       2.48708267      -1.58753632       2.95056774
22
Lattice="9.00783201765469 0.15418539274347262 -1.6068078334264806 -3.652593022301045 8.235494824663407 1.6068078334264104 -4.032023770513466 -3.3303067308614542 7.509892382689261" Properties=species:S:1:pos:R:3 unique_starting_index=6 config_type=initial n_minim_iter=14 stress="0.00024416043624543045 -2.4050460375055615e-05 6.768351070535614e-06 -2.4050460375055615e-05 0.0002218339668990802 -4.320324110684708e-06 6.768351070535614e-06 -4.320324110684708e-06 0.0002595121476925394" pbc="T T T"
Si      -3.88256490       5.76507317       7.29972265
Si       1.36413248       1.74647261       4.76773595
Si       6.36655950       2.60609746      -0.54578971
Si      -1.24173002       0.02665757       3.54560977
Si       5.98562880      -1.20348694       1.13534860
Si      -0.82076593       3.81068816       1.81697756
Si       1.87018407       3.94428194       3.96428261
Si      -4.34858310       3.54171001       8.05568209
Si      -1.17507449       6.02809025       2.65577467
Si       0.72291881       6.06852345       4.23386963
Si       1.46208668       3.66567917       1.49869533
Si       2.00621956       5.92845410       0.73988087
Si       1.16808720      -0.11963166       3.27602275
Si       1.93049894      -1.85823505       4.85411771
Si       0.50074589       0.98541848       6.77001151
Si      -1.32262167      -0.46080477       6.01119705
Si      -1.41752021       2.06581764       2.59659517
Si       2.98538545       2.83739266       5.20353945
Si      -2.71525552       0.57218539       2.30635293
Si      -5.21401129       4.48916591       6.52010504
Si       2.67761950       4.19484011      -0.00000000
Si       2.48790412      -1.58806067       2.95154227
22
Lattice="9.007475162611756 0.1551749395690092 -1.6058784231491097 -3.6515452090600653 8.235587753957093 1.6058784231490393 -4.031585834370934 -3.3313480327783798 7.509059163535527" Properties=species:S:1:pos:R:3 unique_starting_index=6 config_type=initial n_minim_iter=15 stress="-0.0008626994252578297 3.297137868737357e-05 0.00016619403632508507 3.297137868737357e-05 -0.000832091509078092 -0.00010608375542247401 0.00016619403632508507 -0.00010608375542247401 -0.0008837455143943821" pbc="T T T"
Si      -3.88090653       5.76411183       7.29965668
Si       1.36378714       1.74735758       4.76675024
Si       6.36520880       2.60511940      -0.54624889
Si      -1.23937949       0.02775919       3.54538884
Si       5.98665799      -1.20347935       1.13643049
Si      -0.82085037       3.81083928       1.81528091
Si       1.87132258       3.94691898       3.96367032
Si      -4.34846365       3.53903177       8.05530805
Si      -1.17546212       6.02882953       2.65475764
Si       0.72424397       6.06870926       4.23459414
Si       1.46231112       3.66679965       1.49873480
Si       2.00630411       5.92865991       0.74029455
Si       1.16813575      -0.11939275       3.27446502
Si       1.93177064      -1.85931670       4.85430152
Si       0.50133492       0.98454052       6.76876461
Si      -1.32126190      -0.46117075       6.01032436
Si      -1.41862691       2.06688101       2.59602215
Si       2.98586945       2.83748852       5.20120122
Si      -2.71493440       0.57162346       2.30785794
Si      -5.21109506       4.48766140       6.51891543
Si       2.67796498       4.19538135      -0.00000000
Si       2.48794466      -1.58808654       2.95159037
22
Lattice="9.007385479783142 0.156277661816162 -1.603953267830291 -3.6505072236768026 8.235970671321871 1.6039532678302206 -4.030437240406203 -3.3331266713968115 7.5083902547712755" Properties=species:S:1:pos:R:3 unique_starting_index=6 config_type=initial n_minim_iter=16 stress="0.0006423885000702384 9.564830776186495e-05 0.0005460119885671035 9.564830776186495e-05 0.0007311805222559358 -0.0003485263582848508 0.0005460119885671035 -0.0003485263582848508 0.0005813348403646329" pbc="T T T"
Si      -3.87881346       5.76323871       7.30027757
Si       1.36296416       1.74846547       4.76644134
Si       6.36656522       2.60443277      -0.54821815
Si      -1.23570394       0.02627933       3.54320715
Si       5.98906831      -1.20443532       1.13799564
Si      -0.82033697       3.81097448       1.81206595
Si       1.87052969       3.94933685       3.96518310
Si      -4.34850894       3.53819439       8.05660840
Si      -1.17473512       6.02709747       2.65397620
Si       0.72642604       6.07067538       4.23304941
Si       1.46511812       3.66785081       1.50080933
Si       2.00421442       5.92924183       0.73849406
Si       1.17014903      -0.11836436       3.27534084
Si       1.93104208      -1.86116514       4.85441405
Si       0.50389113       0.98111142       6.76989619
Si      -1.32034164      -0.45996073       6.00758092
Si      -1.41558192       2.06523577       2.59097433
Si       2.98357611       2.83969945       5.20398420
Si      -2.71081485       0.56869549       2.30440605
Si      -5.21168279       4.48833497       6.52136919
Si       2.67843913       4.19612417      -0.00000000
Si       2.48847412      -1.58842450       2.95221849
22
Lattice="9.00790260574603 0.15625228050356163 -1.6050637309727789 -3.6507479645147463 8.236429045973736 1.605063730972709 -4.0315114607024105 -3.332745689725131 7.508839805196039" Properties=species:S:1:pos:R:3 unique_starting_index=6 config_type=initial n_minim_iter=17 stress="0.00015425550106477795 1.4117206881493814e-05 3.083545524715089e-05 1.4117206881493814e-05 0.00016736075483979557 -1.968266112481903e-05 3.083545524715089e-05 -1.968266112481903e-05 0.00014524430178366148" pbc="T T T"
Si      -3.87999577       5.76408077       7.30160001
Si       1.36232695       1.74908953       4.76678053
Si       6.36708451       2.60429931      -0.54935057
Si      -1.23563703       0.02634332       3.54314717
Si       5.98934555      -1.20439495       1.13699554
Si      -0.82039037       3.81109594       1.81230353
Si       1.86976174       3.95023846       3.96569263
Si      -4.34992285       3.53899020       8.05819037
Si      -1.17496240       6.02728534       2.65489507
Si       0.72590848       6.07157236       4.23334207
Si       1.46548888       3.66812289       1.50101661
Si       2.00408536       5.92942488       0.73832793
Si       1.17010633      -0.11807519       3.27549773
Si       1.93023396      -1.86091122       4.85394473
Si       0.50303728       0.98145241       6.77051187
Si      -1.32132517      -0.45912890       6.00782320
Si      -1.41538206       2.06509360       2.59072124
Si       2.98257157       2.84065997       5.20467871
Si      -2.71059490       0.56856969       2.30416109
Si      -5.21321085       4.48929575       6.52318229
Si       2.67857732       4.19634067      -0.00000000
Si       2.48819557      -1.58824670       2.95188804
22
Lattice="9.00840300097591 0.15630086295000967 -1.6057400650478924 -3.6509145723928302 8.236903384940247 1.605740065047823 -4.032248447536249 -3.332643252758365 7.509235457184454" Properties=species:S:1:pos:R:3 unique_starting_index=6 config_type=initial n_minim_iter=18 stress="-0.00046356629863061606 -5.0547487950761586e-05 -0.00034284150209542533 -5.0547487950761586e-05 -0.0005104904291072707 0.00021884006701808237 -0.00034284150209542533 0.00021884006701808237 -0.00043130111281396854" pbc="T T T"
Si      -3.88095731       5.76478777       7.30282016
Si       1.36175657       1.74972837       4.76729510
Si       6.36788461       2.60384379      -0.55056477
Si      -1.23504180       0.02627617       3.54262331
Si       5.98992855      -1.20449234       1.13620029
Si      -0.82024785       3.81109820       1.81215536
Si       1.86904702       3.95137545       3.96661214
Si      -4.35140987       3.53962660       8.05980022
Si      -1.17487555       6.02720211       2.65564930
Si       0.72561912       6.07252083       4.23322409
Si       1.46589969       3.66824791       1.50115506
Si       2.00412682       5.92974717       0.73804892
Si       1.17035148      -0.11783590       3.27601137
Si       1.92938491      -1.86076504       4.85358615
Si       0.50257517       0.98172814       6.77118654
Si      -1.32212171      -0.45860121       6.00808039
Si      -1.41491805       2.06480336       2.59004977