22
Lattice="9.16657557236885 -0.10082494430523334 -1.377179887469402 -3.9507345703771555 8.272120027403513 1.3771798874693895 -3.768767551465645 -3.3446641868535707 7.780906788799909" Properties=species:S:1:pos:R:3 unique_starting_index=6 config_type=initial n_minim_iter=1 energy=-3587.538916892944 free_energy=-3587.538916892944 pbc="T T T"
Si      -3.71200146       5.65718676       7.59121855
Si       1.27672194       1.64759915       4.79554551
Si       6.31373733       2.97344937      -0.93553133
Si      -0.94066435      -0.65283363       4.05880042
Si       6.35474641      -1.59376810       1.60818139
Si      -1.02531999       3.94224399       1.56686812
Si       1.25095417       3.69854474       3.72210637
Si      -3.72988025       3.63410133       8.71643811
Si      -1.20710422       6.06554744       2.63804325
Si       0.59075144       5.82851071       4.28102165
Si       1.24146033       3.57771624       1.37028956
Si       2.07881994       5.80353925       0.87852251
Si       1.26928383      -0.35492127       3.49988513
Si       2.24121586      -1.88587507       5.14286353
Si       0.62013176       0.98432218       6.90238428
Si      -1.04626512      -0.71231585       6.41061723
Si      -1.89038488       2.17751845       1.94937650
Si       2.64992341       3.08797469       5.01586847
Si      -2.08347304       0.35904533       2.76503832
Si      -4.94849416       4.12954829       7.20871017
Si       2.60792050       4.08564755      -0.00000000
Si       2.69890401      -1.72274456       3.20186345
22
Lattice="9.166642044031827 -0.10300176702905271 -1.3772502200034253 -3.952737049431439 8.271263842090583 1.3772502200034131 -3.7678588321197743 -3.3431098408849 7.782134045936119" Properties=species:S:1:pos:R:3 unique_starting_index=6 config_type=initial n_minim_iter=2 stress="-9.243231391820557e-05 -0.0004702260366009623 0.001503096148087995 -0.0004702260366009623 -0.000528951491887226 -0.0009594452824701619 0.001503096148087995 -0.0009594452824701619 0.00020771854056026175" pbc="T T T"
Si      -3.71327890       5.65675605       7.59231983
Si       1.27642528       1.64690024       4.79632021
Si       6.31302728       2.97130263      -0.93563259
Si      -0.94042712      -0.65251946       4.05947115
Si       6.35521255      -1.59495392       1.60856361
Si      -1.02626660       3.94160211       1.56706444
Si       1.25011197       3.69741352       3.72266289
Si      -3.73061980       3.63410780       8.71776663
Si      -1.20855029       6.06449183       2.63837179
Si       0.58943587       5.82706033       4.28167260
Si       1.24062519       3.57661277       1.37050259
Si       2.07744658       5.80178363       0.87863274
Si       1.26943084      -0.35517085       3.50046144
Si       2.24177590      -1.88607681       5.14376225
Si       0.62002625       0.98389167       6.90350130
Si      -1.04600570      -0.71198360       6.41163145
Si      -1.89084107       2.17745670       1.94969863
Si       2.64932771       3.08657348       5.01674442
Si      -2.08358449       0.35946941       2.76538962
Si      -4.94945187       4.12980666       7.20968563
Si       2.60695250       4.08413104      -0.00000000
Si       2.69939161      -1.72305580       3.20244191
22
Lattice="9.167249992343026 -0.10370881176402547 -1.3799830189300175 -3.953634332778919 8.271517605761497 1.3799830189300053 -3.770017685996435 -3.3414128335116566 7.783026917312025" Properties=species:S:1:pos:R:3 unique_starting_index=6 config_type=initial n_minim_iter=3 stress="0.0025610176659933027 -0.0008567138812445282 -0.003104672439527984 -0.0008567138812445282 0.001765714960336125 0.001981751686010069 -0.003104672439527984 0.001981751686010069 0.003107869740636245" pbc="T T T"
Si      -3.71574219       5.65827029       7.59487398
Si       1.27490665       1.64760873       4.79647849
Si       6.31324184       2.97075026      -0.93696706
Si      -0.94156206      -0.65169860       4.05988596
Si       6.35494365      -1.59504315       1.60656541
Si      -1.02691216       3.94195607       1.56813596
Si       1.24888618       3.69797340       3.72314095
Si      -3.73337001       3.63576687       8.71999398
Si      -1.20974080       6.06490219       2.64000552
Si       0.58792797       5.82773442       4.28289689
Si       1.24004921       3.57663477       1.37094791
Si       2.07693864       5.80181555       0.87913008
Si       1.26851828      -0.35455779       3.50013002
Si       2.24049050      -1.88528688       5.14302139
Si       0.61811020       0.98514139       6.90389683
Si      -1.04790211      -0.71079978       6.41207900
Si      -1.89141998       2.17767460       1.95099417
Si       2.64804032       3.08722788       5.01703208
Si      -2.08460776       0.36027420       2.76599484
Si      -4.95206663       4.13132407       7.21201577
Si       2.60680783       4.08390440      -0.00000000
Si       2.69861615      -1.72256082       3.20152195
22
Lattice="9.165991386910553 -0.103500377174355 -1.3801801653123897 -3.9529153777259327 8.27046373848114 1.3801801653123777 -3.7699140388605064 -3.340884043612741 7.781853870926355" Properties=species:S:1:pos:R:3 unique_starting_index=6 config_type=initial n_minim_iter=4 stress="-0.0020616921811240315 -0.0005695229424994038 -0.0024647107867813195 -0.0005695229424994038 -0.002590390439709425 0.0015732560688373242 -0.0024647107867813195 0.0015732560688373242 -0.001698157873497269" pbc="T T T"
Si      -3.71531110       5.65778876       7.59402492
Si       1.27445731       1.64750695       4.79565888
Si       6.31238964       2.97054114      -0.93704327
Si      -0.94159228      -0.65152116       4.05931873
Si       6.35388555      -1.59475634       1.60601482
Si      -1.02670782       3.94161928       1.56800911
Si       1.24862384       3.69770405       3.72253513
Si      -3.73309726       3.63543463       8.71889714
Si      -1.20964463       6.06423908       2.63987926
Si       0.58776764       5.82724858       4.28245905
Si       1.23991230       3.57620195       1.37080810
Si       2.07675277       5.80126451       0.87901261
Si       1.26824875      -0.35437897       3.49939482
Si       2.23995218      -1.88495004       5.14197461
Si       0.61779228       0.98526959       6.90284126
Si      -1.04813341      -0.71057740       6.41104577
Si      -1.89101431       2.17727800       1.95108662
Si       2.64774468       3.08695930       5.01641437
Si      -2.08462325       0.36042175       2.76543950
Si      -4.95177456       4.13099998       7.21094742
Si       2.60653800       4.08348168      -0.00000000
Si       2.69803867      -1.72219221       3.20083685
22
Lattice="9.166279910942865 -0.10319146966023982 -1.3798965405119359 -3.952756655691457 8.270855500252207 1.3798965405119235 -3.7698985898456963 -3.3413869809674863 7.781930866654014" Properties=species:S:1:pos:R:3 unique_starting_index=6 config_type=initial n_minim_iter=5 stress="0.0013644644614510977 -0.00018577500807834933 -0.00012994827818364757 -0.00018577500807834933 0.0011920062232739206 8.294762954834248e-05 -0.00012994827818364757 8.294762954834248e-05 0.0014830470309396342" pbc="T T T"
Si      -3.71494218       5.65794216       7.59393861
Si       1.27464221       1.64749311       4.79571408
Si       6.31262708       2.97096754      -0.93694114
Si      -0.94147779      -0.65167912       4.05942501
Si       6.35409913      -1.59478848       1.60632024
Si      -1.02654983       3.94190732       1.56788879
Si       1.24889505       3.69793912       3.72250585
Si      -3.73279501       3.63532658       8.71887200
Si      -1.20950591       6.06455574       2.63979092
Si       0.58810558       5.82761383       4.28251249
Si       1.24012992       3.57638677       1.37081835
Si       2.07704456       5.80174068       0.87892861
Si       1.26845322      -0.35442161       3.49941837
Si       2.24019644      -1.88519384       5.14213994
Si       0.61811679       0.98523179       6.90300225
Si      -1.04804194      -0.71080512       6.41111252
Si      -1.89080116       2.17726776       1.95119870
Si       2.64824478       3.08700733       5.01667653
Si      -2.08477479       0.36039266       2.76525433
Si      -4.95169941       4.13107783       7.21062871
Si       2.60676163       4.08383202      -0.00000000
Si       2.69819066      -1.72228922       3.20101716
22
Lattice="9.162798309309238 -0.09752712456125984 -1.3929080161622465 -3.946152982726528 8.27008228701649 1.392908016162234 -3.7824272143471522 -3.336831796227278 7.775948499729597" Properties=species:S:1:pos:R:3 unique_starting_index=6 config_type=initial n_minim_iter=6 stress="-0.000986185319084743 0.0008231098386949198 0.000545974031310984 0.0008231098386949198 -0.00022207784274629386 -0.0003485021296552791 0.000545974031310984 -0.0003485021296552791 -0.0015115868749996633" pbc="T T T"
Si      -3.71801798       5.66462434       7.59803153
Si       1.26557050       1.65200684       4.78889055
Si       6.31096018       2.97508186      -0.94290417
Si      -0.94724141      -0.64760846       4.05706139
Si       6.34600244      -1.59089712       1.59414993
Si      -1.02511873       3.94571269       1.57082498
Si       1.24560739       3.70387135       3.71888711
Si      -3.74088994       3.64010200       8.71885266
Si      -1.21207071       6.06715688       2.64544041
Si       0.58602841       5.83485970       4.28607394
Si       1.24097773       3.57679776       1.37142484
Si       2.07922357       5.80628161       0.87843511
Si       1.26337150      -0.34869989       3.48987455
Si       2.23110702      -1.88186994       5.13050809
Si       0.60878963       0.99367527       6.89751338
Si      -1.06055471      -0.70530790       6.40452366
Si      -1.88472135       2.18084285       1.95910304
Si       2.64211948       3.08690328       5.01389539
Si      -2.09481894       0.35934806       2.76205311
Si      -4.95694128       4.14187968       7.20975347
Si       2.60832266       4.08627759      -0.00000000
Si       2.69018555      -1.71717946       3.19152024
22
Lattice="9.137938909177882 -0.06256158771200587 -1.486915528714874 -3.9039711693669106 8.262254569357921 1.4869155287148619 -3.870328913654827 -3.2998204971034517 7.736181101595316" Properties=species:S:1:pos:R:3 unique_starting_index=6 config_type=initial n_minim_iter=7 stress="0.005604451197119188 0.012699701499924622 0.007756519488165444 0.012699701499924622 0.017393809563747264 -0.004951084493670161 0.007756519488165444 -0.004951084493670161 -0.0025019308160909816" pbc="T T T"
Si      -3.74070348       5.71539368       7.63134606
Si       1.19617176       1.67911351       4.74132118
Si       6.29850645       2.99710482      -0.98335145
Si      -0.99010975      -0.61522116       4.03964077
Si       6.28704654      -1.57045626       1.50794439
Si      -1.01523717       3.97569406       1.59175056
Si       1.22245338       3.74277220       3.69654033
Si      -3.80357242       3.67508913       8.71953254
Si      -1.23480203       6.08017493       2.67622439
Si       0.57807899       5.87962048       4.31223883
Si       1.25265190       3.57938095       1.36846375
Si       2.09449081       5.82469631       0.86998463
Si       1.21941704      -0.30005410       3.42394227
Si       2.16458364      -1.85999633       5.05995671
Si       0.53116327       1.05228766       6.86619647
Si      -1.15102834      -0.65661994       6.36771734
Si      -1.84499267       2.20381908       2.01617738
Si       2.59772765       3.08600106       4.99525372
Si      -2.16484930       0.35571377       2.74092738
Si      -4.99854694       4.21677266       7.20691925
Si       2.61698387       4.09984649      -0.00000000
Si       2.63380500      -1.68119104       3.12463278
22
Lattice="9.110397962381004 -0.061384942422783945 -1.5399632183759764 -3.891308692463062 8.23776886080651 1.5399632183759648 -3.907604456947784 -3.259623956970079 7.712333299673402" Properties=species:S:1:pos:R:3 unique_starting_index=6 config_type=initial n_minim_iter=8 stress="0.011070568539542752 0.00808681652036751 0.00835004321899719 0.00808681652036751 0.01857770388474965 -0.005329938197944174 0.00835004321899719 -0.005329938197944174 0.005908649205583939" pbc="T T T"
Si      -3.75319665       5.74004703       7.65104904
Si       1.14445856       1.67904079       4.71206879
Si       6.27555834       2.97786690      -1.00101082
Si      -1.01201020      -0.58375894       4.02478545
Si       6.24393621      -1.57602029       1.46030129
Si      -1.01222850       3.99045240       1.60124747
Si       1.20805772       3.75304094       3.68754785
Si      -3.84863624       3.68637104       8.71334411
Si      -1.26791660       6.07017897       2.68930456
Si       0.56629486       5.88546967       4.33477339
Si       1.25003614       3.56218262       1.36840614
Si       2.08821805       5.81476213       0.86293604
Si       1.19240834      -0.26808379       3.37755991
Si       2.13218303      -1.85404492       5.02302874
Si       0.48751784       1.08261201       6.84939726
Si      -1.20280240      -0.62603682       6.34392715
Si      -1.81814627       2.21316546       2.05337497
Si       2.56491746       3.06405835       4.98900642
Si      -2.20821441       0.35691149       2.72332688
Si      -5.02598512       4.26076958       7.19892155
Si       2.60954463       4.08819196      -0.00000000
Si       2.60139675      -1.66050445       3.08618504
22
Lattice="9.109399193961348 -0.07559020532931299 -1.5238894345257912 -3.9037731193170107 8.230882272696112 1.5238894345257794 -3.8873240001063696 -3.2577264396577426 7.719134480322014" Properties=species:S:1:pos:R:3 unique_starting_index=6 config_type=initial n_minim_iter=9 stress="0.005688219697825219 -0.003711294803185999 0.00448187817002265 -0.003711294803185999 0.002242958843483802 -0.002860839522674784 0.00448187817002265 -0.002860839522674784 0.008057185001590823" pbc="T T T"
Si      -3.74936599       5.72975449       7.64653191
Si       1.15082636       1.66798075       4.71937580
Si       6.27136718       2.95804280      -0.99036289
Si      -1.00396419      -0.58123823       4.02445319
Si       6.25050491      -1.58720857       1.47586924
Si      -1.01536113       3.98460461       1.59649200
Si       1.21377390       3.74220602       3.69468129
Si      -3.84457274       3.67612068       8.70949737
Si      -1.27534362       6.06229638       2.68246765
Si       0.56431963       5.86966826       4.33679256
Si       1.24447370       3.55279999       1.37007726
Si       2.07921179       5.80375856       0.86257644
Si       1.19918768      -0.27463056       3.38234192
Si       2.14844045      -1.86220281       5.03666683
Si       0.50160926       1.07170769       6.85655804
Si      -1.18869061      -0.63313498       6.34905722
Si      -1.82135486       2.20718322       2.04758970
Si       2.57050019       3.05368236       4.99632174
Si      -2.19969594       0.35950437       2.72281274
Si      -5.02224443       4.25035152       7.19543421
Si       2.60281304       4.07764604      -0.00000000
Si       2.61103760      -1.66665832       3.09762252
22
Lattice="9.090615218312157 -0.055716365317304166 -1.5574722127680671 -3.877838128336654 8.222211430703481 1.5574722127680545 -3.919206990052132 -3.2452589146952695 7.692608153288088" Properties=species:S:1:pos:R:3 unique_starting_index=6 config_type=initial n_minim_iter=10 stress="0.014980927586927302 0.002666609137104115 -0.00446596005811672 0.002666609137104115 0.017456388190536368 0.002850678790506456 -0.00446596005811672 0.002850678790506456 0.013278798352928629" pbc="T T T"
Si      -3.75141542       5.74637966       7.64840766
Si       1.12351462       1.67798097       4.69646560
Si       6.26414247       2.93941853      -0.98977629
Si      -1.01865253      -0.54074279       3.99399601
Si       6.22040737      -1.57543014       1.43867034
Si      -1.00536637       3.99354182       1.60167270
Si       1.23195746       3.76960269       3.69861214
Si      -3.89030720       3.67419389       8.68238444
Si      -1.29792944       6.07614704       2.68731220
Si       0.56764386       5.88388010       4.36328279
Si       1.24799298       3.54749451       1.37183285
Si       2.08627036       5.81807964       0.85675539
Si       1.17879603      -0.25316436       3.32932536
Si       2.13862975      -1.86439046       5.00529595
Si       0.47974448       1.09660712       6.83585275
Si      -1.22686762      -0.61970897       6.32077530
Si      -1.77920893       2.20957552       2.08370005
Si       2.56292036       3.03710988       5.00403374
Si      -2.24341982       0.35811930       2.68857441
Si      -5.04376663       4.29338399       7.16638032
Si       2.60638854       4.08324754      -0.00000000
Si       2.58570411      -1.65048764       3.06756797
22
Lattice="9.09079385839281 0.0067425775324059835 -1.5538419032066904 -3.8212597731858926 8.248669722080974 1.5538419032066781 -3.9445254425587972 -3.2916707973053905 7.6591530532741094" Properties=species:S:1:pos:R:3 unique_starting_index=6 config_type=initial n_minim_iter=11 stress="-0.007183677052102369 0.0073423120070785115 0.010538069147220101 0.0073423120070785115 -0.0003676784641409431 -0.006726582822053375 0.010538069147220101 -0.006726582822053375 -0.011870370280412766" pbc="T T T"
Si      -3.73123408       5.74754898       7.61353298
Si       1.14671706       1.71169221       4.68371386
Si       6.29137285       2.95307270      -0.96365732
Si      -1.02330560      -0.50623537       3.94493452
Si       6.21607682      -1.52414424       1.42159728
Si      -0.98154252       3.99238607       1.59946197
Si       1.29665507       3.82241566       3.71421853
Si      -3.91470504       3.65823003       8.62281037
Si      -1.27524435       6.12222096       2.66614230
Si       0.61478243       5.91838280       4.36895096
Si       1.28042411       3.58143055       1.36502079
Si       2.12398992       5.86451148       0.84767776
Si       1.16492722      -0.24229286       3.29020209
Si       2.14555198      -1.87082788       4.99301075
Si       0.48066159       1.10395745       6.81147529
Si      -1.23505833      -0.62241647       6.29413226
Si      -1.72286879       2.20268463       2.10544696
Si       2.59950494       3.04725871       5.02177628
Si      -2.27493546       0.34916439       2.63737677
Si      -5.04247726       4.32163270       7.10754799
Si       2.63476704       4.12770615      -0.00000000
Si       2.57313421      -1.64246411       3.05265557
22
Lattice="9.093431920499075 0.012755452734421151 -1.5352176742309456 -3.8169164453533866 8.253594104601746 1.5352176742309338 -3.9323174665761718 -3.307160086392069 7.65814152432768" Properties=species:S:1:pos:R:3 unique_starting_index=6 config_type=initial n_minim_iter=12 stress="-0.014684031976810084 -0.0023996144729497636 0.006182077564023176 -0.0023996144729497636 -0.01691163669362352 -0.003946098299960456 0.006182077564023176 -0.003946098299960456 -0.013152329238845928" pbc="T T T"
Si      -3.72077759       5.73736953       7.59910501
Si       1.16310627       1.71243249       4.68804715
Si       6.29728403       2.95565672      -0.95249349
Si      -1.01640956      -0.50929762       3.94033068
Si       6.22469420      -1.51844310       1.43487669
Si      -0.97862686       3.98702004       1.59425418
Si       1.31016348       3.82282945       3.71781084
Si      -3.90264193       3.64919041       8.61063501
Si      -1.26333724       6.12525837       2.65514067
Si       0.62621272       5.91584240       4.36054852
Si       1.28383621       3.58731094       1.36510682
Si       2.12724411       5.86976948       0.84796555
Si       1.17001858      -0.24848383       3.29759300
Si       2.15550196      -1.87423799       5.00300085
Si       0.49626879       1.09363360       6.81017597
Si      -1.21895309      -0.63233506       6.29303470
Si      -1.72108991       2.19740793       2.09738781
Si       2.61377927       3.04998523       5.02510330
Si      -2.26626412       0.34777059       2.63303822
Si      -5.03146115       4.31045976       7.09597138
Si       2.63825774       4.13317478      -0.00000000
Si       2.58055723      -1.64720231       3.06146192
22
Lattice="9.083541707885674 0.04142854061624518 -1.5189926055793448 -3.786744493413798 8.256695006143579 1.5189926055793335 -3.9287819592580386 -3.331776885509681 7.634377507071063" Properties=species:S:1:pos:R:3 unique_starting_index=6 config_type=initial n_minim_iter=13 stress="0.009561684924979387 0.0013657042268505793 0.0007649046891335712 0.0013657042268505793 0.010829492404803836 -0.0004882483375785812 0.0007649046891335712 -0.0004882483375785812 0.008689938454138567" pbc="T T T"
Si      -3.69612314       5.72643050       7.56767430
Si       1.17753340       1.72078529       4.67760489
Si       6.30283058       2.96073401      -0.93332583
Si      -1.01265742      -0.49795034       3.91462319
Si       6.21984187      -1.49778397       1.43778001
Si      -0.96522162       3.98326152       1.58569580
Si       1.34269359       3.83816742       3.71975431
Si      -3.89683624       3.63174225       8.56770333
Si      -1.24280332       6.13347803       2.63363052
Si       0.65495349       5.92089016       4.34766268
Si       1.29379662       3.59953549       1.36649128
Si       2.13793125       5.88908541       0.84614711
Si       1.16603233      -0.24490602       3.28671482
Si       2.15784801      -1.87676883       5.00074699
Si       0.51282540       1.08684293       6.78823040
Si      -1.20852276      -0.64277050       6.26788623
Si      -1.69355669       2.19029550       2.10023857
Si       2.63525451       3.04817498       5.02837430
Si      -2.27341204       0.34187082       2.60600320
Si      -5.01579699       4.31092350       7.05313154
Si       2.64839861       4.14906178      -0.00000000
Si       2.57737987      -1.64517417       3.05769245
22
Lattice="9.090079021133182 0.07696841138732823 -1.535275236904591 -3.75726026813669 8.277587572733877 1.5352752369045792 -3.9605176293193445 -3.3512323264179757 7.620765893404092" Properties=species:S:1:pos:R:3 unique_starting_index=6 config_type=initial n_minim_iter=14 stress="0.00588896400130571 0.023137109673301418 -0.007386000423604043 0.023137109673301418 0.027367553675909515 0.004714577488440104 -0.007386000423604043 0.004714577488440104 -0.008879743912782328" pbc="T T T"
Si      -3.70034597       5.73530283       7.56758704
Si       1.18134292       1.75188951       4.66965546
Si       6.33051290       2.96509569      -0.91414712
Si      -1.03452955      -0.46630802       3.88002447
Si       6.22125281      -1.46514872       1.41583520
Si      -0.95764751       3.98460371       1.58845409
Si       1.38488925       3.86862719       3.74074142
Si      -3.93627036       3.63923247       8.53491301
Si      -1.21341084       6.15274030       2.63856715
Si       0.66956903       5.95296246       4.33325123
Si       1.31716653       3.64667707       1.37965345
Si       2.13471282       5.90850633       0.85181248
Si       1.15723454      -0.23760143       3.28751466
Si       2.13120951      -1.86145399       4.98219874
Si       0.50006054       1.07264473       6.76895341
Si      -1.20733765      -0.62118080       6.24111244
Si      -1.65488423       2.18660137       2.13395217
Si       2.65843816       3.05209830       5.04934794
Si      -2.31134976       0.34509596       2.57141795
Si      -5.03768095       4.34588330       7.02208896
Si       2.66640938       4.17727800      -0.00000000
Si       2.56478070      -1.63713195       3.04274533
22
Lattice="9.087699196517919 0.062181999778238364 -1.5391106182858365 -3.7696703799461377 8.269203620303799 1.5391106182858252 -3.9563555670680652 -3.3375835396336804 7.626715644738872" Properties=species:S:1:pos:R:3 unique_starting_index=6 config_type=initial n_minim_iter=15 stress="5.556599424501897e-05 0.004024860873631053 -0.00430063960962209 0.004024860873631053 0.003791915798627143 0.002745152657259135 -0.00430063960962209 0.002745152657259135 -0.0025135525432508532" pbc="T T T"
Si      -3.70747425       5.73591517       7.57591713
Si       1.17372739       1.74438284       4.67215809
Si       6.32399383       2.95368408      -0.91469173
Si      -1.03763568      -0.46505801       3.88532930
Si       6.21943237      -1.47635447       1.41544693
Si      -0.96233901       3.98366063       1.58990913
Si       1.37670294       3.85681445       3.74138634
Si      -3.93971459       3.64216365       8.54140737
Si      -1.21652614       6.13655128       2.64464174
Si       0.65790272       5.94597580       4.32716676
Si       1.31281679       3.64423199       1.38586189
Si       2.11705782       5.89238635       0.85416338
Si       1.15997105      -0.23747610       3.29954888
Si       2.12199887      -1.85744680       4.98207390
Si       0.49703398       1.06349272       6.77255226
Si      -1.20356209      -0.61250688       6.24085375
Si      -1.66012101       2.18714333       2.13772609
Si       2.65226160       3.04253613       5.05059193
Si      -2.31326065       0.34911644       2.57612372
Si      -5.04323264       4.34662628       7.02810017
Si       2.65901441       4.16569281      -0.00000000
Si       2.56567181      -1.63770077       3.04380251
22
Lattice="9.078638070187926 0.06663444502661413 -1.5435789517911236 -3.7618168914219314 8.262859252954874 1.5435789517911125 -3.9595181813595435 -3.3342334166376317 7.616682258963016" Properties=species:S:1:pos:R:3 unique_starting_index=6 config_type=initial n_minim_iter=16 stress="0.009561932705250001 0.0010716339138462485 0.004782070386592768 0.0010716339138462485 0.010556749492754175 -0.0030524560113305184 0.004782070386592768 -0.0030524560113305184 0.00887789404018502" pbc="T T T"
Si      -3.70590950       5.73602784       7.57003818
Si       1.16911764       1.74488245       4.66643142
Si       6.32035254       2.94442191      -0.90750183
Si      -1.04281166      -0.45149905       3.87338177
Si       6.20960258      -1.47252284       1.40667188
Si      -0.95820472       3.98213313       1.59022303
Si       1.38681055       3.85928632       3.74330049
Si      -3.94974544       3.63831139       8.52418408
Si      -1.21397009       6.12918555       2.64239095
Si       0.66119291       5.94694703       4.32104913
Si       1.31670409       3.64794090       1.39129966
Si       2.10845916       5.88902199       0.85288227
Si       1.15630417      -0.23073270       3.29563312
Si       2.11107901      -1.85487930       4.97429130
Si       0.49443989       1.05762695       6.76379998
Si      -1.20499715      -0.60406926       6.22538259
Si      -1.64511742       2.18561739       2.14961863
Si       2.65426441       3.03187528       5.05402633
Si      -2.32693643       0.34979483       2.56265592
Si      -5.04624264       4.35659863       7.01064257
Si       2.65841059       4.16474685      -0.00000000
Si       2.55955994      -1.63379948       3.03655165
22
Lattice="9.074390861256814 0.07234247386768508 -1.5459830231694658 -3.7548512615661713 8.261409984978423 1.5459830231694551 -3.9629038239856005 -3.3350692997895375 7.610031044073075" Properties=species:S:1:pos:R:3 unique_starting_index=6 config_type=initial n_minim_iter=17 stress="0.004357155168762054 0.0006122776585090559 0.0016507069425257463 0.0006122776585090559 0.004925543389253578 -0.0010536671195298713 0.0016507069425257463 -0.0010536671195298713 0.00396633018656644" pbc="T T T"
Si      -3.70582914       5.73596909       7.56480195
Si       1.16928751       1.74777845       4.66392800
Si       6.32148799       2.94306740      -0.90150418
Si      -1.04824879      -0.44440174       3.86504467
Si       6.20452503      -1.46627735       1.40012002
Si      -0.95471186       3.97989614       1.59121211
Si       1.39487009       3.86076551       3.74498637
Si      -3.95483774       3.63793516       8.51153522
Si      -1.20922626       6.12619295       2.64129149
Si       0.66482201       5.95058904       4.31544032
Si       1.32185107       3.65203609       1.39560720
Si       2.10419940       5.89035443       0.85074719
Si       1.15469411      -0.22674345       3.29459072
Si       2.10298169      -1.85267221       4.96873955
Si       0.49405627       1.05348822       6.75928385
Si      -1.20683520      -0.59851241       6.21442384
Si      -1.63597414       2.18411684       2.15712080
Si       2.65795452       3.02818109       5.05588951
Si      -2.33522650       0.35075076       2.55414153
Si      -5.04787320       4.36197517       6.99889326
Si       2.65976980       4.16687623      -0.00000000
Si       2.55574352      -1.63136341       3.03202401
22
Lattice="9.061325410455703 0.08663555660244451 -1.5460703904415587 -3.7363859069098377 8.255576555788414 1.546070390441548 -3.965677420878552 -3.3392521180490733 7.5913276474985905" Properties=species:S:1:pos:R:3 unique_starting_index=6 config_type=initial n_minim_iter=18 stress="0.004401522621421788 0.00760269383707496 0.0017156949297854592 0.00760269383707496 0.011459238284903007 -0.0010951497737588893 0.0017156949297854592 -0.0010951497737588893 -0.0004513734383650355" pbc="T T T"
Si      -3.70163762       5.73324401       7.54620511
Si       1.17192014       1.75210084       4.65884131
Si       6.32455352       2.92738171      -0.87319549
Si      -1.06325792      -0.41513905       3.83531770
Si       6.19149824      -1.45195935       1.38641594
Si      -0.94325660       3.97253451       1.59119292
Si       1.43035829       3.86374836       3.75600995
Si      -3.97312973       3.62992899       8.46452313
Si      -1.20217992       6.11699069       2.63453991
Si       0.67804654       5.95875862       4.30454962
Si       1.34007642       3.65540748       1.40993609
Si       2.09071615       5.89586259       0.83719871
Si       1.15376301      -0.21549139       3.28677802
Si       2.08889453      -1.85433792       4.95678774
Si       0.50195554       1.03939441       6.75412894
Si      -1.21422394      -0.58474447       6.18139156
Si      -1.60305290       2.17749536       2.18304213
Si       2.67590294       3.00828507       5.06849861
Si      -2.36360342       0.35447155       2.52282904
Si      -5.05204786       4.37903247       6.95435591