20
Lattice="10.72911490544721 -6.569177118348732e-16 -4.774759541360648e-15 1.0922595753246101e-15 17.839340116892192 -3.4705046366067615e-14 1.129236497783775e-13 4.936409062938481e-13 253.74488568893065" Properties=species:S:1:pos:R:3 unique_starting_index=4 config_type=initial n_minim_iter=1 energy=-3170.8993642000005 free_energy=-3170.8993642000005 pbc="T T T"
Si       6.60462636      10.08489852     154.69307684
Si       6.60462636       7.75444159      99.05180884
Si       4.24106227       6.35032259     138.59529342
Si       4.24106227      11.48901753     115.14959227
Si       4.12448854       1.16522846     225.92425169
Si       4.12448854      16.67411165      27.82063400
Si       6.48805264      15.26999265     242.02203512
Si       6.48805264       2.56934747      11.72285057
Si       5.56834555      14.61071671      51.46668849
Si       5.56834555       3.22862341     202.27819720
Si       5.27856486      14.33690899     205.91218537
Si       5.27856486       3.50243113      47.83270032
Si       5.16076935       5.69104665      75.40575435
Si       5.16076935      12.14829347     178.33913134
Si       5.45055005       5.41723893     174.70514316
Si       5.45055005      12.42210119      79.03974253
Si      10.26583283      10.12909580     236.79110631
Si      10.26583283       7.71024432      16.95377938
Si       0.46328207      16.62991438     109.91866347
Si       0.46328207       1.20942574     143.82622222
