2
Lattice="4.767362973777916 -1.9562341766756597e-17 1.1553761611420848e-16 -1.9562341766757173e-17 4.767362973777916 -2.658924238945391e-16 2.383681486888958 2.383681486888958 1.3155029756550956" Properties=species:S:1:pos:R:3 cutoff=-1.0 nneightol=1.2 n_minim_iter=1 energy=-325.7044224759078 free_energy=-325.7044224759078 pbc="T T T"
Si      -0.00000000      -1.19184074      -0.32887574
Si      -0.00000000       1.19184074       0.32887574
