2
Lattice="4.92507485190839 -2.0209494852778188e-17 1.1935978248423621e-16 -2.0209494852778748e-17 4.92507485190839 -2.7468856418923144e-16 2.462537425954195 2.462537425954195 1.3590218866585049" Properties=species:S:1:pos:R:3 cutoff=-1.0 nneightol=1.2 n_minim_iter=1 energy=-325.673027461672 free_energy=-325.673027461672 pbc="T T T"
Si      -0.00000000      -1.23126871      -0.33975547
Si      -0.00000000       1.23126871       0.33975547
