2
Lattice="4.641847308257876 -1.9047302245014664e-17 1.1249572883628598e-16 -1.904730224501511e-17 4.641847308257876 -2.588919784228127e-16 2.320923654128938 2.320923654128938 1.2808682661959796" Properties=species:S:1:pos:R:3 cutoff=-1.0 nneightol=1.2 n_minim_iter=1 energy=-325.5822024920092 free_energy=-325.5822024920092 pbc="T T T"
Si      -0.00000000      -1.16046183      -0.32021707
Si      -0.00000000       1.16046183       0.32021707
