2
Lattice="5.144249730471535 -2.110885449976185e-17 1.2467151207575064e-16 -2.1108854499762243e-17 5.144249730471535 -2.8691270991475896e-16 2.5721248652357676 2.5721248652357676 1.4195008572182353" Properties=species:S:1:pos:R:3 cutoff=-1.0 nneightol=1.2 n_minim_iter=1 stress="0.09390713520978104 8.162420297935123e-17 8.723368075896846e-17 8.162420297935123e-17 0.09390713520978103 -9.36742733151575e-17 8.723368075896846e-17 -9.36742733151575e-17 0.10087786588054413" pbc="T T T"
Si      -0.00000000      -1.28606243      -0.35487521
Si      -0.00000000       1.28606243       0.35487521
