2
Lattice="4.68443544228871 -1.9222057898759096e-17 1.13527857396192e-16 -1.9222057898759586e-17 4.68443544228871 -2.612672668682046e-16 2.342217721144355 2.342217721144355 1.292620007641579" Properties=species:S:1:pos:R:3 cutoff=-1.0 nneightol=1.2 n_minim_iter=1 stress="-0.06708670388246761 -1.715072712431581e-17 -1.949885943336564e-16 -1.715072712431581e-17 -0.06708670388246768 9.636127419337727e-17 -1.949885943336564e-16 9.636127419337727e-17 -0.058784737144361214" pbc="T T T"
Si      -0.00000000      -1.17110886      -0.32315500
Si      -0.00000000       1.17110886       0.32315500
