2
Lattice="5.000278433370945 -2.051808435409088e-17 1.2118235034265726e-16 -2.0518084354091385e-17 5.000278433370945 -2.7888292964254683e-16 2.5001392166854726 2.5001392166854726 1.3797735130268063" Properties=species:S:1:pos:R:3 cutoff=-1.0 nneightol=1.2 n_minim_iter=1 stress="0.05941256423294087 -1.4959920807731983e-17 3.841735267895912e-17 -1.4959920807731983e-17 0.059412564232940675 -7.228391950381969e-17 3.841735267895912e-17 -7.228391950381969e-17 0.05887764039173431" pbc="T T T"
Si      -0.00000000      -1.25006961      -0.34494338
Si      -0.00000000       1.25006961       0.34494338
