2
Lattice="4.847501688874967 -1.9891182038013485e-17 1.174797875309218e-16 -1.9891182038014114e-17 4.847501688874967 -2.703620389253541e-16 2.4237508444374836 2.4237508444374836 1.3376163995238475" Properties=species:S:1:pos:R:3 cutoff=-1.0 nneightol=1.2 n_minim_iter=1 stress="0.012412745294778732 -5.0951200049933195e-17 4.626100264812887e-17 -5.0951200049933195e-17 0.01241274529477828 -2.0117480471350666e-17 4.626100264812887e-17 -2.0117480471350666e-17 0.010326979077582772" pbc="T T T"
Si      -0.00000000      -1.21187542      -0.33440410
Si      -0.00000000       1.21187542       0.33440410
