2
Lattice="5.037046507006566 -2.066895803971573e-17 1.2207342903759562e-16 -2.0668958039716212e-17 5.037046507006566 -2.809336130653702e-16 2.518523253503283 2.518523253503283 1.3899192708687849" Properties=species:S:1:pos:R:3 cutoff=-1.0 nneightol=1.2 n_minim_iter=1 stress="0.06783716088153535 3.095242570027379e-17 -1.0276073408222042e-16 3.095242570027379e-17 0.06783716088153523 1.3980189899758903e-16 -1.0276073408222042e-16 1.3980189899758903e-16 0.06466265584101703" pbc="T T T"
Si      -0.00000000      -1.25926163      -0.34747982
Si      -0.00000000       1.25926163       0.34747982
