2
Lattice="4.6418473082578755 -1.904730224501465e-17 1.124957288362859e-16 -1.9047302245015135e-17 4.6418473082578755 -2.5889197842281263e-16 2.3209236541289378 2.3209236541289378 1.2808682661959798" Properties=species:S:1:pos:R:3 cutoff=-1.0 nneightol=1.2 n_minim_iter=1 stress="-0.06708670388246761 -1.715072712431581e-17 -1.949885943336564e-16 -1.715072712431581e-17 -0.06708670388246768 9.636127419337727e-17 -1.949885943336564e-16 9.636127419337727e-17 -0.058784737144361214" pbc="T T T"
Si      -0.00000000      -1.16046183      -0.32021707
Si      -0.00000000       1.16046183       0.32021707
