4
Lattice="3.9321902899662327 0.0 0.0 0.0 3.9321902899662327 0.0 0.0 0.0 3.9321902899662327" Properties=species:S:1:pos:R:3 n_minim_iter=1 stress="-0.011782025175856468 1.3856647628864647e-19 6.573969048134456e-19 1.3856647628864647e-19 -0.011782025175856475 -1.3999615117316052e-18 6.573969048134456e-19 -1.3999615117316052e-18 -0.011782025175856463" pbc="T T T"
Al       0.00000000       0.00000000       0.00000000
Al       1.96609514       1.96609514       0.00000000
Al       1.96609514       0.00000000       1.96609514
Al       0.00000000       1.96609514       1.96609514
