4
Lattice="4.0 0.0 0.0 0.0 4.0 0.0 0.0 0.0 4.0" Properties=species:S:1:pos:R:3 n_minim_iter=1 stress="0.006653749400587801 -1.0365039452336232e-18 2.9862906389991125e-19 -1.0365039452336232e-18 0.006653749400587801 -4.219449940322399e-19 2.9862906389991125e-19 -4.219449940322399e-19 0.006653749400587805" pbc="T T T"
Al       0.00000000       0.00000000       0.00000000
Al       2.00000000       2.00000000       0.00000000
Al       2.00000000       0.00000000       2.00000000
Al       0.00000000       2.00000000       2.00000000
