4
Lattice="4.065585427259415 0.0 0.0 0.0 4.065585427259415 0.0 0.0 0.0 4.065585427259415" Properties=species:S:1:pos:R:3 n_minim_iter=1 stress="0.03298502852639887 1.2816993759393554e-18 -5.20763962718682e-19 1.2816993759393554e-18 0.03298502852639886 2.2374611386009604e-19 -5.20763962718682e-19 2.2374611386009604e-19 0.03298502852639887" pbc="T T T"
Al       0.00000000       0.00000000       0.00000000
Al       2.03279271       2.03279271       0.00000000
Al       2.03279271       0.00000000       2.03279271
Al       0.00000000       2.03279271       2.03279271
