4
Lattice="4.279949922260316 0.0 0.0 0.0 4.279949922260316 0.0 0.0 0.0 4.279949922260316" Properties=species:S:1:pos:R:3 n_minim_iter=1 stress="0.0744401597228612 2.45352142470455e-19 1.2538606408771066e-36 2.45352142470455e-19 0.07444015972286121 1.0030885127016853e-35 1.2538606408771066e-36 1.0030885127016853e-35 0.07444015972286126" pbc="T T T"
Al       0.00000000       0.00000000       0.00000000
Al       2.13997496       2.13997496       0.00000000
Al       2.13997496       0.00000000       2.13997496
Al       0.00000000       2.13997496       2.13997496
