4
Lattice="3.897390320749315 0.0 0.0 0.0 3.897390320749315 0.0 0.0 0.0 3.897390320749315" Properties=species:S:1:pos:R:3 n_minim_iter=1 stress="-0.026582261866827415 -9.581070143257787e-19 -2.8236931061672583e-19 -9.581070143257787e-19 -0.026582261866827408 -3.139103409806277e-19 -2.8236931061672583e-19 -3.139103409806277e-19 -0.026582261866827408" pbc="T T T"
Al       0.00000000       0.00000000       0.00000000
Al       1.94869516       1.94869516       0.00000000
Al       1.94869516       0.00000000       1.94869516
Al       0.00000000       1.94869516       1.94869516
