4
Lattice="3.7515549107338066 0.0 0.0 0.0 3.7515549107338066 0.0 0.0 0.0 3.7515549107338066" Properties=species:S:1:pos:R:3 n_minim_iter=1 stress="-0.10108249565296117 2.8726450445413116e-18 2.9815559743351403e-18 2.8726450445413116e-18 -0.10108249565296115 -2.0936515561998515e-18 2.9815559743351403e-18 -2.0936515561998515e-18 -0.1010824956529612" pbc="T T T"
Al       0.00000000       0.00000000       0.00000000
Al       1.87577746       1.87577746       0.00000000
Al       1.87577746       0.00000000       1.87577746
Al       0.00000000       1.87577746       1.87577746
