2
Lattice="5.162422866581583 -3.7859747185633263e-19 -7.142257684829889e-16 -3.785974718565863e-19 5.162422866581584 1.3351342393968075e-15 2.5812114332907914 2.5812114332907914 1.3513679924256425" Properties=species:S:1:pos:R:3 cutoff=-1.0 nneightol=1.2 n_minim_iter=1 energy=-325.5116967481423 free_energy=-325.5116967481423 pbc="T T T"
Si      -0.00000000      -1.29060572      -0.33784200
Si      -0.00000000       1.29060572       0.33784200
2
Lattice="5.207704497258442 2.6261310385817468e-17 -9.250730536997152e-16 2.6261310385817098e-17 5.207704497258446 1.8463969437026906e-15 2.603852248629221 2.6038522486292224 1.3279695412436026" Properties=species:S:1:pos:R:3 cutoff=-1.0 nneightol=1.2 n_minim_iter=2 stress="-0.044846230138663346 -7.912655754807868e-18 -2.6942130206274964e-16 -7.912655754807868e-18 -0.04484623013866268 2.4531942179604584e-16 -2.6942130206274964e-16 2.4531942179604584e-16 -0.06437665196051878" pbc="T T T"
Si      -0.00000000      -1.30192612      -0.33199239
Si      -0.00000000       1.30192613       0.33199239
2
Lattice="5.195112215784387 -5.446176488640127e-18 -1.0410687516039605e-15 -5.446176488640423e-18 5.195112215784391 1.8940190812458844e-15 2.5975561078921934 2.597556107892195 1.3344149967961383" Properties=species:S:1:pos:R:3 cutoff=-1.0 nneightol=1.2 n_minim_iter=3 stress="-0.04166450491008875 -3.906844701196894e-17 -1.0240586352250939e-16 -3.906844701196894e-17 -0.04166450491008851 -3.407252502708307e-16 -1.0240586352250939e-16 -3.407252502708307e-16 -0.04442065974129481" pbc="T T T"
Si      -0.00000000      -1.29877805      -0.33360375
Si      -0.00000000       1.29877806       0.33360375
