2
Lattice="4.7293082480484525 -1.5900981895316372e-17 1.0102405476462939e-16 -1.5900981895317142e-17 4.7293082480484525 -1.33313466878187e-16 2.3646541240242263 2.3646541240242263 1.3018809602108337" Properties=species:S:1:pos:R:3 cutoff=-1.0 nneightol=1.2 n_minim_iter=1 energy=-325.6801631391528 free_energy=-325.6801631391528 pbc="T T T"
Si      -0.00000000      -1.18232706      -0.32547024
Si      -0.00000000       1.18232706       0.32547024
