2
Lattice="5.253639057949093 9.646995267569807e-18 -1.1884345401284658e-15 9.64699526757056e-18 5.253639057949093 2.2649116675402122e-15 2.626819528974547 2.626819528974546 1.332611924894943" Properties=species:S:1:pos:R:3 cutoff=-1.0 nneightol=1.2 n_minim_iter=2 stress="-0.06857025206366393 4.157809321790202e-16 3.258979874051306e-16 4.157809321790202e-16 -0.06857025206366418 3.1436962805522726e-16 3.258979874051306e-16 3.1436962805522726e-16 -0.06857055957706248" pbc="T T T"
Si      -0.00000000      -1.31340976      -0.33315298
Si      -0.00000000       1.31340977       0.33315298
