2
Lattice="4.644838192770003 -1.5616974858931432e-17 9.921966667173174e-17 -1.5616974858932208e-17 4.644838192770003 -1.3093235841032392e-16 2.3224190963850013 2.3224190963850013 1.2786280972323316" Properties=species:S:1:pos:R:3 cutoff=-1.0 nneightol=1.2 n_minim_iter=1 stress="-0.06385679231868982 -1.123103510909356e-16 -1.597621023510581e-16 -1.123103510909356e-16 -0.06385679231868957 -6.004502820870706e-17 -1.597621023510581e-16 -6.004502820870706e-17 -0.06519126872216607" pbc="T T T"
Si      -0.00000000      -1.16120955      -0.31965702
Si      -0.00000000       1.16120955       0.31965702
