2
Lattice="4.850625082808665 -1.6308875966064545e-17 1.0361553705249774e-16 -1.6308875966065303e-17 4.850625082808665 -1.367332413957913e-16 2.4253125414043324 2.4253125414043324 1.3352769811601002" Properties=species:S:1:pos:R:3 cutoff=-1.0 nneightol=1.2 n_minim_iter=1 stress="0.01546568403876742 1.3660544035481635e-17 2.4753139945555147e-16 1.3660544035481635e-17 0.015465684038766735 2.2920884429662666e-16 2.4753139945555147e-16 2.2920884429662666e-16 0.026108369665431626" pbc="T T T"
Si      -0.00000000      -1.21265627      -0.33381925
Si      -0.00000000       1.21265627       0.33381925
