2
Lattice="4.810864072490309 -1.6175190642112028e-17 1.0276619117077051e-16 -1.617519064211278e-17 4.810864072490309 -1.3561242671125326e-16 2.4054320362451547 2.4054320362451547 1.3243315955820774" Properties=species:S:1:pos:R:3 cutoff=-1.0 nneightol=1.2 n_minim_iter=1 stress="-0.004825822875770152 -4.798518610150379e-17 3.880221873146219e-17 -4.798518610150379e-17 -0.004825822875770236 -7.428383039641313e-17 3.880221873146219e-17 -7.428383039641313e-17 0.0042091317738181125" pbc="T T T"
Si      -0.00000000      -1.20271602      -0.33108290
Si      -0.00000000       1.20271602       0.33108290
