2
Lattice="3.267920971155693 0.0 0.0 0.0 3.267920971155693 0.0 0.0 0.0 3.267920971155693" Properties=species:S:1:pos:R:3 Minim_Constant_Volume=F n_minim_iter=1 stress="0.0623921181895677 1.474243518365221e-18 -9.423789605104489e-19 1.474243518365221e-18 0.0623921181895677 -2.4853389386402885e-19 -9.423789605104489e-19 -2.4853389386402885e-19 0.062392118189567664" pbc="T T T"
Ti       0.00000000       0.00000000       0.00000000
Ti       1.63396049       1.63396049       1.63396049
