2
Lattice="3.410180143510716 0.0 0.0 0.0 3.410180143510716 0.0 0.0 0.0 3.410180143510716" Properties=species:S:1:pos:R:3 Minim_Constant_Volume=F n_minim_iter=1 stress="-0.03761489720536987 -2.7191718878207903e-20 -9.918940184727859e-20 -2.7191718878207903e-20 -0.03761489720536988 -1.4729437301655912e-18 -9.918940184727859e-20 -1.4729437301655912e-18 -0.03761489720536988" pbc="T T T"
Ti       0.00000000       0.00000000       0.00000000
Ti       1.70509007       1.70509007       1.70509007
