16
Lattice="5.856654985212224 0.450069328416828 1.1853500942005195 2.499042622495874 4.801758994597518 1.2220050258556672 4.9721996842232095 2.6418679897068826 14.365987818068039" Properties=species:S:1:pos:R:3 unique_starting_index=3 config_type=initial n_minim_iter=1 energy=-2600.9043086042852 free_energy=-2600.9043086042852 pbc="T T T"
Si       7.44866800       5.46034072       9.18718149
Si       8.06915797       4.41958459      14.85246787
Si       2.33730211       2.67884056       4.14517328
Si       5.84905398       2.49194615       2.70546633
Si       7.21960782       1.69817460       6.90218816
Si       8.93764490       3.36453923       8.88862828
Si       4.64965063       3.06462603       4.62128183
Si       7.74419169       3.68558086       3.01721817
Si       4.70630872       2.74770674       9.38435920
Si       6.96814321       2.34349923       9.37841825
Si       9.55074652       5.06699684      11.45542962
Si       3.75320020       1.41839478       6.00992919
Si       6.25807501       6.48438789      12.53056284
Si       5.51387270       3.67425052      12.06898493
Si       7.88630174       3.85303554      12.58591644
Si       5.24519857       1.07782048       0.99083450
16
Lattice="5.872531539819281 0.38326557028360686 1.2971172921068637 2.469402594405296 4.563576491503374 1.3369674963469822 5.128176823299362 2.6123942353010614 14.878799889250699" Properties=species:S:1:pos:R:3 unique_starting_index=3 config_type=initial n_minim_iter=2 stress="-0.005633160560956498 0.002427426505911658 0.0028491806622350517 0.002427426505911658 -0.004316610858755283 -0.0018284610027653754 0.0028491806622350517 -0.0018284610027653754 0.0067105041818126656" pbc="T T T"
Si       7.56014401       5.13383986       9.55908030
Si       8.24023931       4.23762159      15.42949629
Si       2.35474451       2.73313334       4.27563212
Si       5.80895688       2.34839274       2.90701472
Si       7.33221192       1.60046892       7.20226518
Si       9.03968781       3.36467099       9.24032944
Si       4.62245773       2.91977567       4.82597433
Si       7.78909923       3.39734246       3.23716539
Si       4.74939358       2.60764831       9.74610171
Si       7.05979730       2.28540424       9.69148814
Si       9.72853879       4.80327935      12.10542395
Si       3.84479089       1.26174176       6.29169486
Si       6.34827132       6.17714989      13.05710457
Si       5.60386637       3.65129752      12.54327009
Si       7.95038167       3.71635228      13.14423082
Si       5.26497909       1.05785947       1.07099726
16
Lattice="5.972157097459096 0.3228421907157891 1.2655459506763298 2.454168967277579 4.518397100037423 1.3621091210775567 5.129448103510822 2.6797213909222637 14.747553204808828" Properties=species:S:1:pos:R:3 unique_starting_index=3 config_type=initial n_minim_iter=3 stress="0.00460280117304926 -0.0009599925221471519 6.440950320382938e-05 -0.0009599925221471519 0.0023243583366542174 -0.0004351773988659004 6.440950320382938e-05 -0.0004351773988659004 0.0013050126369755248" pbc="T T T"
Si       7.61500848       5.06993767       9.47227004
Si       8.28675338       4.24179122      15.29251923
Si       2.34060292       2.80238503       4.23593096
Si       5.85080732       2.29500950       2.89305510
Si       7.43723987       1.56493208       7.11889210
Si       9.14576100       3.38966951       9.12781898
Si       4.62479243       2.89174051       4.78276364
Si       7.89530306       3.28530513       3.20987621
Si       4.74207188       2.59897095       9.65751760
Si       7.11743925       2.28965656       9.56207289
Si       9.83861260       4.76149385      12.06995942
Si       3.88832841       1.22047032       6.25157058
Si       6.33186637       6.15821159      12.97993333
Si       5.59866304       3.72264720      12.44994866
Si       7.96925842       3.72346105      13.05488061
Si       5.35339740       1.02873201       1.04286868
16
Lattice="5.922782508804527 0.3160280510227165 1.2580678441360362 2.4267950390081854 4.465911841491582 1.377880256345546 5.07536012578783 2.712641797601593 14.689363982569024" Properties=species:S:1:pos:R:3 unique_starting_index=3 config_type=initial n_minim_iter=4 stress="-0.009853502292254113 -0.000440178979593124 -0.0014150136832884283 -0.000440178979593124 -0.007102127623345767 0.0001776953576582363 -0.0014150136832884283 0.0001776953576582363 -0.009828771511667545" pbc="T T T"
Si       7.54488826       5.03094367       9.44228232
Si       8.20906402       4.24231997      15.23814403
Si       2.31198777       2.82232236       4.22382550
Si       5.78707070       2.27559330       2.89599992
Si       7.38102694       1.56512687       7.08925686
Si       9.07959522       3.40578560       9.08181029
Si       4.56438888       2.87138004       4.76613733
Si       7.83023431       3.23556444       3.20241315
Si       4.68379421       2.59090943       9.61622728
Si       7.04571228       2.30133737       9.50474945
Si       9.76539616       4.74616953      12.06519285
Si       3.85543796       1.20966723       6.23631612
Si       6.25879069       6.12084786      12.95046811
Si       5.53632218       3.75168165      12.41249389
Si       7.87760362       3.72765906      13.02059610
Si       5.31058102       1.02596577       1.03900345
16
Lattice="5.955063655693663 0.3238342251260737 1.3066071915445292 2.4435944611287947 4.440695257131196 1.454171174528552 5.152573526648967 2.8234200538195826 15.006887658321443" Properties=species:S:1:pos:R:3 unique_starting_index=3 config_type=initial n_minim_iter=5 stress="-0.005367900303761777 0.0003583218761398537 -0.0019922872393868273 0.0003583218761398537 0.001588370383521785 0.0008495445026617039 -0.0019922872393868273 0.0008495445026617039 0.006116683221617411" pbc="T T T"
Si       7.61763540       5.05607828       9.68353395
Si       8.31031759       4.32208144      15.59454410
Si       2.33106960       2.91040262       4.33171837
Si       5.80326302       2.29046841       3.01022827
Si       7.46306578       1.60495588       7.26453866
Si       9.20563754       3.50186057       9.28018597
Si       4.57036903       2.88641404       4.88372069
Si       7.88702416       3.21181666       3.30529763
Si       4.72076561       2.62031864       9.81764522
Si       7.09974569       2.37159992       9.68454733
Si       9.89745273       4.81734203      12.43484286
Si       3.90067889       1.21783991       6.39623853
Si       6.32204024       6.15230396      13.27892453
Si       5.60211569       3.87603783      12.71044325
Si       7.93443372       3.80559662      13.34984389
Si       5.34425140       1.04828172       1.08886934
16
Lattice="6.093137733226138 0.3389239933291279 1.3731541222910608 2.5264963350526544 4.39283083321825 1.4835681897520692 5.455618985574288 2.834031053657121 14.924887473668583" Properties=species:S:1:pos:R:3 unique_starting_index=3 config_type=initial n_minim_iter=6 stress="0.004664897488547029 -0.00037673948630743113 0.0033194319287007095 -0.00037673948630743113 0.0011097012648768464 -0.0010603781080676252 0.0033194319287007095 -0.0010603781080676252 -0.0006824383032673465" pbc="T T T"
Si       7.89456604       5.03951215       9.70758496
Si       8.68829991       4.30576045      15.55855600
Si       2.43320278       2.93558672       4.33005951
Si       5.95678365       2.29230061       3.07544424
Si       7.72845002       1.61119538       7.29979135
Si       9.59383645       3.50675165       9.28057938
Si       4.70995331       2.86653242       4.88777324
Si       8.09640749       3.18832367       3.36467773
Si       4.93590968       2.59349328       9.76147497
Si       7.35818281       2.37922962       9.64374182
Si      10.29869407       4.82501234      12.48099929
Si       4.05840617       1.21485716       6.39133438
Si       6.62137076       6.09604878      13.24581282
Si       5.89413736       3.89837839      12.67611234
Si       8.26383097       3.79674340      13.33897968
Si       5.47432043       1.05822204       1.16403058
16
Lattice="6.084916479971934 0.374597903484017 1.3126109578207317 2.5374745156133676 4.412061042086286 1.486789062910895 5.319759249478612 2.9521863711564547 14.862552473368407" Properties=species:S:1:pos:R:3 unique_starting_index=3 config_type=initial n_minim_iter=7 stress="0.0034807536377541057 -0.00018597049766083066 -0.00409451637010536 -0.00018597049766083066 0.001580046936535901 0.0022261437104748164 -0.00409451637010536 0.0022261437104748164 -0.0013685809036621296" pbc="T T T"
Si       7.79907856       5.15357502       9.66950548
Si       8.55389541       4.42808859      15.48067672
Si       2.39878215       2.98815049       4.33127943
Si       5.95184160       2.34545297       3.03062528
Si       7.67729998       1.68209740       7.23350793
Si       9.59859533       3.58394557       9.16742451
Si       4.66036171       2.91390763       4.84533053
Si       8.06660973       3.24799524       3.28773512
Si       4.85095867       2.66216190       9.69170828
Si       7.26325124       2.46932266       9.54206492
Si      10.20719287       4.97276308      12.38646761
Si       3.98754197       1.28459521       6.34462706
Si       6.50570376       6.20107298      13.20448276
Si       5.80411391       4.01369395      12.63274601
Si       8.15760743       3.90718388      13.26090867
Si       5.46839301       1.08246540       1.13454435
16
Lattice="6.059752014570444 0.3696230982286143 1.3706450367480536 2.533893366561852 4.408079494771927 1.4926173624427643 5.428054414479088 2.8880229214555975 14.938548525844942" Properties=species:S:1:pos:R:3 unique_starting_index=3 config_type=initial n_minim_iter=8 stress="-0.0006982535934400698 -0.000660815057721688 0.0006895816150569606 -0.000660815057721688 0.0010890456562716029 -0.0010986599346503808 0.0006895816150569606 -0.0010986599346503808 -5.507996465905123e-05" pbc="T T T"
Si       7.83157309       5.11275302       9.75568666
Si       8.64611112       4.35172688      15.58501043
Si       2.41593056       2.97957993       4.35433750
Si       5.94979414       2.33777106       3.08288050
Si       7.70344371       1.64382852       7.32452517
Si       9.66225138       3.54186905       9.24711189
Si       4.66633287       2.89309452       4.88225613
Si       8.03545609       3.23594122       3.35440279
Si       4.91265252       2.61413067       9.74682937
Si       7.30284718       2.43303648       9.60542193
Si      10.25829092       4.93251919      12.48606868
Si       4.01592191       1.26382015       6.38940946
Si       6.58027585       6.14606059      13.27487554
Si       5.89723497       3.96340828      12.71117693
Si       8.24156529       3.84638411      13.35471024
Si       5.44262291       1.07726937       1.19282594
16
Lattice="6.097514769628636 0.4113245526198688 1.4281480054258227 2.587727939489677 4.368215212477079 1.5495888479526803 5.5844900057660505 2.9746144572754645 15.081003623846552" Properties=species:S:1:pos:R:3 unique_starting_index=3 config_type=initial n_minim_iter=9 stress="-0.0009380558455672411 -0.00022009033930316894 0.004258645978637336 -0.00022009033930316894 -0.004539908817107256 0.0010816786911651527 0.004258645978637336 0.0010816786911651527 0.002230275960270699" pbc="T T T"
Si       7.96303529       5.11856033       9.91793340
Si       8.82925982       4.41223642      15.77393008
Si       2.45358084       3.00376188       4.41594944
Si       6.02217708       2.36559701       3.15655385
Si       7.81075660       1.69334786       7.44921569
Si       9.86439625       3.62770193       9.35909539
Si       4.71730342       2.90997474       4.95277373
Si       8.10155538       3.25726734       3.46795799
Si       5.02081199       2.65786861       9.86351507
Si       7.41647982       2.52421406       9.68896164
Si      10.42703012       5.01941522      12.65879446
Si       4.08634766       1.31469269       6.45988597
Si       6.73375511       6.18500589      13.44873871
Si       6.06415249       4.02979764      12.87208465
Si       8.42921775       3.91881833      13.52197178
Si       5.47654098       1.10741601       1.26768980
16
Lattice="6.116381795547536 0.47034314682224876 1.426941896686864 2.647690006509116 4.370849962449342 1.5299370484991504 5.629130506165546 2.961051515051265 15.061653447611706" Properties=species:S:1:pos:R:3 unique_starting_index=3 config_type=initial n_minim_iter=10 stress="-0.0024310379394950296 0.0010115038344049338 0.003737197072934675 0.0010115038344049338 -0.0037663558155276652 -0.0031433992665422465 0.003737197072934675 -0.0031433992665422465 0.0013623362856375564" pbc="T T T"
Si       8.02783049       5.07928407       9.90696942
Si       8.89509629       4.37821421      15.76125403
Si       2.45116754       3.03863977       4.39471473
Si       6.07169524       2.41487214       3.13578436
Si       7.85901885       1.70685247       7.45899549
Si      10.02212328       3.72662989       9.28610627
Si       4.72187189       2.93002430       4.91551834
Si       8.14144151       3.30562178       3.47864976
Si       5.05424911       2.64825190       9.86801730
Si       7.45283974       2.59347958       9.61031847
Si      10.50472886       5.07706944      12.62162485
Si       4.11140943       1.32485717       6.45072612
Si       6.79648802       6.18429046      13.43299796
Si       6.14746917       4.03380925      12.87690600
Si       8.53181743       3.93107042      13.50977570
Si       5.49524898       1.17018873       1.28659844
16
Lattice="6.124009699158628 0.494368794226638 1.4140670923555494 2.6579166819315674 4.401663138971506 1.5678436333391672 5.607725690181652 3.119477653819155 15.036765140578073" Properties=species:S:1:pos:R:3 unique_starting_index=3 config_type=initial n_minim_iter=11 stress="-0.0015360434566439598 -0.0010484022533693634 0.00260848975279478 -0.0010484022533693634 -0.0006962422600191038 0.0020849251809578586 0.00260848975279478 0.0020849251809578586 0.0018541463919287372" pbc="T T T"
Si       8.02749490       5.12704496       9.91463758
Si       8.87458033       4.51911069      15.75529250
Si       2.41532927       3.11043227       4.40485076
Si       6.07940918       2.46554315       3.13157981
Si       7.86467691       1.77302113       7.44007550
Si      10.06272889       3.89269172       9.25026648
Si       4.69779019       2.99516327       4.90507735
Si       8.14835755       3.34814616       3.51452954
Si       5.04244590       2.75528861       9.88214774
Si       7.44090726       2.74082065       9.56377335
Si      10.49403535       5.22962062      12.60383695
Si       4.11911685       1.38847971       6.43577186
Si       6.78138147       6.34958667      13.45686925
Si       6.14519480       4.17179170      12.88399781
Si       8.54973850       4.08689642      13.49765220
Si       5.50052740       1.20523789       1.28671670
16
Lattice="6.138076893506609 0.5157940242505655 1.3415024790578713 2.677957447363503 4.417919035862411 1.5042935120245677 5.487326249152325 3.0613396141980114 14.88102154387671" Properties=species:S:1:pos:R:3 unique_starting_index=3 config_type=initial n_minim_iter=12 stress="0.0005675524438495282 0.00020408867522310418 -0.0007886125469064648 0.00020408867522310418 0.0015424721084169202 -0.00042437094770398325 -0.0007886125469064648 -0.00042437094770398325 -0.0003614021831926406" pbc="T T T"
Si       7.99120175       5.08408123       9.74241056
Si       8.76005785       4.47326219      15.56406498
Si       2.38570690       3.08590488       4.34193927
Si       6.08284037       2.48394158       3.03413367
Si       7.82941897       1.77539915       7.30083081
Si      10.00645382       3.91105752       9.08471057
Si       4.68409752       3.00052104       4.80660387
Si       8.17105851       3.37237851       3.40314972
Si       4.98192871       2.73665765       9.77150510
Si       7.38152897       2.73876465       9.43576679
Si      10.42545295       5.21202280      12.38098770
Si       4.08986989       1.37346646       6.35177011
Si       6.71312539       6.32523680      13.27706870
Si       6.05468347       4.11908522      12.72164417
Si       8.47115158       4.06756984      13.30812340
Si       5.51910916       1.22425047       1.20735778
16
Lattice="6.193676776087667 0.5356815489108979 1.2775952827906016 2.713979353557639 4.386819085430365 1.4700217123969137 5.413183895561273 3.049707321279819 14.754784959975167" Properties=species:S:1:pos:R:3 unique_starting_index=3 config_type=initial n_minim_iter=13 stress="0.004136578196123345 -0.0020869452884864186 -0.004699178596568484 -0.0020869452884864186 -0.0023845069887316428 -0.0003664143395694849 -0.004699178596568484 -0.0003664143395694849 -0.0017223355177907844" pbc="T T T"
Si       8.00695674       4.99395892       9.61309796
Si       8.70527307       4.43524585      15.43018135
Si       2.35805132       3.08054405       4.31448316
Si       6.11417443       2.50029253       2.97066896
Si       7.87690588       1.79622694       7.17988721
Si      10.06638134       3.96527234       8.93190337
Si       4.67503753       2.99326836       4.71404263
Si       8.24979205       3.35265516       3.30872667
Si       4.95438649       2.71837811       9.66848071
Si       7.35146863       2.76452654       9.30969800
Si      10.45748913       5.20651620      12.23082959
Si       4.10336688       1.36105992       6.29056989
Si       6.69377795       6.27577641      13.15089703
Si       6.01246780       4.10663668      12.60137998
Si       8.44356186       4.07780643      13.16454130
Si       5.58158655       1.23927522       1.13680302
16
Lattice="6.2038613441344665 0.6288329729039887 1.2348287351063536 2.7829185539281687 4.480906267951539 1.4484100001682068 5.3893130869889205 3.1704773194066083 14.558891767876919" Properties=species:S:1:pos:R:3 unique_starting_index=3 config_type=initial n_minim_iter=14 stress="0.0012178387050429931 0.0014935072405840313 -0.005233337070117484 0.0014935072405840313 0.005694497785954996 0.001549120810942647 -0.005233337070117484 0.001549120810942647 -0.004102669081301536" pbc="T T T"
Si       8.04563139       5.10083876       9.47332803
Si       8.68067743       4.59615926      15.24979690
Si       2.36422761       3.13465170       4.29301266
Si       6.13655431       2.64179733       2.92138446
Si       7.91281637       1.96139484       7.04573490
Si      10.09923722       4.19381954       8.79126256
Si       4.68804717       3.10331116       4.61947526
Si       8.30276584       3.49816046       3.23374209
Si       4.97069153       2.82659445       9.51910331
Si       7.31079505       2.92140129       9.18605063
Si      10.49793490       5.43395120      12.03547687
Si       4.12754508       1.44344489       6.20121279
Si       6.75873165       6.44915826      12.97447895
Si       6.01571854       4.23662050      12.42121733
Si       8.44639341       4.28488681      12.96714423
Si       5.61252808       1.32102954       1.07892639
16
Lattice="6.2476335161827095 0.6711312099557506 1.2423508621881791 2.842893721368101 4.466336089079588 1.4289982399440038 5.472744863780454 3.130158912494417 14.531024955562804" Properties=species:S:1:pos:R:3 unique_starting_index=3 config_type=initial n_minim_iter=15 stress="0.0016792432115763608 5.003201883443385e-05 -0.0049308867360575576 5.003201883443385e-05 0.0020226643877691913 4.1522941935190734e-05 -0.0049308867360575576 4.1522941935190734e-05 -0.0011565568381243273" pbc="T T T"
Si       8.14056195       5.02304589       9.46775781
Si       8.78004205       4.52621923      15.25259134
Si       2.38049077       3.11334764       4.30610298
Si       6.20179245       2.68993375       2.91721646
Si       8.03230896       2.00165075       7.04173468
Si      10.26614573       4.24663756       8.75449641
Si       4.71445113       3.10291119       4.58571744
Si       8.37432837       3.51915721       3.22923729
Si       5.04935532       2.79571241       9.48131976
Si       7.34422081       2.93303191       9.15838005
Si      10.63666116       5.45255900      12.00274976
Si       4.19469691       1.45138642       6.18993862
Si       6.88800770       6.39582570      12.93922577
Si       6.11770075       4.20333472      12.39335710
Si       8.56346297       4.29463141      12.93887584
Si       5.66064998       1.34476319       1.07989318
16
Lattice="6.310159409877929 0.6990635228789979 1.3495237013225296 2.9137611286627707 4.4260000471314545 1.44962751853384 5.788283907837532 3.0552203329451353 14.623868964275816" Properties=species:S:1:pos:R:3 unique_starting_index=3 config_type=initial n_minim_iter=16 stress="-0.0033893951505123815 -0.0016744759624347124 0.001088580466147384 -0.0016744759624347124 -0.0005189577701319265 0.00010664195942387421 0.001088580466147384 0.00010664195942387421 0.001761167237811318" pbc="T T T"
Si       8.38150435       4.93881213       9.61923588
Si       9.13317117       4.39516646      15.42121833
Si       2.47427655       3.06634540       4.37088157
Si       6.31371243       2.72983326       3.00791013
Si       8.29175325       2.03868983       7.19036757
Si      10.56440122       4.23626860       8.89896560
Si       4.79727892       3.07462144       4.64641656
Si       8.47578972       3.51911237       3.34889854
Si       5.26736372       2.72442239       9.51380774
Si       7.49532000       2.86659644       9.27056162
Si      10.97062121       5.42372732      12.17650141
Si       4.35845204       1.45014211       6.25535992
Si       7.22558013       6.27673126      13.02709210
Si       6.40788619       4.14082466      12.47563637
Si       8.86590450       4.27287052      13.07351814
Si       5.71888279       1.34247228       1.17241687
16
Lattice="6.474056555270109 0.8285754418403777 1.4602729929247753 3.1094671842299477 4.406311065625722 1.474502638232948 6.243849340336784 3.0684671397365926 14.686343467935556" Properties=species:S:1:pos:R:3 unique_starting_index=3 config_type=initial n_minim_iter=17 stress="0.004082578120692647 0.0023817064261899192 0.003922926601742709 0.0023817064261899192 -0.0034159134378645133 6.464140377418689e-05 0.003922926601742709 6.464140377418689e-05 0.0019272896595509234" pbc="T T T"
Si       8.83999503       4.93462164       9.75356045
Si       9.71056927       4.35871518      15.55923723
Si       2.64597883       3.07769871       4.40638736
Si       6.56389917       2.87273943       3.08325151
Si       8.72645566       2.18885592       7.34859702
Si      11.11674379       4.42801010       9.01040696
Si       4.97256660       3.10842323       4.69993006
Si       8.75286358       3.63274649       3.50254227
Si       5.57544473       2.71422047       9.53974789
Si       7.81590397       2.92643428       9.33881062
Si      11.56145511       5.54447063      12.34853807
Si       4.62293584       1.50214409       6.31306104
Si       7.78101146       6.25047119      13.10062646
Si       6.86802990       4.17598297      12.54060927
Si       9.39436145       4.38773336      13.19838326
Si       5.87545133       1.44388552       1.27501818
16
Lattice="6.548122528052492 0.8003676395129791 1.5636869037044017 3.148250096742959 4.313951102891723 1.4664455430976635 6.533046971785926 2.843019037491416 14.844211616660822" Properties=species:S:1:pos:R:3 unique_starting_index=3 config_type=initial n_minim_iter=18 stress="0.002395615884269408 -0.0012872150354893384 0.004590462396764528 -0.0012872150354893384 -0.007201672483709362 -0.002783585342150754 0.004590462396764528 -0.002783585342150754 0.006288598323904749" pbc="T T T"
Si       9.08467588       4.70870822       9.89869231
Si      10.07162512       4.00672257      15.76283093
Si       2.72303418       2.98549908       4.42874005
Si       6.66290228       2.85732422       3.12717635
Si       9.01131278       2.10433377       7.54088778
Si      11.32911670       4.28700014       9.17049138
Si       5.02382391       3.00322283       4.78520605
Si       8.84024434       3.54121898       3.65545633
Si       5.72068345       2.52287818       9.61802021
Si       7.99144218       2.72214997       9.49775013
Si      11.84736221       5.29693866      12.56490673
Si       4.79839645       1.40304708       6.40252620
Si       8.09010392       5.97722925      13.21148708
Si       7.10289504       3.96343584      12.64502133
Si       9.69150405       4.21746345      13.38525917
Si       5.92641023       1.40388337       1.35294587
16
Lattice="6.570846619192238 0.8301865206393295 1.5777466195315593 3.1838104440555823 4.339907531762108 1.4640881960894532 6.6136134704755785 2.8639282195023563 14.770382968482558" Properties=species:S:1:pos:R:3 unique_starting_index=3 config_type=initial n_minim_iter=19 stress="0.0011686142046908154 0.001363042037550145 0.0038998496895100766 0.001363042037550145 -0.0013548982441343761 -0.0006955774074510885 0.0038998496895100766 -0.0006955774074510885 0.004232937941289695" pbc="T T T"
Si       9.17925119       4.71914860       9.85392762
Si      10.18649560       3.98098439      15.69788398
Si       2.74742214       3.01435867       4.39717001
Si       6.68900173       2.94369897       3.09675287
Si       9.12669137       2.15533757       7.54088653
Si      11.37372887       4.37828139       9.14123273
Si       5.03626610       3.03566382       4.77816646
Si       8.88317783       3.58522551       3.70117358
Si       5.74415712       2.52755998       9.56110171
Si       8.05020861       2.73911703       9.48653182
Si      11.92938279       5.33362120      12.53725402
Si       4.87585176       1.40732109       6.37642151
Si       8.21563199       6.01821404      13.14527055
Si       7.15999042       3.98941200      12.56243898
Si       9.80407489       4.30088136      13.34372083
Si       5.94392990       1.43884764       1.35604715
16
Lattice="6.532458265068441 0.7859373906670469 1.541534512018592 3.1265427603599925 4.340333371777914 1.4493636342945966 6.493150486761787 2.848289571501342 14.672986420106739" Properties=species:S:1:pos:R:3 unique_starting_index=3 config_type=initial n_minim_iter=20 stress="-0.0017354868329948992 -0.0015278146940759386 0.0014488587445945548 -0.0015278146940759386 0.0010146502975880583 -1.0633152746406968e-05 0.0014488587445945548 -1.0633152746406968e-05 0.0002251663900638434" pbc="T T T"
Si       9.05918938       4.71071962       9.74865271
Si      10.05432539       3.93147964      15.56746974
Si       2.69830258       3.03641242       4.35166439
Si       6.60485748       2.93578656       3.03968974
Si       9.04498981       2.09162812       7.47476580
Si      11.21573754       4.32689854       9.05028678
Si       4.97570621       3.02434302       4.74868527
Si       8.81101654       3.53778518       3.66218898
Si       5.63333884       2.50072872       9.48794283
Si       7.98312552       2.69364949       9.43313032
Si      11.76131411       5.26630260      12.44529823
Si       4.83012177       1.36089884       6.32698512
Si       8.06795365       6.00827657      13.04921181
Si       7.02057374       3.97409752      12.46272859
Si       9.68324657       4.27276018      13.25880617
Si       5.90041911       1.41227407       1.32412170
16
Lattice="6.556594909011635 0.810629969796472 1.5062153123932593 3.1550962032734153 4.346104261010963 1.4205967006005735 6.467426583060251 2.8448395482819664 14.529619775831229" Properties=species:S:1:pos:R:3 unique_starting_index=3 config_type=initial n_minim_iter=21 stress="-0.0007370680259251012 0.0008682802956171007 -0.00345177874080997 0.0008682802956171007 -0.0008821949105235692 0.001972648105348895 -0.00345177874080997 0.001972648105348895 -0.0019154851594138011" pbc="T T T"
Si       9.06269271       4.71278533       9.61600578
Si      10.04932750       3.88613016      15.41458106
Si       2.69403069       3.06200245       4.31588844
Si       6.60672283       3.01615295       2.97041854
Si       9.11131980       2.11560328       7.39256706
Si      11.24512301       4.37950960       8.91699586
Si       4.96868892       3.04124500       4.68892454
Si       8.85038458       3.55210849       3.60773434
Si       5.60682391       2.48126045       9.35957018
Si       7.97736848       2.69118178       9.35149519
Si      11.76970060       5.27875320      12.31578216
Si       4.86902584       1.34150750       6.25895158
Si       8.08296766       6.00356468      12.90581338
Si       6.99480889       3.98007540      12.31527289
Si       9.70377687       4.31712573      13.13391554
Si       5.92517213       1.43710160       1.28823227
