10
Lattice="5.57409547627858 1.7642698486753145e-12 -2.7557226693182325e-15 -8.548640832240226e-13 2.7008873214966163 7.924599194813182e-08 5.240128506720447e-15 -3.1063423654878257e-07 10.587135708200709" Properties=species:S:1:pos:R:3 unique_starting_index=72 config_type=initial n_minim_iter=14 energy=-1627.3350903691519 free_energy=-1627.3350903691519 pbc="T T T"
Si       4.75021756       4.05064013       3.53548005
Si       4.75021756      -1.34975312       7.05165574
Si       1.96316983       2.70019652       1.75808800
Si       1.96316983       0.00069049       8.82904778
Si       1.23401613       0.00347036       4.03878219
Si       1.23401613       2.69741665       6.54835360
Si       4.02106387       1.35391411       1.25478571
Si       4.02106387       1.34697291       9.33235008
Si       0.33176143       0.00000000       0.00000000
Si       3.11880917       1.35044351       5.29356789
