10
Lattice="7.391990978020168 -0.25392720874583175 1.482787660551253 -3.5584684944945506 4.51422556739238 -0.4390981429817863 -0.6654008301226157 -1.926942235430641 5.392390289599328" Properties=species:S:1:pos:R:3 unique_starting_index=21 config_type=initial n_minim_iter=1 energy=-1623.9874237301578 free_energy=-1623.9874237301578 pbc="T T T"
Si       3.77612940      -0.34428944       6.75659762
Si       0.08806333      -0.08325088       3.47528706
Si      -0.01806034       1.38058484       1.38076175
Si       2.04608396       3.98565139       1.78021942
Si       1.66420949       0.35979367       3.21833165
Si      -0.19059016       3.01151066       5.20487520
Si       3.17146578       2.26366553       3.31607800
Si      -1.53319089       1.00678090       4.91403882
Si       1.45399757       0.07908384       5.67660434
Si      -0.04288688       3.33050945       2.81990582
10
Lattice="7.391963011132712 -0.2539450650729629 1.482774944813633 -3.5584651860339047 4.5142269934890065 -0.4390978723633423 -0.6654025987605747 -1.9269446047282224 5.392388213245189" Properties=species:S:1:pos:R:3 unique_starting_index=21 config_type=initial n_minim_iter=2 stress="-2.1764209693536004e-05 7.4195892401977754e-06 3.6637414432233175e-05 7.4195892401977754e-06 -2.600728357180991e-05 -1.6272449224146904e-05 3.6637414432233175e-05 -1.6272449224146904e-05 -2.953148015377753e-05" pbc="T T T"
Si       3.77610549      -0.34430787       6.75658403
Si       0.08805991      -0.08325416       3.47528303
Si      -0.01806495       1.38058050       1.38075891
Si       2.04606492       3.98563869       1.78020864
Si       1.66419631       0.35978450       3.21832627
Si      -0.19060433       3.01150159       5.20486714
Si       3.17144395       2.26365060       3.31606770
Si      -1.53319593       1.00677730       4.91403511
Si       1.45398356       0.07907320       5.67659593
Si      -0.04289785       3.33050039       2.81989800
