12
Lattice="5.2764691256348035 4.8913392769999785e-28 -1.6386796437650697e-18 -1.01756864775271e-27 10.97683089239634 -1.7785589533718977e-14 1.1423990856333242e-18 5.9601677188023226e-15 3.6784697530311536" Properties=species:S:1:pos:R:3 unique_starting_index=60 config_type=initial n_minim_iter=1 energy=-1952.6833891863148 free_energy=-1952.6833891863148 pbc="T T T"
Si       2.90472254       4.27638817      -0.02659948
Si       2.90472254       6.70044272       3.70506924
Si       0.26648798       1.21202728       1.81263539
Si       0.26648798       9.76480362       1.86583436
Si       4.32515270       7.34098035       1.86205166
Si       4.32515270       3.63585054       1.81641810
Si       1.68691814       9.12426599       3.70128653
Si       1.68691814       1.85256491      -0.02281678
Si       0.46911374       4.27638817       3.65187027
Si       0.46911374       6.70044272       0.02659948
Si       3.10734831       1.21202728       1.81263539
Si       3.10734831       9.76480362       1.86583436
12
Lattice="5.2774605194293 4.878737804112588e-28 -1.6387077345475939e-18 -1.021236149141224e-27 10.986051675181875 -1.7799031767330848e-14 1.1422139872944652e-18 5.958686137167004e-15 3.677245656596505" Properties=species:S:1:pos:R:3 unique_starting_index=60 config_type=initial n_minim_iter=2 stress="0.00020612917149255853 -3.8795131506151134e-17 -7.405899475020713e-17 -3.8795131506151134e-17 0.0009777893400956777 -4.963303317691315e-17 -7.405899475020713e-17 -4.963303317691315e-17 -8.213220550122601e-05" pbc="T T T"
Si       2.90511934       4.27869281      -0.02483535
Si       2.90511934       6.70735887       3.70208100
Si       0.26638908       1.21433303       1.81378748
Si       0.26638908       9.77171865       1.86345817
Si       4.32596536       7.34814357       1.86273335
Si       4.32596536       3.63790811       1.81451231
Si       1.68723510       9.13093395       3.70135618
Si       1.68723510       1.85511773      -0.02411052
Si       0.46935086       4.27869281       3.65241031
Si       0.46935086       6.70735887       0.02483535
Si       3.10808112       1.21433303       1.81378748
Si       3.10808112       9.77171865       1.86345817
12
Lattice="5.276490512253634 4.892811459630941e-28 -1.6383862867641517e-18 -1.017213810320972e-27 10.976261855641503 -1.7789160832462442e-14 1.1421998957066728e-18 5.956527186138961e-15 3.677154940358192" Properties=species:S:1:pos:R:3 unique_starting_index=60 config_type=initial n_minim_iter=3 stress="-0.00037252942326638263 -1.3032828728886775e-18 5.310266793174694e-17 -1.3032828728886775e-18 1.6524038779457445e-05 -8.275846242843102e-18 5.310266793174694e-17 -8.275846242843102e-18 -0.0003453312753327137" pbc="T T T"
Si       2.90450370       4.27439521      -0.02409628
Si       2.90450370       6.70186664       3.70125122
Si       0.26625845       1.21373572       1.81448119
Si       0.26625845       9.76252614       1.86267375
Si       4.32517024       7.34205538       1.86313566
Si       4.32517024       3.63420648       1.81401928
Si       1.68692498       9.12233741       3.70171313
Si       1.68692498       1.85392445      -0.02455819
Si       0.46934625       4.27439521       3.65305866
Si       0.46934625       6.70186664       0.02409628
Si       3.10759151       1.21373572       1.81448119
Si       3.10759151       9.76252614       1.86267375
12
Lattice="5.278497832294823 4.898992428095867e-28 -1.6393376675772425e-18 -1.0160579813603043e-27 10.973489002088085 -1.7786232638304314e-14 1.1424174296444451e-18 5.958331396171932e-15 3.678591631151476" Properties=species:S:1:pos:R:3 unique_starting_index=60 config_type=initial n_minim_iter=4 stress="3.5150058242151594e-05 2.3967978295808032e-17 4.743526682762415e-17 2.3967978295808032e-17 -2.8164721776076932e-05 3.976209442823588e-17 4.743526682762415e-17 3.976209442823588e-17 8.56130142858286e-05" pbc="T T T"
Si       2.90559607       4.27319390      -0.02387391
Si       2.90559607       6.70029510       3.70246554
Si       0.26634716       1.21355060       1.81542190
Si       0.26634716       9.75993840       1.86316973
Si       4.32681565       7.34035547       1.86388197
Si       4.32681565       3.63313353       1.81470966
Si       1.68756673       9.11987803       3.70317779
Si       1.68756673       1.85361097      -0.02458616
Si       0.46953739       4.27319390       3.65471772
Si       0.46953739       6.70029510       0.02387391
Si       3.10878630       1.21355060       1.81542190
Si       3.10878630       9.75993840       1.86316973
12
Lattice="5.283279752873323 4.910692111470849e-28 -1.6401726027400651e-18 -1.0141128586123019e-27 10.968816670426563 -1.777750905379017e-14 1.1419815079229722e-18 5.9540779521739794e-15 3.675728532597592" Properties=species:S:1:pos:R:3 unique_starting_index=60 config_type=initial n_minim_iter=5 stress="0.0005683534424577249 -1.1883332855011768e-16 1.4547249191727116e-16 -1.1883332855011768e-16 -0.00020718335252567917 9.811567587526163e-17 1.4547249191727116e-16 9.811567587526163e-17 -0.0005632420506556263" pbc="T T T"
Si       2.90869206       4.27050017      -0.02163936
Si       2.90869206       6.69831650       3.69736790
Si       0.26705218       1.21390816       1.81622490
Si       0.26705218       9.75490851       1.85950363
Si       4.33073542       7.33853478       1.85920069
Si       4.33073542       3.63028189       1.81652784
Si       1.68909554       9.11469023       3.69706496
Si       1.68909554       1.85412644      -0.02133642
Si       0.46949902       4.27050017       3.65408917
Si       0.46949902       6.69831650       0.02163936
Si       3.11113890       1.21390816       1.81622490
Si       3.11113890       9.75490851       1.85950363
12
Lattice="5.279536718380975 4.905301854804192e-28 -1.6396848054817074e-18 -1.014645842446561e-27 10.970254122363343 -1.7775318133163496e-14 1.1424233922315844e-18 5.960352962451019e-15 3.6786657986198157" Properties=species:S:1:pos:R:3 unique_starting_index=60 config_type=initial n_minim_iter=6 stress="5.3379497312212615e-05 6.46143645635201e-17 2.1997207694127752e-17 6.46143645635201e-17 -5.386832380384245e-05 -4.852590887078879e-18 2.1997207694127752e-17 -4.852590887078879e-18 -5.143288124090654e-05" pbc="T T T"
Si       2.90705609       4.27015730      -0.01898373
Si       2.90705609       6.70009682       3.69764952
Si       0.26728773       1.21496976       1.82034917
Si       0.26728773       9.75528436       1.85831662
Si       4.32766723       7.34099529       1.85680533
Si       4.32766723       3.62925883       1.82186047
Si       1.68789887       9.11438589       3.69613823
Si       1.68789887       1.85586823      -0.01747243
Si       0.46874165       4.27015730       3.65968207
Si       0.46874165       6.70009682       0.01898373
Si       3.10851001       1.21496976       1.82034917
Si       3.10851001       9.75528436       1.85831662
12
Lattice="5.275476316829099 4.894560242842437e-28 -1.6389820887845234e-18 -1.0165427465039224e-27 10.975054062610994 -1.7781697880970676e-14 1.14278948539328e-18 5.964761845628633e-15 3.681097828103256" Properties=species:S:1:pos:R:3 unique_starting_index=60 config_type=initial n_minim_iter=7 stress="-0.00036963093821352805 6.016535849420465e-17 2.7531023418107036e-17 6.016535849420465e-17 0.00016874565759728512 -1.1606574839385258e-17 2.7531023418107036e-17 -1.1606574839385258e-17 0.00037927562867886243" pbc="T T T"
Si       2.90538077       4.27189086      -0.01335928
Si       2.90538077       6.70316320       3.69445710
Si       0.26764261       1.21563617       1.82718964
Si       0.26764261       9.75941790       1.85390819
Si       4.32433889       7.34591921       1.85146438
Si       4.32433889       3.62913485       1.82963345
Si       1.68660073       9.11666189       3.69201329
Si       1.68660073       1.85839218      -0.01091546
Si       0.46782070       4.27189086       3.66773855
Si       0.46782070       6.70316320       0.01335928
Si       3.10555886       1.21563617       1.82718964
Si       3.10555886       9.75941790       1.85390819
12
Lattice="5.27557525591196 4.8834672365981695e-28 -1.6384885130846731e-18 -1.0195738533512135e-27 10.982649338963421 -1.7798628424874644e-14 1.142441148763638e-18 5.959488472339917e-15 3.678799274295331" Properties=species:S:1:pos:R:3 unique_starting_index=60 config_type=initial n_minim_iter=8 stress="6.502485259308454e-06 -1.7995969538615631e-16 -1.0430777116120985e-16 -1.7995969538615631e-16 0.00010856946864935814 5.428415196389574e-18 -1.0430777116120985e-16 5.428415196389574e-18 0.0002749141890494269" pbc="T T T"
Si       2.90544368       4.27784570      -0.00388219
Si       2.90544368       6.70480364       3.68268147
Si       0.26765605       1.21347897       1.83551744
Si       0.26765605       9.76917037       1.84328183
Si       4.32441999       7.35090480       1.84366621
Si       4.32441999       3.63174454       1.83513306
Si       1.68663237       9.12306921       3.68306585
Si       1.68663237       1.85958013      -0.00426658
Si       0.46782105       4.27784570       3.67491708
Si       0.46782105       6.70480364       0.00388219
Si       3.10560868       1.21347897       1.83551744
Si       3.10560868       9.76917037       1.84328183
12
Lattice="5.2762764570158645 4.88580928765061e-28 -1.6384516562275242e-18 -1.0191208674931984e-27 10.981560788178555 -1.779950023528718e-14 1.142273147479415e-18 5.956802339050194e-15 3.6776867540801117" Properties=species:S:1:pos:R:3 unique_starting_index=60 config_type=initial n_minim_iter=9 stress="4.4103984633662945e-06 1.5630221629078025e-17 -1.3074334411255416e-16 1.5630221629078025e-17 5.996857056143608e-06 -9.801451479901012e-18 -1.3074334411255416e-16 -9.801451479901012e-18 -1.1383974100044305e-06" pbc="T T T"
Si       2.90583344       4.27726359      -0.00302562
Si       2.90583344       6.70429720       3.68071237
Si       0.26769521       1.21351680       1.83581776
Si       0.26769521       9.76804399       1.84186900
Si       4.32499477       7.35032312       1.84206797
Si       4.32499477       3.63123766       1.83561879
Si       1.68685654       9.12201806       3.68091134
Si       1.68685654       1.85954273      -0.00322459
Si       0.46787965       4.27726359       3.67466114
Si       0.46787965       6.70429720       0.00302562
Si       3.10601787       1.21351680       1.83581776
Si       3.10601787       9.76804399       1.84186900
12
Lattice="5.277404145988211 4.889532269442812e-28 -1.6384720338436206e-18 -1.0184001808054047e-27 10.979796811270297 -1.7794152999646716e-14 1.1420535339773857e-18 5.955290746218705e-15 3.6762392040224494" Properties=species:S:1:pos:R:3 unique_starting_index=60 config_type=initial n_minim_iter=10 stress="-2.966486336803954e-05 1.0918823299080366e-16 -4.1904422499952094e-17 1.0918823299080366e-16 -0.00011672396653151989 6.846557430944644e-17 -4.1904422499952094e-17 6.846557430944644e-17 -0.0003452396455548214" pbc="T T T"
Si       2.90613926       4.27621233      -0.00086312
Si       2.90613926       6.70358448       3.67710233
Si       0.26743719       1.21368607       1.83725648
Si       0.26743719       9.76611074       1.83898273
Si       4.32591915       7.34892679       1.83876595
Si       4.32591915       3.63087002       1.83747325
Si       1.68721707       9.12076842       3.67688556
Si       1.68721707       1.85902839      -0.00064635
Si       0.46829488       4.27621233       3.67537608
Si       0.46829488       6.70358448       0.00086312
Si       3.10699695       1.21368607       1.83725648
Si       3.10699695       9.76611074       1.83898273
