6
Lattice="4.799971859682727 -2.638231165140945e-16 9.785617399987694e-14 2.584620205278527e-16 4.702432606065957 -6.29884367328934e-15 -1.007444553849237e-13 6.61926644479836e-15 4.94164579607725" Properties=species:S:1:pos:R:3 unique_starting_index=12 config_type=initial n_minim_iter=1 energy=-974.4063041613064 free_energy=-974.4063041613064 pbc="T T T"
Si       0.40385927       2.35121630       3.60108640
Si       0.40385927       2.35121630       1.34055939
Si       2.80052425       1.18676053       2.47082290
Si       2.80052425       3.51567208       2.47082290
Si       0.20520228       0.00000000       0.00000000
Si       2.60851611       0.00000000       0.00000000
6
Lattice="4.869608483074057 -2.6774493127038874e-16 9.927810062906729e-14 2.615209434785224e-16 4.7597678615589425 -6.386381173563047e-15 -1.0072394444733265e-13 6.606745005521109e-15 4.940753753126311" Properties=species:S:1:pos:R:3 unique_starting_index=12 config_type=initial n_minim_iter=2 stress="0.015945609625199274 4.060978007416228e-17 1.2856626563755496e-17 4.060978007416228e-17 0.009361177550349875 1.2247068826910356e-17 1.2856626563755496e-17 1.2247068826910356e-17 0.01797892324017925" pbc="T T T"
Si       0.40836121       2.37988393       3.65090923
Si       0.40836121       2.37988393       1.28984452
Si       2.83905916       1.20261113       2.47037688
Si       2.83905916       3.55715673       2.47037688
Si       0.21209347      -0.00000000       0.00000000
Si       2.64934841      -0.00000000       0.00000000
6
Lattice="4.824700702074208 -2.652688337546926e-16 9.873837034444134e-14 2.607945799762463e-16 4.746419097642344 -6.253744576045788e-15 -9.812172712422691e-14 6.581559243487156e-15 4.832090147754575" Properties=species:S:1:pos:R:3 unique_starting_index=12 config_type=initial n_minim_iter=3 stress="0.0005231010446118243 7.04240397982204e-17 -1.0073031574206944e-16 7.04240397982204e-17 -0.0027499441536161027 -4.800271335487192e-17 -1.0073031574206944e-16 -4.800271335487192e-17 0.0035231360117978063" pbc="T T T"
Si       0.40342669       2.37320955       3.60971027
Si       0.40342669       2.37320955       1.22237987
Si       2.81108977       1.20177087       2.41604507
Si       2.81108977       3.54464823       2.41604507
Si       0.21332718      -0.00000000       0.00000000
Si       2.62763838       0.00000000       0.00000000
6
Lattice="4.8216458697999 -2.652691008761818e-16 9.911803088318687e-14 2.6157810348399827e-16 4.763671476908119 -6.299095849374833e-15 -9.735745292272639e-14 6.53881993010485e-15 4.816967165429599" Properties=species:S:1:pos:R:3 unique_starting_index=12 config_type=initial n_minim_iter=4 stress="-0.00040969407821789136 -5.426104844280637e-17 -3.8893458529383395e-17 -5.426104844280637e-17 -0.0012346587001090751 -1.8158412389536392e-20 -3.8893458529383395e-17 -1.8158412389536392e-20 0.002099629893459885" pbc="T T T"
Si       0.40298843       2.38183574       3.58968370
Si       0.40298843       2.38183574       1.22728346
Si       2.80917678       1.20814557       2.40848358
Si       2.80917678       3.55552590       2.40848358
Si       0.21338333      -0.00000000       0.00000000
Si       2.62641531       0.00000000       0.00000000
6
Lattice="4.827221520635618 -2.65884401261962e-16 9.986616209344934e-14 2.6242349474104062e-16 4.784547544948832 -6.427398807366508e-15 -9.608781746130884e-14 6.393932149747962e-15 4.787045870207492" Properties=species:S:1:pos:R:3 unique_starting_index=12 config_type=initial n_minim_iter=5 stress="-0.00012980969071910538 -7.616963327505428e-17 -1.8490634480627938e-17 -7.616963327505428e-17 0.00010157770383556318 -4.675691281700554e-17 -1.8490634480627938e-17 -4.675691281700554e-17 -0.00010743659007830156" pbc="T T T"
Si       0.40270528       2.39227377       3.56574887
Si       0.40270528       2.39227377       1.22129700
Si       2.81162180       1.21669383       2.39352294
Si       2.81162180       3.56785372       2.39352294
Si       0.21535321      -0.00000000       0.00000000
Si       2.63083453       0.00000000       0.00000000
6
Lattice="4.830908239916327 -2.6669263725830354e-16 1.0121814615788148e-13 2.623655039328879e-16 4.794272993870941 -6.471100545802259e-15 -9.444209863285122e-14 6.340697368100713e-15 4.77118579526008" Properties=species:S:1:pos:R:3 unique_starting_index=12 config_type=initial n_minim_iter=6 stress="0.00014815988144880306 5.637005346328399e-17 3.492609035598806e-17 5.637005346328399e-17 0.0004848830959687675 -6.902012250376297e-18 3.492609035598806e-17 -6.902012250376297e-18 -0.0010407131070808982" pbc="T T T"
Si       0.40128342       2.39713650       3.55551506
Si       0.40128342       2.39713650       1.21567073
Si       2.81198451       1.22360541       2.38559290
Si       2.81198451       3.57066759       2.38559290
Si       0.21991592      -0.00000000       0.00000000
Si       2.63547364       0.00000000       0.00000000
6
Lattice="4.827135503851472 -2.670054323770109e-16 1.0236592899688201e-13 2.6117549139376064e-16 4.7819334279324925 -6.543827544926172e-15 -9.359460173566219e-14 6.2731703647951234e-15 4.790643029605115" Properties=species:S:1:pos:R:3 unique_starting_index=12 config_type=initial n_minim_iter=7 stress="-7.2516787739899e-05 -5.880649153946298e-17 -1.3491725933055238e-16 -5.880649153946298e-17 -0.0003977878938848271 1.614646659595943e-17 -1.3491725933055238e-16 1.614646659595943e-17 0.0007830670027394834" pbc="T T T"
Si       0.39744542       2.39096671       3.57017556
Si       0.39744542       2.39096671       1.22046747
Si       2.80629770       1.22367738       2.39532151
Si       2.80629770       3.55825605       2.39532151
Si       0.22815931      -0.00000000       0.00000000
Si       2.63903110      -0.00000000       0.00000000
6
Lattice="4.826920484288081 -2.6791206384758123e-16 1.0430102646192261e-13 2.605436470876006e-16 4.7867705080989476 -6.5655514993766745e-15 -9.149936446707212e-14 6.2506517914959575e-15 4.786047610720376" Properties=species:S:1:pos:R:3 unique_starting_index=12 config_type=initial n_minim_iter=8 stress="0.0015349159189604158 5.698566704323747e-17 1.3085369977681532e-17 5.698566704323747e-17 0.0012921603070790327 9.334114553178504e-19 1.3085369977681532e-17 9.334114553178504e-19 0.0012548989042089813" pbc="T T T"
Si       0.34987935       2.39338525       3.56537137
Si       0.34987935       2.39338525       1.22067624
Si       2.75849202       1.22072487       2.39302381
Si       2.75849202       3.56604564       2.39302381
Si       0.32623888      -0.00000000       0.00000000
Si       2.73128189      -0.00000000       0.00000000
6
Lattice="4.821298373266638 -2.6791277384984133e-16 1.0485896208004561e-13 2.5999731322300396e-16 4.782340449067664 -6.648912460438316e-15 -9.070022034480027e-14 6.149725021346602e-15 4.780790947127706" Properties=species:S:1:pos:R:3 unique_starting_index=12 config_type=initial n_minim_iter=9 stress="-0.0002236306101679145 -2.3358462852215438e-17 -1.6681707776967831e-16 -2.3358462852215438e-17 0.00016164272178760886 3.376032005899317e-17 -1.6681707776967831e-16 3.376032005899317e-17 1.3088089424161809e-06" pbc="T T T"
Si       0.34284861       2.39117022       3.56077481
Si       0.34284861       2.39117022       1.22001613
Si       2.74864035       1.21982055       2.39039547
Si       2.74864035       3.56251990       2.39039547
Si       0.33836410      -0.00000000       0.00000000
Si       2.74211937      -0.00000000       0.00000000
6
Lattice="4.822789004110148 -2.684553058724458e-16 1.0602839217411798e-13 2.592828872203888e-16 4.77761927067643 -6.579711481081685e-15 -8.947047810709059e-14 6.212562950238211e-15 4.778289887231818" Properties=species:S:1:pos:R:3 unique_starting_index=12 config_type=initial n_minim_iter=10 stress="-0.0003612530592098763 1.1798396146762485e-17 -1.699597920266655e-16 1.1798396146762485e-17 -0.00044835493133940066 2.510082995255513e-17 -1.699597920266655e-16 2.510082995255513e-17 -0.00045455174035847985" pbc="T T T"
Si       0.34001277       2.38880964       3.55890803
Si       0.34001277       2.38880964       1.21938185
Si       2.74655393       1.21861159       2.38914494
Si       2.74655393       3.55900768       2.38914494
Si       0.34169270      -0.00000000       0.00000000
Si       2.75149934      -0.00000000       0.00000000
6
Lattice="4.823479320775095 -2.6876922079508287e-16 1.0672906296088163e-13 2.590874320297798e-16 4.77897400716759 -6.655636859107007e-15 -8.879242682823333e-14 6.136499035422316e-15 4.7796459163514715" Properties=species:S:1:pos:R:3 unique_starting_index=12 config_type=initial n_minim_iter=11 stress="-5.826058575059375e-05 5.698187357490038e-17 -1.6671334090570448e-16 5.698187357490038e-17 -0.00018935371830431603 -2.7224439094782693e-19 -1.6671334090570448e-16 -2.7224439094782693e-19 -0.00016067403460921892" pbc="T T T"
Si       0.34100297       2.38948700       3.55999460
Si       0.34100297       2.38948700       1.21965132
Si       2.74790199       1.21925985       2.38982296
Si       2.74790199       3.55971416       2.38982296
Si       0.33936111      -0.00000000       0.00000000
Si       2.75048074      -0.00000000       0.00000000
