22
Lattice="5.1904527909251685 -1.4534849446831304 0.43583557892830704 -3.2847534970688117 7.7972292706969295 -3.5714819603052796 1.2233041367424495 -6.461869109875924 15.767613513833215" Properties=species:S:1:pos:R:3 unique_starting_index=51 config_type=initial n_minim_iter=1 energy=-3583.6795291191565 free_energy=-3583.6795291191565 pbc="T T T"
Si       1.58066491       4.04045564       1.06497527
Si       1.66661799      -0.20458322       8.49809671
Si      -0.46909822       5.40899600      -1.99397281
Si      -0.87675196       3.89149169       2.34806714
Si       1.38422103       0.57227975       6.32218768
Si       4.50412506      -2.13357280       6.43042588
Si      -0.18872764      -0.24006195       0.60873593
Si      -0.44659282       1.34577556      -1.06602927
Si       1.58695002      -2.59457498       7.78757888
Si       4.37112178      -2.10855953      12.43710936
Si      -0.37404740      -0.03323533       9.73050220
Si       3.14368014      -0.58772272       5.21687591
Si      -0.30840089       2.06013199       3.70175627
Si       3.96718500      -5.42927088      14.96513865
Si       3.16517818      -4.01043836      13.21667843
Si       1.40103442       2.69738431       5.24914314
Si       0.94300256       0.58931506       2.45296507
Si       3.64924174       0.47092303       9.58985952
Si       3.73498227      -2.95206155       8.69173558
Si       1.78483401      -1.34652667       3.42824112
Si       2.50389064       1.92059755       1.37937649
Si       3.76233205      -4.29467874       2.58618705
22
Lattice="5.189271960097039 -1.452464822263486 0.4367887220982073 -3.2837412732218882 7.794909144025846 -3.5719349667637896 1.22508394000685 -6.46102608156068 15.765272549560343" Properties=species:S:1:pos:R:3 unique_starting_index=51 config_type=initial n_minim_iter=2 stress="-0.00022610863321361222 7.578321350512737e-05 7.612708634017889e-05 7.578321350512737e-05 -0.00027039340595843376 -3.245667580410562e-05 7.612708634017889e-05 -3.245667580410562e-05 -0.00022516970819980422" pbc="T T T"
Si       1.58110648       4.03949630       1.06475423
Si       1.66774726      -0.20518450       8.49674051
Si      -0.46863314       5.40761272      -1.99402479
Si      -0.87575248       3.89034171       2.34749304
Si       1.38509284       0.57184559       6.32101902
Si       4.50407591      -2.13298871       6.43015445
Si      -0.18851849      -0.24002543       0.60871013
Si      -0.44647119       1.34545531      -1.06602498
Si       1.58755268      -2.59419533       7.78656171
Si       4.37213019      -2.10814458      12.43566617
Si      -0.37222400      -0.03396492       9.72850475
Si       3.14403273      -0.58752075       5.21664193
Si      -0.30750772       2.05914491       3.70083302
Si       3.96838653      -5.42832463      14.96336337
Si       3.16625476      -4.00975122      13.21505330
Si       1.40204530       2.69642603       5.24826691
Si       0.94348982       0.58910036       2.45258891
Si       3.65013387       0.47059778       9.58861613
Si       3.73533682      -2.95146377       8.69084718
Si       1.78500341      -1.34610037       3.42790413
Si       2.50395875       1.92027881       1.37942115
Si       3.76152371      -4.29325069       2.58661649
22
Lattice="5.191077707869892 -1.4520232010868923 0.43965189348866834 -3.285222372044373 7.797054303052106 -3.5763133377465426 1.2317854010938465 -6.465141740354511 15.773842283363807" Properties=species:S:1:pos:R:3 unique_starting_index=51 config_type=initial n_minim_iter=3 stress="0.0002661243541618409 0.00023321365662652154 0.0005912377965050608 0.00023321365662652154 0.00017816723008412926 -0.00021811875167323055 0.0005912377965050608 -0.00021811875167323055 0.00038035802015289933" pbc="T T T"
Si       1.58341961       4.04102542       1.06512289
Si       1.67208725      -0.20847443       8.50090849
Si      -0.46839356       5.40958347      -1.99585144
Si      -0.87502486       3.89245703       2.34982781
Si       1.38818985       0.57119398       6.32307327
Si       4.50831093      -2.13477335       6.43545306
Si      -0.18763584      -0.23987941       0.60980966
Si      -0.44648335       1.34615544      -1.06703809
Si       1.59013951      -2.59583034       7.79121857
Si       4.37874133      -2.10881712      12.44349511
Si      -0.36783559      -0.03575097       9.73205779
Si       3.14860916      -0.58792878       5.22171170
Si      -0.30628842       2.05816851       3.70191086
Si       3.97588048      -5.43161769      14.97257962
Si       3.17178322      -4.01167802      13.22331372
Si       1.40561674       2.69635764       5.25129990
Si       0.94642885       0.58901490       2.45369366
Si       3.65495596       0.46996307       9.59408145
Si       3.73967464      -2.95363586       8.69607937
Si       1.78775809      -1.34616296       3.42976734
Si       2.50670254       1.92097996       1.38084593
Si       3.76364504      -4.29452709       2.58987176
22
Lattice="5.190629743430271 -1.4541753532015098 0.433302562795222 -3.2844753084307445 7.797075667468277 -3.5682355122158085 1.2175744871864755 -6.459060733760318 15.764308562750823" Properties=species:S:1:pos:R:3 unique_starting_index=51 config_type=initial n_minim_iter=4 stress="-9.955571628540321e-05 -8.851010098387148e-05 3.481606342764567e-05 -8.851010098387148e-05 3.384761992160705e-05 9.05826101783719e-06 3.481606342764567e-05 9.05826101783719e-06 9.269025961685918e-07" pbc="T T T"
Si       1.58169625       4.04156653       1.06418422
Si       1.66233597      -0.21112104       8.49489736
Si      -0.46757627       5.40958024      -1.99209265
Si      -0.88120293       3.89786540       2.35762035
Si       1.37970053       0.57310818       6.31647082
Si       4.50177180      -2.13652793       6.42748255
Si      -0.18636705      -0.23850293       0.61198665
Si      -0.44484851       1.34649345      -1.06577139
Si       1.57968800      -2.59311001       7.78597651
Si       4.36481016      -2.10261444      12.43349730
Si      -0.37846350      -0.03181641       9.72755200
Si       3.14569073      -0.58713496       5.21926488
Si      -0.31304780       2.05772182       3.70169473
Si       3.96172873      -5.42727131      14.96043207
Si       3.15622540      -4.00563327      13.21433979
Si       1.39882163       2.69739153       5.25031712
Si       0.94690998       0.58959833       2.45119540
Si       3.64125419       0.47270909       9.58593032
Si       3.72971643      -2.95317304       8.68565392
Si       1.78644794      -1.34403057       3.42443627
Si       2.50639179       1.92043832       1.37841306
Si       3.76310130      -4.29590156       2.58234241
22
Lattice="5.192860025844414 -1.4512311179887287 0.4310461359698579 -3.2810732581251854 7.793481906454002 -3.5663814238169294 1.2084446248643208 -6.456595143625944 15.76223530965331" Properties=species:S:1:pos:R:3 unique_starting_index=51 config_type=initial n_minim_iter=5 stress="0.0002645586226482846 0.0003783142533109658 -0.00019030752465412623 0.0003783142533109658 -0.0001192430709260577 5.060575428835411e-05 -0.00019030752465412623 5.060575428835411e-05 -6.670540971316304e-06" pbc="T T T"
Si       1.58501938       4.04145985       1.06308855
Si       1.65925737      -0.21116000       8.49263977
Si      -0.46395309       5.40815363      -1.99168802
Si      -0.88137361       3.89730494       2.35929663
Si       1.37808263       0.57321031       6.31502709
Si       4.50067286      -2.13460957       6.42486295
Si      -0.18666652      -0.23816708       0.61216085
Si      -0.44388469       1.34584532      -1.06540344
Si       1.57514550      -2.59166336       7.78495520
Si       4.36099826      -2.09909508      12.43046856
Si      -0.38311871      -0.03184206       9.72631299
Si       3.14518131      -0.58547864       5.21798067
Si      -0.31352624       2.05662300       3.70123307
Si       3.95516368      -5.42379131      14.95719031
Si       3.15003034      -4.00232532      13.21166341
Si       1.39853660       2.69745905       5.24946389
Si       0.94745107       0.59073987       2.45085077
Si       3.63916084       0.47454194       9.58335228
Si       3.72646241      -2.95084092       8.68284698
Si       1.78621396      -1.34259348       3.42350074
Si       2.50901514       1.92167121       1.37718709
Si       3.76217552      -4.29270997       2.58050074
22
Lattice="5.1955905387486725 -1.4545447062496817 0.43025507991320977 -3.2865208654945954 7.795914745447867 -3.5667691457881547 1.2098406668705923 -6.460808450562011 15.759732271373183" Properties=species:S:1:pos:R:3 unique_starting_index=51 config_type=initial n_minim_iter=6 stress="0.00034286317906224593 -5.219727037457897e-07 -0.00010118313249424843 -5.219727037457897e-07 -1.534717960931737e-05 -0.000241742951547713 -0.00010118313249424843 -0.000241742951547713 -0.0002690212561343718" pbc="T T T"
Si       1.58588973       4.04026210       1.05993915
Si       1.65676501      -0.21747186       8.48757048
Si      -0.46573948       5.40924462      -1.99284268
Si      -0.88664372       3.89943370       2.36251547
Si       1.37680166       0.56845165       6.31243235
Si       4.50226550      -2.14238146       6.42256114
Si      -0.18644212      -0.23696959       0.61238810
Si      -0.44439658       1.34602419      -1.06522934
Si       1.57260492      -2.59499265       7.78501657
Si       4.36095283      -2.10305680      12.42704419
Si      -0.38626037      -0.03414099       9.72227562
Si       3.14553483      -0.58923971       5.21765756
Si      -0.31446806       2.05408801       3.69892756
Si       3.95728290      -5.42999595      14.95375012
Si       3.14944228      -4.00554556      13.20833176
Si       1.39530557       2.69487222       5.24766227
Si       0.94923800       0.59269498       2.45099577
Si       3.63672507       0.46974585       9.57967321
Si       3.72675788      -2.95637341       8.67956779
Si       1.78981168      -1.34427159       3.42363851
Si       2.51087758       1.92111374       1.37571444
Si       3.76573737      -4.29453241       2.58056502
22
Lattice="5.192705007097794 -1.4548156076467518 0.42936329798202444 -3.2854689979179748 7.793281629587087 -3.563868740774943 1.2093513743394744 -6.449487324224025 15.76696919823335" Properties=species:S:1:pos:R:3 unique_starting_index=51 config_type=initial n_minim_iter=7 stress="-6.087787968914554e-06 1.9876767913318312e-05 8.18687837277095e-06 1.9876767913318312e-05 -0.0001543934721349522 0.00022447953672700854 8.18687837277095e-06 0.00022447953672700854 0.00021437660734829504" pbc="T T T"
Si       1.58705623       4.04084746       1.06216174
Si       1.65422459      -0.21402473       8.49172896
Si      -0.46497462       5.40809703      -1.99088956
Si      -0.88821556       3.90268309       2.37056490
Si       1.37556959       0.57082331       6.31698908
Si       4.49940546      -2.14111130       6.42530029
Si      -0.18613548      -0.23554944       0.61290081
Si      -0.44415465       1.34511400      -1.06499995
Si       1.56924006      -2.59014736       7.79045296
Si       4.35783220      -2.09349506      12.43467074
Si      -0.38724757      -0.02734480       9.72820403
Si       3.14355545      -0.58639594       5.22212018
Si      -0.31382374       2.05540537       3.70249098
Si       3.95530317      -5.41999687      14.96066027
Si       3.14636691      -3.99509967      13.21494293
Si       1.39307988       2.69791851       5.25382624
Si       0.95042565       0.59663026       2.45406092
Si       3.63295396       0.47579393       9.58663838
Si       3.72356881      -2.95154567       8.68298709
Si       1.79087965      -1.34181566       3.42590699
Si       2.51095568       1.92284020       1.37787168
Si       3.76390169      -4.29214052       2.57968600
22
Lattice="5.189532686904989 -1.4557800854988319 0.4280906050630319 -3.281693326752197 7.801397502763252 -3.5646848943284986 1.2029040568509877 -6.460957721880784 15.764850816577763" Properties=species:S:1:pos:R:3 unique_starting_index=51 config_type=initial n_minim_iter=8 stress="-0.00045807571954409993 0.00014500355667583425 -9.739342049856147e-05 0.00014500355667583425 0.0005249779049059417 -0.00022155706720792428 -9.739342049856147e-05 -0.00022155706720792428 -8.757269552728261e-05" pbc="T T T"
Si       1.58974612       4.04502985       1.05810356
Si       1.64904912      -0.21908439       8.48736670
Si      -0.46256764       5.41468045      -1.99248711
Si      -0.88958201       3.90714808       2.37267636
Si       1.37274247       0.56710855       6.31405406
Si       4.49394835      -2.14840795       6.42214591
Si      -0.18566572      -0.23482693       0.61343574
Si      -0.44338874       1.34670343      -1.06540018
Si       1.56296046      -2.59610705       7.79092897
Si       4.35098452      -2.09798676      12.43070709
Si      -0.39120561      -0.03100607       9.72436532
Si       3.14029875      -0.58913770       5.22098193
Si      -0.31382898       2.05508474       3.70053925
Si       3.94792867      -5.43019588      14.95719295
Si       3.13860492      -4.00189618      13.21171823
Si       1.38956560       2.69803653       5.25171795
Si       0.95142277       0.59848818       2.45357340
Si       3.62641884       0.47302914       9.58250172
Si       3.71702492      -2.95797245       8.67987558
Si       1.79090658      -1.34374249       3.42535763
Si       2.51147806       1.92576784       1.37559985
Si       3.76039042      -4.29577904       2.57983921
22
Lattice="5.197264794188565 -1.4584222410062477 0.4276755035267528 -3.2916187837751605 7.7972422029131065 -3.562480119573108 1.2089540868327666 -6.455074673870786 15.7582780351404" Properties=species:S:1:pos:R:3 unique_starting_index=51 config_type=initial n_minim_iter=9 stress="0.00012737229707418733 -0.00020852209905104934 0.0001416149883201798 -0.00020852209905104934 0.0001590638038626774 -0.00015898793290124153 0.0001416149883201798 -0.00015898793290124153 -0.00044480997653319903" pbc="T T T"
Si       1.59483235       4.04203083       1.05495384
Si       1.64880257      -0.22179874       8.48192205
Si      -0.46586786       5.41217985      -1.99157075
Si      -0.89569472       3.90747781       2.37809588
Si       1.37382737       0.56301801       6.31061249
Si       4.49974856      -2.15512516       6.41779276
Si      -0.18452644      -0.23246467       0.61419796
Si      -0.44483134       1.34602230      -1.06563221
Si       1.56273799      -2.59607880       7.79133475
Si       4.35772933      -2.09614332      12.42549222
Si      -0.39357943      -0.02986671       9.71851252
Si       3.14543210      -0.59162325       5.22021228
Si      -0.31484634       2.05324367       3.69915289
Si       3.95699927      -5.42736969      14.95050875
Si       3.14343578      -3.99787110      13.20597453
Si       1.38685580       2.69405555       5.25140232
Si       0.95593381       0.60023999       2.45345747
Si       3.62833190       0.47077183       9.57850639
Si       3.72166461      -2.95892489       8.67541904
Si       1.79753094      -1.34287382       3.42413426
Si       2.51655304       1.92469209       1.37433623
Si       3.76790837      -4.29359666       2.57915446
22
Lattice="5.201209055463524 -1.4598537302705736 0.42608831995059854 -3.29692129300768 7.788804104990357 -3.5698021536176796 1.2050246712588064 -6.4543634670653836 15.78231968091618" Properties=species:S:1:pos:R:3 unique_starting_index=51 config_type=initial n_minim_iter=10 stress="0.00024235832146691136 -0.00040897925599718625 2.1839280806123107e-05 -0.00040897925599718625 -0.0005732518286907709 -0.0004514877383130846 2.1839280806123107e-05 -0.0004514877383130846 0.0001797485949013696" pbc="T T T"
Si       1.60159743       4.03600925       1.04824762
Si       1.64193911      -0.22905445       8.49109116
Si      -0.46748956       5.40745482      -1.99754332
Si      -0.90238239       3.90298387       2.38643472
Si       1.37037306       0.55315471       6.31621380
Si       4.49739632      -2.16636209       6.42200120
Si      -0.18270429      -0.22967605       0.61690333
Si      -0.44565588       1.34550273      -1.06916338
Si       1.55626327      -2.60019583       7.80807537
Si       4.35482166      -2.10038409      12.44033760
Si      -0.40181714      -0.03526682       9.72910906
Si       3.14640590      -0.59761295       5.22671621
Si      -0.31779314       2.04787220       3.70357182
Si       3.95484796      -5.42964266      14.97064104
Si       3.13829769      -3.99937183      13.22389460
Si       1.37899634       2.68332816       5.25860301
Si       0.95968657       0.59956881       2.45632516
Si       3.62189866       0.46179522       9.58849721
Si       3.71784747      -2.96333718       8.68621467
Si       1.80163310      -1.34247054       3.42779478
Si       2.52012712       1.92176724       1.37208381
Si       3.77080769      -4.28898574       2.58402732
22
Lattice="5.213933033699783 -1.4637163276445815 0.421717048085917 -3.311514316849544 7.777776904546202 -3.5619648843371317 1.2060585414001013 -6.430947322322395 15.782937180361248" Properties=species:S:1:pos:R:3 unique_starting_index=51 config_type=initial n_minim_iter=11 stress="0.0009533588412054715 -0.000567037635112332 0.0003415027090770076 -0.000567037635112332 -0.0010170031128043102 0.00028049884511445336 0.0003415027090770076 0.00028049884511445336 -1.621143386005513e-05" pbc="T T T"
Si       1.63180628       4.03737369       1.03398523
Si       1.62971660      -0.22609229       8.49062067
Si      -0.47018859       5.40739266      -1.99464615
Si      -0.91716673       3.90905524       2.41482291
Si       1.36780521       0.54146496       6.31330494
Si       4.49462702      -2.19020480       6.40919391
Si      -0.17565893      -0.21929255       0.62253695
Si      -0.44876523       1.34544178      -1.07377324
Si       1.54253222      -2.60105273       7.82885861
Si       4.36020444      -2.08282244      12.43979624
Si      -0.41674016      -0.02574318       9.72602002
Si       3.15716462      -0.60191127       5.22941154
Si      -0.32125818       2.04896800       3.70967791
Si       3.96192540      -5.41114992      14.96776776
Si       3.13499120      -3.97943142      13.22463822
Si       1.36197182       2.67407607       5.27246571
Si       0.97653956       0.60721282       2.45866295
Si       3.61365184       0.46507926       9.59008394
Si       3.71329270      -2.96104925       8.68467488
Si       1.81862193      -1.33420491       3.42356648
Si       2.53613705       1.92564977       1.36751407
Si       3.77977732      -4.27879410       2.58262617
22
Lattice="5.2223688467710625 -1.4695121718094817 0.4082065383692385 -3.318129560837117 7.7717586172594615 -3.5598079445013346 1.1742285522859077 -6.4211952061874795 15.815356896220404" Properties=species:S:1:pos:R:3 unique_starting_index=51 config_type=initial n_minim_iter=12 stress="0.000498389320861646 -0.0003454529809205019 0.00014575832001207905 -0.0003454529809205019 -0.0006955257370980253 0.00031537055491100114 0.00014575832001207905 0.00031537055491100114 0.00011074178172984695" pbc="T T T"
Si       1.69346440       4.04736560       0.99365160
Si       1.58655412      -0.23389814       8.50001475
Si      -0.46382809       5.41965212      -2.00134586
Si      -0.94575894       3.92523794       2.47236186
Si       1.34824736       0.50644680       6.31195795
Si       4.46194249      -2.25129727       6.38822761
Si      -0.16193566      -0.19950104       0.63444997
Si      -0.45095022       1.34894488      -1.08486669
Si       1.49419272      -2.61985343       7.88594984
Si       4.33701121      -2.06782124      12.45300558
Si      -0.46124171      -0.02378879       9.73468727
Si       3.16223170      -0.61762647       5.23805443
Si      -0.33063687       2.04500486       3.72277344
Si       3.93654200      -5.40509987      14.98536254
Si       3.09419698      -3.96582630      13.24775644
Si       1.31828763       2.65241648       5.30395001
Si       1.00451433       0.62381773       2.46441349
Si       3.57171619       0.46003312       9.59932499
Si       3.67661649      -2.97472721       8.69385717
Si       1.84391227      -1.32236766       3.41717699
Si       2.56240491       1.93559550       1.35326457
Si       3.77933227      -4.26557872       2.58422224
22
Lattice="5.2027124806160465 -1.4613555181694902 0.40836418609507885 -3.2882707293712965 7.789785952110202 -3.5625057860783627 1.1529712817493782 -6.446291284354665 15.814418178874112" Properties=species:S:1:pos:R:3 unique_starting_index=51 config_type=initial n_minim_iter=13 stress="-0.0009859083045930383 0.0009856900024593773 -0.00029482844566234466 0.0009856900024593773 0.0012212587563398773 7.093458734163974e-05 -0.00029482844566234466 7.093458734163974e-05 0.00025462316364697796" pbc="T T T"
Si       1.68482455       4.06186464       0.99319238
Si       1.58580337      -0.22288947       8.50827301
Si      -0.44897383       5.43226762      -2.00477045
Si      -0.92859164       3.92864169       2.45399117
Si       1.34211051       0.51196391       6.31275468
Si       4.43897127      -2.23914300       6.38863999
Si      -0.16525012      -0.20575024       0.62823560
Si      -0.44693537       1.35212568      -1.08040627
Si       1.49373836      -2.62519248       7.87932696
Si       4.31751092      -2.07701360      12.45158984
Si      -0.45757067      -0.02840413       9.74298128
Si       3.15049184      -0.61104417       5.22986701
Si      -0.32801829       2.04796102       3.72018766
Si       3.90828731      -5.41790689      14.98409040
Si       3.07944801      -3.98365108      13.24976284
Si       1.32705020       2.66454873       5.30510751
Si       0.98976347       0.62522099       2.46039808
Si       3.56751352       0.46813453       9.59683905
Si       3.66319178      -2.97798517       8.69962889
Si       1.83007656      -1.32078687       3.40943013
Si       2.55091467       1.93758170       1.35488476
Si       3.75951880      -4.27329278       2.58047350
22
Lattice="5.211960839489481 -1.4668791753230723 0.3911806809639669 -3.291671833382759 7.786230258750056 -3.5615698798352233 1.106888692968146 -6.448040997229804 15.843580914386646" Properties=species:S:1:pos:R:3 unique_starting_index=51 config_type=initial n_minim_iter=14 stress="-0.0011651764915635505 0.0008888920192275595 -0.0005839300138646501 0.0008888920192275595 0.001701703944406344 -0.00023366213565752104 -0.0005839300138646501 -0.00023366213565752104 5.4746339258882266e-05" pbc="T T T"
Si       1.74355209       4.07055368       0.94177776
Si       1.53642443      -0.23352437       8.51728596
Si      -0.43405846       5.44342856      -2.01856195
Si      -0.96131728       3.94643220       2.50814729
Si       1.31221958       0.46720014       6.30719558
Si       4.39478569      -2.30535610       6.36186742
Si      -0.15413927      -0.18821310       0.63351745
Si      -0.44770727       1.35594276      -1.08525577
Si       1.44048120      -2.64783297       7.93430284
Si       4.28217627      -2.07362206      12.45893289
Si      -0.51048253      -0.03196596       9.75626933
Si       3.15255777      -0.62764742       5.23040442
Si      -0.34114467       2.03450557       3.72680320
Si       3.86981501      -5.42151699      14.99472552
Si       3.02866516      -3.98072242      13.27108828
Si       1.28452422       2.64132857       5.34122492
Si       1.00837749       0.64935614       2.46186716
Si       3.52031529       0.46042287       9.59768965
Si       3.62272280      -3.00169660       8.70982750
Si       1.85854170      -1.30433886       3.39136384
Si       2.57560133       1.93968666       1.33925810
Si       3.76095960      -4.26194476       2.57451386
22
Lattice="5.223732042940654 -1.470750993605266 0.3828646068013938 -3.302006987238272 7.775599851378101 -3.5637754285189844 1.0885180320253602 -6.4458069022136835 15.859397827121894" Properties=species:S:1:pos:R:3 unique_starting_index=51 config_type=initial n_minim_iter=15 stress="-0.0004919795571808268 0.000232561214572103 -0.00047554912474912333 0.000232561214572103 0.0009142621091167643 -0.00038826847488056856 -0.00047554912474912333 -0.00038826847488056856 -0.0001532905924308064" pbc="T T T"
Si       1.77001234       4.06534446       0.91007200
Si       1.51354598      -0.23964057       8.52422906
Si      -0.42570862       5.43919052      -2.03181710
Si      -0.98270696       3.94940259       2.53233274
Si       1.29440348       0.43630147       6.30502186
Si       4.37391701      -2.34049096       6.34767572
Si      -0.15025645      -0.18133022       0.63081653
Si      -0.44906044       1.35663542      -1.08425348
Si       1.41943711      -2.65712443       7.96261762
Si       4.26863937      -2.08019787      12.46419209
Si      -0.53763602      -0.03589064       9.76906262
Si       3.15654809      -0.63687166       5.22711551
Si      -0.34936850       2.02077650       3.72743191
Si       3.85808098      -5.42327862      15.00078598
Si       3.01089391      -3.98130133      13.28394479
Si       1.26687740       2.62343788       5.36505627
Si       1.01169326       0.66466945       2.45975495
Si       3.50251893       0.45290430       9.59758480
Si       3.61135473      -3.01703144       8.72097379
Si       1.87925925      -1.29124259       3.37527802
Si       2.58781104       1.93133453       1.33222412
Si       3.77132874      -4.25351438       2.56793262
22
Lattice="5.2304903303438355 -1.4708384282042506 0.38777646955962997 -3.312323610262591 7.765307284007195 -3.567987640791717 1.1065862774007729 -6.442245363707022 15.854063369191422" Properties=species:S:1:pos:R:3 unique_starting_index=51 config_type=initial n_minim_iter=16 stress="0.0003008557519429564 -0.0002585813297413964 0.00028505006745685056 -0.0002585813297413964 -0.0003925824960124113 -0.00021868233654274123 0.00028505006745685056 -0.00021868233654274123 -0.00031592832393113977" pbc="T T T"
Si       1.75217374       4.05081546       0.91279048
Si       1.52786742      -0.23660647       8.52675596
Si      -0.42651942       5.42359814      -2.03922649
Si      -0.98115070       3.93685241       2.51481444
Si       1.29616236       0.43310855       6.30776885
Si       4.38345732      -2.32869013       6.35180477
Si      -0.15496999      -0.18874319       0.62076912
Si      -0.44997935       1.35500315      -1.07828171
Si       1.44178360      -2.64894556       7.95144282
Si       4.28249049      -2.09453532      12.46569446
Si      -0.52495142      -0.03751932       9.77660168
Si       3.15909776      -0.63347849       5.22098854
Si      -0.34802569       2.01602879       3.72315871
Si       3.87807213      -5.42356150      14.99982092
Si       3.03528355      -3.98585037      13.28197555
Si       1.28352799       2.61987637       5.36696377
Si       0.99687836       0.66443757       2.45377312
Si       3.52278242       0.45097465       9.59764888
Si       3.63397541      -3.01715635       8.72980852
Si       1.88154677      -1.28624711       3.36719741
Si       2.58053868       1.91815791       1.33729206
Si       3.78436197      -4.25321653       2.56307278
22
Lattice="5.239805310524292 -1.4725866981531532 0.37861302128440505 -3.3187683725593042 7.749990324894545 -3.568707453876042 1.0850766055887047 -6.424237339311628 15.890833572718375" Properties=species:S:1:pos:R:3 unique_starting_index=51 config_type=initial n_minim_iter=17 stress="0.000967957085480275 -0.0009167608746735886 0.0002312082159593908 -0.0009167608746735886 -0.0015861309720191362 0.0005852001073671016 0.0002312082159593908 0.0005852001073671016 0.00049492197603209" pbc="T T T"
Si       1.79803975       4.04988331       0.87331332
Si       1.49623878      -0.23027159       8.55103770
Si      -0.41265140       5.42120106      -2.05936430
Si      -1.00443038       3.93938450       2.55819436
Si       1.27262986       0.39587937       6.31749341
Si       4.34760251      -2.37196690       6.33513757
Si      -0.14488455      -0.18035939       0.61857687
Si      -0.44997299       1.36056371      -1.08552794
Si       1.41895470      -2.65259439       8.00455332
Si       4.26529376      -2.09288337      12.49304340
Si      -0.55424851      -0.02948197       9.81005665
Si       3.15887372      -0.63717219       5.22338047
Si      -0.35492222       2.02089078       3.74334066
Si       3.86516053      -5.41302192      15.02856086
Si       3.01830819      -3.97153525      13.31104180
Si       1.26202920       2.59710574       5.41448430
Si       1.00146561       0.68066033       2.44642026
Si       3.50101053       0.45668986       9.62038101
Si       3.61704939      -3.02479569       8.76414357
Si       1.90417075      -1.25994685       3.34323161
Si       2.59421118       1.92049457       1.32873869
Si       3.79222088      -4.24125663       2.55370843
22
Lattice="5.225222787199381 -1.467852362623388 0.38163398518727537 -3.2987165054265875 7.771327827327318 -3.566502850021485 1.0807226825947598 -6.445085174957692 15.871327799761032" Properties=species:S:1:pos:R:3 unique_starting_index=51 config_type=initial n_minim_iter=18 stress="0.0001715819825651772 0.00012010719190840027 8.671633769301499e-05 0.00012010719190840027 -0.00012022724408028039 0.00019623643695868803 8.671633769301499e-05 0.00019623643695868803 -4.9099526694092954e-05" pbc="T T T"
Si       1.77993625       4.06067957       0.88709200
Si       1.50275005      -0.23468991       8.53776828
Si      -0.40439618       5.43258606      -2.06161916
Si      -0.99325959       3.94259213       2.54693118
Si       1.27174154       0.40703130       6.31637610
Si       4.34679409      -2.35506937       6.33413788
Si      -0.14712567      -0.18967423       0.61304659
Si      -0.44222512       1.36627925      -1.08622530
Si       1.42864370      -2.64749910       7.98134738
Si       4.25686316      -2.10180474      12.48383866
Si      -0.53817980      -0.02832481       9.80332521
Si       3.14076415      -0.62672377       5.21983410
Si      -0.34636663       2.04120757       3.74782125
Si       3.85716776      -5.43193101      15.01733407
Si       3.02146531      -3.98119598      13.28934936
Si       1.28073440       2.60920314       5.40117514
Si       0.98825347       0.67643647       2.43519628