6
Lattice="3.5378622640654664 -6.692022375280735e-16 2.0838094883555248e-16 8.710214044828807e-16 5.107346688120906 0.7005049133903647 1.0816033265066946e-16 -0.08530716769173287 6.131291947322214" Properties=species:S:1:pos:R:3 unique_starting_index=75 config_type=initial n_minim_iter=1 energy=-976.3091479925941 free_energy=-976.3091479925941 pbc="T T T"
Si       0.88562705       3.17092266       3.77750635
Si       2.65455819       3.21357625       0.71186038
Si       2.65455819       1.78562269       4.72951200
Si       0.88562705       1.82827627       1.66386602
Si       2.65455819       0.46707681       0.59227401
Si       0.88562705       0.42442322       3.65791998
