18
Lattice="4.6911424736015555 0.0 0.0 0.0 11.418839294702135 -5.105284201893084e-16 0.0 4.067015271306571e-16 10.49420434544031" Properties=species:S:1:pos:R:3 unique_starting_index=36 config_type=initial n_minim_iter=19 energy=-2924.8082148642793 free_energy=-2924.8082148642793 pbc="T T T"
Si       4.69077812      11.11846898       9.31602542
Si       0.00036436      11.11846898       1.17817893
Si       2.34593559      11.11846898       4.06892325
Si       2.34520688      11.11846898       6.42528110
Si       0.00479943       2.00578574       1.96372716
Si       4.68634305       2.00578574       8.53047718
Si       2.34077181       2.00578574       7.21082934
Si       2.35037066       2.00578574       3.28337501
Si       0.00490073       8.97983090       2.16279217
Si       4.68624175       8.97983090       8.33141218
Si       2.34067051       8.97983090       7.40989434
Si       2.35047197       8.97983090       3.08431000
Si       2.34478840       0.55950072       1.23971214
Si       2.34635407       0.55950072       9.25449221
Si       0.00078284       0.55950072       6.48681431
Si       4.69035964       0.55950072       4.00739004
Si      -0.00000000       7.99837742       0.00000000
Si       2.34557124       7.99837742       5.24710217
