22
Lattice="12.192246638416002 1.5103801743144596 -0.24237379674112097 -0.3430388557721827 11.688501652547817 -0.7548751265462852 -7.415969455629181 -4.905202181510885 8.618177127740443" Properties=species:S:1:pos:R:3 unique_starting_index=18 config_type=initial n_minim_iter=1 energy=-3735.9313317061087 free_energy=-3735.9313317061087 pbc="T T T"
Si       4.54584309      10.52303141       1.24503479
Si       1.81941532       1.80471971       6.57959744
Si      -5.14814143      -4.09356072       6.80545202
Si       3.25599618       0.54243247       8.48546589
Si      -9.61664872       0.31736797       9.63106105
Si       8.49703492       6.58230528       1.54944956
Si       6.39480999       0.00137348       1.89442098
Si       0.55333295       2.14227503       7.59366141
Si       1.73273347       0.39739536       9.32227793
Si      -0.42281181       2.02322092       4.92169468
Si       5.47193705       1.28277414       2.98432975
Si      -1.86420682       4.64372429       3.71163495
Si      -6.12468607      -2.59643342       4.60476026
Si       2.69760905      10.98765251       1.39206593
Si       9.67806413       4.63636301       3.23846323
Si       6.12828052       7.97391102      -2.74452853
Si      -0.65927057      -1.56745217       1.18410396
Si       5.65754757      -1.33347547       6.22264218
Si       4.60187128       3.76855257       2.76259778
Si       0.16797282       3.53753428       5.21702834
Si      -1.07956165       3.53254998       2.77800358
Si       0.63823237       0.63573825       6.89453517
22
Lattice="12.166248763253652 1.4826573119060225 -0.20492344879969704 -0.3688651053256825 11.667651588299277 -0.7671732798456817 -7.365085684160102 -4.889704100624974 8.586226728464966" Properties=species:S:1:pos:R:3 unique_starting_index=18 config_type=initial n_minim_iter=2 stress="-0.016007116932052236 -0.008528592433094322 0.019518558585380333 -0.008528592433094322 -0.01930454856334968 -0.013082614380553328 0.019518558585380333 -0.013082614380553328 0.00954941642000007" pbc="T T T"
Si       4.51980811      10.49297862       1.24653456
Si       1.83203840       1.79014422       6.57629574
Si      -5.10894402      -4.08210490       6.78277341
Si       3.27329587       0.52580591       8.48405053
Si      -9.57094549       0.32559779       9.58338912
Si       8.47391422       6.55105263       1.56729547
Si       6.38851092      -0.01372550       1.91210113
Si       0.57276131       2.13137089       7.58083240
Si       1.76003042       0.38344478       9.31001903
Si      -0.41083596       2.01646883       4.90901434
Si       5.46915876       1.26503819       2.99512649
Si      -1.85914259       4.63545119       3.69531403
Si      -6.09382872      -2.58370714       4.58104295
Si       2.67512030      10.95927194       1.38666792
Si       9.65863138       4.60306545       3.26086477
Si       6.09136654       7.94869668      -2.72964852
Si      -0.65100755      -1.56414718       1.18155351
Si       5.67006794      -1.34942317       6.23180320
Si       4.59460213       3.74886240       2.76873637
Si       0.17716518       3.52412396       5.20580065
Si      -1.07161668       3.52382030       2.76469902
Si       0.65884205       0.62513219       6.88512753
22
Lattice="12.172723967991194 1.4668524230589945 -0.19316025004995796 -0.3864335590601393 11.68279848726321 -0.7485445446122827 -7.357311476986927 -4.874416921138401 8.532553100390217" Properties=species:S:1:pos:R:3 unique_starting_index=18 config_type=initial n_minim_iter=3 stress="-0.008225998880506406 -0.00839229871876312 -0.005331787011055775 -0.00839229871876312 0.0007831800074538567 0.011968614441421168 -0.005331787011055775 0.011968614441421168 -0.02176142916396824" pbc="T T T"
Si       4.50860328      10.50391941       1.25789302
Si       1.83436052       1.79762238       6.55428081
Si      -5.10237297      -4.07069276       6.74077244
Si       3.27448804       0.53327996       8.45104350
Si      -9.57418633       0.35174730       9.52596293
Si       8.47331736       6.55099005       1.57558965
Si       6.39287537      -0.02023411       1.90828313
Si       0.57560082       2.14974902       7.54762399
Si       1.77087022       0.39274194       9.25994583
Si      -0.41108708       2.02766142       4.88327233
Si       5.47415986       1.26074759       2.98497158
Si      -1.86559548       4.65118645       3.68291285
Si      -6.09175598      -2.57230220       4.55139362
Si       2.66373654      10.97105997       1.39582193
Si       9.65481792       4.59660358       3.26203619
Si       6.07934997       7.94657714      -2.70149932
Si      -0.64819721      -1.56327021       1.17265119
Si       5.68124861      -1.35190066       6.20288393
Si       4.59463095       3.75068363       2.76317574
Si       0.17797938       3.53525947       5.18541802
Si      -1.06483346       3.53077539       2.75063755
Si       0.66567503       0.63163654       6.85301683
22
Lattice="12.191680039405018 1.4769318847977164 -0.1826218857194938 -0.3788790295348661 11.687456966291263 -0.7659277168670898 -7.362856139904503 -4.893342221192345 8.544978775543074" Properties=species:S:1:pos:R:3 unique_starting_index=18 config_type=initial n_minim_iter=4 stress="0.021577292557140842 -0.008503274914115469 0.008439927264132455 -0.008503274914115469 0.01976557021620176 -0.0026444597733271315 0.008439927264132455 -0.0026444597733271315 0.019715486816647643" pbc="T T T"
Si       4.52444911      10.51011609       1.25074123
Si       1.84639051       1.79026273       6.56643590
Si      -5.10609990      -4.08480054       6.75173248
Si       3.28521130       0.52470932       8.46994939
Si      -9.57832400       0.33207419       9.52832409
Si       8.49324387       6.55776251       1.57899022
Si       6.40357569      -0.01781684       1.91853180
Si       0.58484454       2.14366761       7.55839107
Si       1.78500912       0.38063410       9.27308006
Si      -0.40522404       2.02149452       4.88592505
Si       5.48681456       1.26024296       2.99319604
Si      -1.86078467       4.64593393       3.68020522
Si      -6.09814269      -2.58399720       4.55592004
Si       2.67835122      10.97441872       1.38589026
Si       9.67438676       4.60027819       3.27265595
Si       6.08971040       7.95723279      -2.70975224
Si      -0.64900218      -1.56564218       1.17559941
Si       5.69567571      -1.35686365       6.22022223
Si       4.60733439       3.75157221       2.76720860
Si       0.18807321       3.53006832       5.18920480
Si      -1.05760555       3.52663813       2.74814946
Si       0.67519316       0.62213915       6.86406085
22
Lattice="12.173662013198587 1.5048674037471692 -0.18207195779893343 -0.34733869800550493 11.649792644604638 -0.7850306865087526 -7.36052071538756 -4.911732574666611 8.542365071790016" Properties=species:S:1:pos:R:3 unique_starting_index=18 config_type=initial n_minim_iter=5 stress="0.008391818462649565 0.009172292786548275 0.006418698008254437 0.009172292786548275 -0.005638676272347688 -0.011802708286055046 0.006418698008254437 -0.011802708286055046 -0.00705663117918015" pbc="T T T"
Si       4.54414552      10.48764319       1.23317720
Si       1.85199871       1.77722094       6.56024306
Si      -5.10658877      -4.09597306       6.75038976
Si       3.27595141       0.51754052       8.46576911
Si      -9.55816684       0.29061716       9.51110345
Si       8.49715092       6.55633976       1.56963003
Si       6.39100800      -0.00379791       1.91882244
Si       0.58808554       2.13048412       7.54899287
Si       1.78754632       0.36644353       9.25775115
Si      -0.39817150       2.00565867       4.87376173
Si       5.48179951       1.26360756       2.98799675
Si      -1.84352280       4.61745696       3.66652687
Si      -6.09338233      -2.59956717       4.55435471
Si       2.70460494      10.94257538       1.36611990
Si       9.66881301       4.60483754       3.26541626
Si       6.09620204       7.95158903      -2.71817898
Si      -0.65150776      -1.56382320       1.17614964
Si       5.68424855      -1.34880486       6.21652136
Si       4.60989584       3.74662844       2.75865196
Si       0.20108926       3.51107766       5.17798435
Si      -1.04231119       3.50668077       2.73835940
Si       0.67846360       0.60924049       6.85643392
22
Lattice="12.129847249149194 1.4876676562619808 -0.18129166724315549 -0.3607830233302786 11.636466130079214 -0.7744953119496795 -7.329075199178151 -4.888104650660167 8.554976848787197" Properties=species:S:1:pos:R:3 unique_starting_index=18 config_type=initial n_minim_iter=6 stress="-0.0031749708823452715 -0.005310288937417576 0.00602936239278417 -0.005310288937417576 -0.005793258915835191 -0.0034386088192051314 0.00602936239278417 -0.0034386088192051314 0.004820478122273554" pbc="T T T"
Si       4.51489429      10.47344010       1.24707745
Si       1.84614810       1.77875724       6.57854588
Si      -5.08435639      -4.07720707       6.76034945
Si       3.25755527       0.52091594       8.48786269
Si      -9.52621775       0.31502407       9.52787746
Si       8.46094615       6.53995110       1.58105953
Si       6.36751202      -0.00969463       1.92328603
Si       0.57946757       2.14004679       7.56901330
Si       1.78333215       0.37140229       9.27243925
Si      -0.39859273       2.00849539       4.88236564
Si       5.46201641       1.25648115       2.99414766
Si      -1.84256937       4.61648041       3.67757657
Si      -6.06963729      -2.58415696       4.56153687
Si       2.68312181      10.92743249       1.37987381
Si       9.63036818       4.59109953       3.27699604
Si       6.06268472       7.93263566      -2.71472231
Si      -0.64710186      -1.55957545       1.17616552
Si       5.66721752      -1.34881853       6.22695428
Si       4.58949417       3.73929893       2.76771057
Si       0.19751813       3.51280683       5.19302330
Si      -1.04185692       3.50522367       2.74731498
Si       0.67633965       0.61482751       6.87165216
22
Lattice="12.1241395640686 1.4950402199479367 -0.16647268854339137 -0.35644829615138446 11.652539497293798 -0.7737474758039419 -7.317268657600861 -4.8980018659133755 8.534855132087262" Properties=species:S:1:pos:R:3 unique_starting_index=18 config_type=initial n_minim_iter=7 stress="-0.01288089592748322 0.0016707871501956204 0.016095372879285752 0.0016707871501956204 0.011017876620183614 -0.0014273175879427674 0.016095372879285752 -0.0014273175879427674 -0.004550763540690137" pbc="T T T"
Si       4.51820027      10.49233231       1.25184680
Si       1.85509496       1.78264014       6.57790537
Si      -5.07584406      -4.08418184       6.74571961
Si       3.26283629       0.51989376       8.48304470
Si      -9.51008016       0.31809160       9.50202228
Si       8.46318698       6.55093493       1.59047853
Si       6.36499965      -0.00670264       1.92924044
Si       0.58735602       2.14580859       7.55958047
Si       1.79229755       0.37063442       9.26116316
Si      -0.39064816       2.01136394       4.87395742
Si       5.46416661       1.25834737       2.99548263
Si      -1.83403154       4.62204932       3.66879511
Si      -6.06290891      -2.59021039       4.54871200
Si       2.69002785      10.94254578       1.38096225
Si       9.63273420       4.60094037       3.28207834
Si       6.05900738       7.94615188      -2.70476651
Si      -0.64576134      -1.56138878       1.17266362
Si       5.67234008      -1.34915323       6.22447765
Si       4.59232466       3.74626458       2.76914437
Si       0.20529210       3.51786599       5.18820434
Si      -1.03682639       3.50712747       2.74158899
Si       0.68460248       0.61831610       6.86488783
22
Lattice="12.159646105425537 1.4746927651315436 -0.18363472896110788 -0.37165176447489606 11.61694639099707 -0.7822771623723949 -7.344860586624652 -4.8798876539530935 8.544609871997263" Properties=species:S:1:pos:R:3 unique_starting_index=18 config_type=initial n_minim_iter=8 stress="0.002133892784798091 -0.005913072580575631 0.004845140036053803 -0.005913072580575631 -0.0041840089748857836 -0.0027790418136034896 0.004845140036053803 -0.0027790418136034896 -0.006144500981254673" pbc="T T T"
Si       4.51602150      10.45616344       1.23829683
Si       1.85196185       1.77031535       6.58001614
Si      -5.09575581      -4.06876945       6.75340236
Si       3.25656235       0.50185356       8.47771141
Si      -9.55364890       0.33041735       9.50701434
Si       8.48125723       6.51456841       1.57525984
Si       6.37942815      -0.01623206       1.92127169
Si       0.57291543       2.13557228       7.55366117
Si       1.78226362       0.35867312       9.25373974
Si      -0.39880836       2.00281895       4.86890700
Si       5.47652149       1.24114767       2.98380026
Si      -1.84887476       4.60692944       3.66306726
Si      -6.08540088      -2.57757421       4.55752717
Si       2.68517259      10.90129368       1.36721159
Si       9.65354770       4.56999507       3.26057130
Si       6.06966460       7.91497417      -2.71985498
Si      -0.64680772      -1.55551710       1.17229694
Si       5.68499624      -1.35894260       6.21348259
Si       4.59817617       3.72576571       2.75798854
Si       0.19412097       3.50150826       5.18528894
Si      -1.04812231       3.49106165       2.73662622
Si       0.67653425       0.61422676       6.86283831
22
Lattice="12.153473738802562 1.4876498326755705 -0.21317332985617035 -0.353045486007904 11.583203047599671 -0.7821821144040161 -7.366800000285389 -4.874737992371497 8.59675681498603" Properties=species:S:1:pos:R:3 unique_starting_index=18 config_type=initial n_minim_iter=9 stress="-0.0032831071169691405 0.0015212550666669396 0.0025343411399946893 0.0015212550666669396 -0.0034548510860289857 -0.001096836170812242 0.0025343411399946893 -0.001096836170812242 -0.0024930226159566387" pbc="T T T"
Si       4.52307994      10.43984096       1.23750760
Si       1.83980337       1.77419267       6.61997352
Si      -5.11476411      -4.06060885       6.79445637
Si       3.22916873       0.49771858       8.51046790
Si      -9.57571447       0.32247062       9.56517190
Si       8.48655590       6.50252534       1.56597415
Si       6.36603426      -0.00648239       1.91613206
Si       0.55394624       2.13775444       7.58478826
Si       1.75740866       0.36820963       9.29009799
Si      -0.40534180       1.99328968       4.88861818
Si       5.46929378       1.23949780       2.97981607
Si      -1.84432579       4.59363186       3.67824596
Si      -6.09762198      -2.57757235       4.59192405
Si       2.70103405      10.86999422       1.36725324
Si       9.64795259       4.56615719       3.24451679
Si       6.08334921       7.89892238      -2.74921278
Si      -0.65030640      -1.54973637       1.17429163
Si       5.66766996      -1.34901766       6.22224719
Si       4.59429380       3.72113695       2.75768455
Si       0.18638035       3.49762206       5.21296758
Si      -1.04988298       3.47402398       2.74597417
Si       0.65802977       0.62095168       6.89310038
22
Lattice="12.189284269510916 1.4746463695084393 -0.24109352421359898 -0.36515990995360825 11.585543963052086 -0.7861727619268885 -7.403130013085839 -4.870467499805436 8.621148714554323" Properties=species:S:1:pos:R:3 unique_starting_index=18 config_type=initial n_minim_iter=10 stress="0.000534252532023153 0.00030476018054049873 -0.0001816132384230226 0.00030476018054049873 0.0036509326002344385 -6.290199586865417e-05 -0.0001816132384230226 -6.290199586865417e-05 -0.005879693766760656" pbc="T T T"
Si       4.52080126      10.44310575       1.22733693
Si       1.82875367       1.77974054       6.63706504
Si      -5.14117322      -4.05571482       6.81453334
Si       3.21527946       0.48336374       8.51578080
Si      -9.63126132       0.32713597       9.59022114
Si       8.50252730       6.49640122       1.55336012
Si       6.37723625      -0.01415019       1.90506008
Si       0.53291799       2.14368672       7.59227535
Si       1.74097382       0.36304366       9.29247723
Si      -0.41701549       1.99181700       4.89397650
Si       5.47943400       1.22625447       2.96594799
Si      -1.85421549       4.59173989       3.67239982
Si      -6.12628697      -2.57257391       4.61173930
Si       2.69982738      10.86295073       1.35657571
Si       9.66945479       4.55081682       3.21402389
Si       6.10267566       7.89035557      -2.77838179
Si      -0.65170101      -1.54712116       1.17150233
Si       5.67566130      -1.36082728       6.21021237
Si       4.59853016       3.71428797       2.74622596
Si       0.16716357       3.49966288       5.21874022
Si      -1.06632985       3.47208538       2.74748652
Si       0.63894151       0.62143539       6.89874102
22
Lattice="12.19675072735386 1.4857800982345721 -0.2601890946217976 -0.3484474666773208 11.547405839662524 -0.7689717593010627 -7.427287689129994 -4.850300743113802 8.664372639585338" Properties=species:S:1:pos:R:3 unique_starting_index=18 config_type=initial n_minim_iter=11 stress="-0.0005062266462787468 0.0024537135278866673 -1.4004974535878665e-05 0.0024537135278866673 -0.0009126398711449013 0.0031379010912563647 -1.4004974535878665e-05 0.0031379010912563647 0.0005075537263066164" pbc="T T T"
Si       4.53309999      10.42368681       1.24553340
Si       1.81153291       1.79796657       6.67987479
Si      -5.15935418      -4.03655604       6.84974867
Si       3.19991471       0.49678982       8.55655925
Si      -9.65055894       0.32532411       9.65317583
Si       8.51439388       6.49482892       1.56000981
Si       6.37452480      -0.00291011       1.90377361
Si       0.52162760       2.15478691       7.63391451
Si       1.71992494       0.37542425       9.33302261
Si      -0.41573588       1.99196469       4.91886974
Si       5.47861843       1.23065696       2.97065212
Si      -1.84899685       4.57782776       3.69227589
Si      -6.14253840      -2.56457447       4.64054238
Si       2.71728050      10.83002128       1.37599248
Si       9.67957344       4.55263222       3.21316703
Si       6.11880173       7.86669859      -2.79382273
Si      -0.65420912      -1.53863623       1.16894111
Si       5.66760466      -1.34080180       6.22256660
Si       4.60120033       3.71183854       2.75600099
Si       0.16116247       3.50158639       5.24729588
Si      -1.06400245       3.45903369       2.76707158
Si       0.62535176       0.64072946       6.93235773
22
Lattice="12.185233159824111 1.490313527109082 -0.2906127944823524 -0.3430749377589013 11.554163506509218 -0.7862847475105125 -7.44066180132947 -4.866735535565875 8.710322455266294" Properties=species:S:1:pos:R:3 unique_starting_index=18 config_type=initial n_minim_iter=12 stress="-0.001505159957725208 0.0004905547318297815 -0.000824120761951416 0.0004905547318297815 0.004326725588272389 0.002571819709291526 -0.000824120761951416 0.002571819709291526 0.0011891510018397905" pbc="T T T"
Si       4.52635843      10.43670817       1.22715085
Si       1.78477835       1.80936560       6.70356806
Si      -5.16752825      -4.04727560       6.89033371
Si       3.16945012       0.47893456       8.58476622
Si      -9.66206870       0.29957928       9.70950316
Si       8.51257694       6.50496232       1.53112619
Si       6.36105129      -0.00514377       1.89504737
Si       0.48947036       2.15611746       7.66556087
Si       1.68305985       0.35754725       9.35774749
Si      -0.41227932       1.98587675       4.92854000
Si       5.46590348       1.22273808       2.96242812
Si      -1.84492495       4.57241733       3.68655221
Si      -6.15231100      -2.57382716       4.67407500
Si       2.72035702      10.82527872       1.35663439
Si       9.67479934       4.54820649       3.17963240
Si       6.12232976       7.86947725      -2.83945139
Si      -0.65261950      -1.53611669       1.16240564
Si       5.64924387      -1.35196954       6.21975274
Si       4.59180417       3.70798747       2.74508630
Si       0.14449422       3.50285038       5.25261062
Si      -1.05868274       3.44249555       2.76845053
Si       0.60306052       0.64735202       6.95448483
22
Lattice="12.202167546519352 1.4796368398699524 -0.29594922354155306 -0.35503563223856266 11.565317892113072 -0.7962077784254543 -7.449893508598555 -4.871602439030141 8.707425068569638" Properties=species:S:1:pos:R:3 unique_starting_index=18 config_type=initial n_minim_iter=13 stress="0.003378694229996675 -0.0015948695064484878 0.0006260965454963356 -0.0015948695064484878 0.00243980192759614 -0.0005180036622331164 0.0006260965454963356 -0.0005180036622331164 -0.00543288894158677" pbc="T T T"
Si       4.52270914      10.44142396       1.21482268
Si       1.77689661       1.81445841       6.69958340
Si      -5.17027265      -4.05189158       6.89144208
Si       3.16297255       0.46056271       8.57770538
Si      -9.67746228       0.29660141       9.70588968
Si       8.51598308       6.50274065       1.51673450
Si       6.37084643      -0.01437834       1.89014288
Si       0.47715923       2.15475490       7.65696719
Si       1.68027714       0.34967535       9.34841152
Si      -0.40854983       1.98087626       4.91760461
Si       5.46987037       1.21507460       2.95717983
Si      -1.84807331       4.56920544       3.67141208
Si      -6.16282760      -2.57427306       4.67488837
Si       2.71257292      10.82648318       1.34365898
Si       9.68845711       4.53845092       3.16309511
Si       6.12541197       7.86932222      -2.84893016
Si      -0.64983790      -1.53537338       1.15471035
Si       5.65576083      -1.36525363       6.20822399
Si       4.59388030       3.70212383       2.73607299
Si       0.14004295       3.50443807       5.24585550
Si      -1.05872418       3.44018111       2.76047808
Si       0.59780199       0.64962546       6.95307866
22
Lattice="12.176101277380619 1.5030685813625004 -0.31861305300969767 -0.33086976991387057 11.56939883849012 -0.7926270251864272 -7.45708943764562 -4.8830340552352025 8.756733378419707" Properties=species:S:1:pos:R:3 unique_starting_index=18 config_type=initial n_minim_iter=14 stress="0.0006400242256923109 0.002140484222759607 -0.0007463245014150753 0.002140484222759607 0.00137920605931265 -0.000919084134850866 -0.0007463245014150753 -0.000919084134850866 0.0019511453958702576" pbc="T T T"
Si       4.53059934      10.45553534       1.21796369
Si       1.75557433       1.83756140       6.73560638
Si      -5.17333361      -4.05954855       6.93383483
Si       3.12993421       0.46019739       8.61218750
Si      -9.66694902       0.28134271       9.77076128
Si       8.49905617       6.52561137       1.50776152
Si       6.35406195      -0.00276168       1.88602808
Si       0.45590714       2.16872214       7.69529929
Si       1.65667100       0.36097500       9.38974292
Si      -0.40343537       1.98780116       4.93808109
Si       5.45015063       1.22797991       2.96363776
Si      -1.83411573       4.56370634       3.68656442
Si      -6.16415947      -2.58452272       4.70698979
Si       2.72190494      10.83161702       1.35077430
Si       9.67346723       4.55693331       3.15667706
Si       6.13530746       7.87537257      -2.87418809
Si      -0.64950060      -1.53342103       1.14859634
Si       5.62559160      -1.35248112       6.22052900
Si       4.58442315       3.71109853       2.74122590
Si       0.13655704       3.50885437       5.27556426
Si      -1.04485979       3.43578899       2.77274619
Si       0.58096705       0.66425131       6.99306784
22
Lattice="12.165756346219288 1.508630784950781 -0.315056509997885 -0.32614668533620006 11.576922024823974 -0.7799602672009265 -7.450888942861314 -4.87939912614976 8.76087247494577" Properties=species:S:1:pos:R:3 unique_starting_index=18 config_type=initial n_minim_iter=15 stress="0.0037703323638891466 0.0021584172740248216 -0.0003555729433991018 0.0021584172740248216 0.0027760000482625787 0.001861876982315522 -0.0003555729433991018 0.001861876982315522 0.0017188077650827787" pbc="T T T"
Si       4.53355084      10.46452015       1.23202907
Si       1.75066433       1.85749541       6.75902421
Si      -5.16400447      -4.05636246       6.94180078
Si       3.12173981       0.46275083       8.62029189
Si      -9.65652017       0.28587109       9.78154917
Si       8.48866874       6.53991286       1.51441599
Si       6.35140967       0.00131285       1.88923527
Si       0.45133254       2.18973018       7.71853904
Si       1.64943921       0.37724302       9.40790548
Si      -0.39326144       1.99956163       4.94145507
Si       5.44220919       1.23561776       2.97342518
Si      -1.82299557       4.56377293       3.69102945
Si      -6.16117298      -2.58345480       4.70982163
Si       2.71921525      10.83713865       1.36650213
Si       9.67576450       4.56469662       3.16182736
Si       6.13022006       7.87158646      -2.87332723
Si      -0.64517765      -1.53035009       1.13580353
Si       5.61704381      -1.34426848       6.22487280
Si       4.58140887       3.71583001       2.74991425
Si       0.14401687       3.51955994       5.28984113
Si      -1.03515240       3.43577840       2.77836059
Si       0.58070060       0.68064377       7.01159803
22
Lattice="12.109583335340334 1.5094847312796067 -0.33834413916642964 -0.32624850988384135 11.604175105668983 -0.8084661847665952 -7.429179219308219 -4.908905374368983 8.795665886368479" Properties=species:S:1:pos:R:3 unique_starting_index=18 config_type=initial n_minim_iter=16 stress="0.0017908735034784537 6.122919251821036e-05 -0.003632004001626933 6.122919251821036e-05 0.00602358815686345 -0.0026989206185013604 -0.003632004001626933 -0.0026989206185013604 0.004203657908120012" pbc="T T T"
Si       4.51166119      10.47943202       1.19968944
Si       1.73073193       1.85137494       6.77452410
Si      -5.14480459      -4.07957327       6.97362303
Si       3.08553531       0.43625982       8.61942855
Si      -9.62763449       0.26134028       9.80459561
Si       8.43958080       6.55717524       1.48744604
Si       6.32204870      -0.00419725       1.88228172
Si       0.42981362       2.18236882       7.73223043
Si       1.61952514       0.35475218       9.42242886
Si      -0.38804783       1.99326426       4.93993126
Si       5.40737328       1.23077552       2.96970407
Si      -1.81513728       4.56094067       3.68279772
Si      -6.14148125      -2.59875274       4.73195566
Si       2.69488577      10.85140907       1.33885549
Si       9.63079109       4.55852025       3.13324944
Si       6.10277446       7.88678001      -2.91212042
Si      -0.63880365      -1.53275965       1.12785414
Si       5.57620369      -1.36392844       6.22524130
Si       4.55350230       3.71273795       2.73765948
Si       0.13666294       3.51774549       5.29205126
Si      -1.02746406       3.43362430       2.76775245
Si       0.56473153       0.67996015       7.02797261
22
Lattice="12.104605430567748 1.5246766748645855 -0.30290122415169934 -0.3103768209405202 11.581448070516451 -0.7809822511052827 -7.410041321047272 -4.8903349418317905 8.768982450830128" Properties=species:S:1:pos:R:3 unique_starting_index=18 config_type=initial n_minim_iter=17 stress="0.008306539874355891 0.0019416640440298213 -0.0012905830516209856 0.0019416640440298213 0.0027159523002779156 0.001479939608061344 -0.0012905830516209856 0.001479939608061344 0.004716620530063561" pbc="T T T"
Si       4.53177314      10.46651354       1.23672769
Si       1.75464302       1.87371556       6.79911523
Si      -5.12593592      -4.06176257       6.95811661
Si       3.09974419       0.45667152       8.62841925
Si      -9.59656425       0.26478056       9.78386164
Si       8.44676528       6.57004624       1.52924712
Si       6.32631025       0.01196856       1.90164702
Si       0.44569708       2.20581033       7.74986364
Si       1.63632241       0.37886363       9.43967341
Si      -0.35920170       2.00116808       4.94321446
Si       5.40982753       1.24434124       2.99237838
Si      -1.79359431       4.55424732       3.68718569
Si      -6.13138227      -2.59216643       4.71185399
Si       2.70649940      10.83483439       1.37484381
Si       9.64469679       4.56821106       3.16538219
Si       6.10309015       7.87065993      -2.88358611
Si      -0.63341328      -1.52532473       1.10958879
Si       5.58237470      -1.33872964       6.23903159
Si       4.56203648       3.71652324       2.76124758
Si       0.15605150       3.52611767       5.30949185
Si      -1.00600073       3.43054301       2.76763314
Si       0.57839349       0.70816120       7.04141786
22
Lattice="12.068220200098745 1.5291093889968572 -0.3098074340781477 -0.30703897740497205 11.598381332752465 -0.7943301675447517 -7.392121707421481 -4.9080235207718115 8.782162141686936" Properties=species:S:1:pos:R:3 unique_starting_index=18 config_type=initial n_minim_iter=18 stress="0.007616590725777572 0.0017694160843901847 -0.0032486904353124157 0.0017694160843901847 0.005165924438016958 -0.000297202535110819 -0.0032486904353124157 -0.000297202535110819 0.006262879007135838" pbc="T T T"
Si       4.52130095      10.47667925       1.22258388
Si       1.74931272       1.87511395       6.80745432
Si      -5.11156966      -4.07354670       6.97104097
Si       3.08251015       0.44392796       8.62794226
Si      -9.57169885       0.24971772       9.79327530
Si       8.42329150       6.58309315       1.52372840
Si       6.30799217       0.01373005       1.90244724
Si       0.43856423       2.20894261       7.75156046
Si       1.62161341       0.37005678       9.44862696
Si      -0.34897098       1.99968132       4.94148707
Si       5.38925550       1.24263646       2.99266364
Si      -1.78923289       4.55139253       3.68037221
Si      -6.11582931      -2.60204701       4.71919819
Si       2.69441805      10.84471632       1.36308798
Si       9.61888354       4.57063346       3.15490156
Si       6.08437778       7.88088378      -2.89846377
Si      -0.62879940      -1.52663755       1.10163114
Si       5.55910778      -1.34820113       6.24164196