22
Lattice="8.119767558496353 -0.08261234420969431 -0.5871021904213847 -2.08982557249103 9.96294840689154 -0.8505305035413694 -4.4091107011856785 -3.249085825051399 9.572948752332685" Properties=species:S:1:pos:R:3 unique_starting_index=18 config_type=initial n_minim_iter=1 energy=-3607.4888005414523 free_energy=-3607.4888005414523 pbc="T T T"
Si       2.03498520       8.75005047       1.36313148
Si       0.78790482       1.17704819       6.55684706
Si      -3.18763272      -2.55856556       8.31199017
Si       1.66587640      -0.56078585       7.77496140
Si      -5.57712389       0.92769745       8.94991157
Si       6.01173187       3.53879111       0.25649348
Si       4.30847879      -0.00513174       0.77166099
Si      -0.05293160       1.55764361       8.14181799
Si       0.57900482      -1.49464404       8.98778273
Si      -2.04378520       2.46424112       6.48961519
Si       3.82363829       0.95555809       3.06704547
Si      -2.03564367       5.08505764       4.83785593
Si      -3.54138007      -1.25034712       4.97527621
Si       0.68909804       8.03754702       0.25629102
Si       4.68745035       3.23663213       3.86680118
Si       2.13953438       6.44266246      -1.40305208
Si      -0.07198031      -0.72565651       2.87004742
Si       4.68811079      -2.54806541       5.86027745
Si       2.14408315       3.32723385       3.42299587
Si      -1.05125271       3.90704158       7.02788081
Si      -0.56030531       4.18024825       3.57531506
Si      -0.22096849      -0.20344732       7.47504861
22
Lattice="8.077107609420143 -0.07183595092104884 -0.5768976922469222 -2.0636469530991617 9.907374893973508 -0.800593546664536 -4.380541593969521 -3.1919912124337966 9.532907410984084" Properties=species:S:1:pos:R:3 unique_starting_index=18 config_type=initial n_minim_iter=2 stress="-0.011822401964246018 0.007416211517139155 -0.0077781574038456 0.007416211517139155 -0.010221879980954156 -0.007511548673292616 -0.0077781574038456 -0.007511548673292616 -0.01391727368983945" pbc="T T T"
Si       2.04060037       8.71853306       1.40718588
Si       0.79382366       1.20521719       6.55137563
Si      -3.16610674      -2.50969437       8.27918790
Si       1.66370005      -0.51698175       7.75909434
Si      -5.53648927       0.96075676       8.93178620
Si       5.98654616       3.53394397       0.28196065
Si       4.28691958       0.00556990       0.77573902
Si      -0.03954347       1.59140439       8.13312097
Si       0.58503356      -1.43910808       8.96387498
Si      -2.02111017       2.48309385       6.48722463
Si       3.80891652       0.97303345       3.07100799
Si      -2.01153371       5.08203204       4.85233777
Si      -3.51942051      -1.22489675       4.95583831
Si       0.69910974       8.00116663       0.29677598
Si       4.67369824       3.24797775       3.88122502
Si       2.13702905       6.40767907      -1.36460545
Si      -0.06927185      -0.70795361       2.86057750
Si       4.66675996      -2.49794883       5.84158137
Si       2.14266675       3.33186125       3.43538748
Si      -1.03159366       3.92222937       7.03361958
Si      -0.54620122       4.17691276       3.58854071
Si      -0.21116000      -0.16428726       7.45827628
22
Lattice="8.083402512255972 -0.09795962135046399 -0.5331642717659961 -2.095749557246642 9.910794722492156 -0.7159874341129491 -4.3208642899269405 -3.0850940451304547 9.532828881045168" Properties=species:S:1:pos:R:3 unique_starting_index=18 config_type=initial n_minim_iter=3 stress="0.00527078628761504 -0.003050170594626647 0.0064827905254569 -0.003050170594626647 0.0009884838845037674 0.00806388902488041 0.0064827905254569 0.00806388902488041 -0.0005037529845672027" pbc="T T T"
Si       2.02969374       8.73387022       1.51734379
Si       0.83275611       1.26831989       6.60872888
Si      -3.11587279      -2.42031714       8.28529251
Si       1.70828655      -0.44631849       7.81084453
Si      -5.49130237       1.07090458       8.96645486
Si       5.98587635       3.52634140       0.36017585
Si       4.29564896       0.00179981       0.80763577
Si       0.00881808       1.67487040       8.19697472
Si       0.64577671      -1.34279173       9.00860487
Si      -1.99041972       2.56073168       6.53952145
Si       3.82874511       0.99601013       3.12424105
Si      -1.99921887       5.14061233       4.92310381
Si      -3.49125286      -1.16564011       4.95460532
Si       0.68162597       8.00684849       0.38223201
Si       4.69609382       3.27653318       3.96548693
Si       2.11191434       6.39165269      -1.29231974
Si      -0.04978922      -0.67993485       2.86976599
Si       4.71407306      -2.45046061       5.88007104
Si       2.15793402       3.36272561       3.50148915
Si      -1.00233580       4.00106148       7.11204611
Si      -0.53573096       4.21589271       3.64809060
Si      -0.16578866      -0.08653618       7.49799685
22
Lattice="8.004370980882419 -0.08267648150382882 -0.579574875075364 -2.052188313854534 9.911607848890142 -0.7215416396931782 -4.32580891644677 -3.095568932649706 9.713717196766698" Properties=species:S:1:pos:R:3 unique_starting_index=18 config_type=initial n_minim_iter=4 stress="-0.014681744454271674 0.007266166320023078 -0.006753772763703811 0.007266166320023078 0.003128488720402122 0.0019479504604341283 -0.006753772763703811 0.0019479504604341283 0.02741081461826399" pbc="T T T"
Si       2.01667994       8.73598557       1.53103418
Si       0.81039384       1.25623576       6.71316714
Si      -3.13577817      -2.44082543       8.43489267
Si       1.63627704      -0.45833795       7.93229513
Si      -5.47086304       1.07916362       9.15104905
Si       5.92483518       3.54568719       0.35514648
Si       4.24350324       0.00376568       0.80693449
Si      -0.00582188       1.66582882       8.32013332
Si       0.60912642      -1.30594415       9.16616074
Si      -1.98689227       2.58555213       6.66026994
Si       3.77502819       1.00542148       3.16792809
Si      -2.00014901       5.14202507       5.01916382
Si      -3.48312140      -1.16947049       5.05954084
Si       0.69375409       8.00903249       0.37088216
Si       4.64922610       3.27714165       4.00577645
Si       2.09084501       6.38844027      -1.31776961
Si      -0.06101448      -0.68754977       2.91321540
Si       4.64062530      -2.44142489       5.96532528
Si       2.12990103       3.36092122       3.53604756
Si      -1.02471985       4.00930948       7.23526990
Si      -0.53606749       4.20387759       3.69669912
Si      -0.19538489      -0.08619293       7.61139339
22
Lattice="8.037786603281562 -0.11904357281523371 -0.5560385489118795 -2.1093987841808253 9.890907486290045 -0.739683243756615 -4.310264875275054 -3.0879299615352003 9.593540948098326" Properties=species:S:1:pos:R:3 unique_starting_index=18 config_type=initial n_minim_iter=5 stress="-0.011786085593426199 -0.009833475588017105 0.004199200951470222 -0.009833475588017105 -0.004893375795640444 -0.00341920675269669 0.004199200951470222 -0.00341920675269669 -0.001895016883229721" pbc="T T T"
Si       1.98372294       8.68824826       1.49730252
Si       0.83437332       1.21888947       6.62895123
Si      -3.13125528      -2.45173864       8.32455134
Si       1.64832873      -0.49496836       7.84004272
Si      -5.47838998       1.09479786       9.03610566
Si       5.93040953       3.51289863       0.36873020
Si       4.25748785      -0.02526932       0.81183265
Si       0.01566029       1.63451892       8.19937776
Si       0.64778748      -1.29000181       9.07087499
Si      -1.98720488       2.60037510       6.57342370
Si       3.78928691       0.97858342       3.14448994
Si      -2.03285093       5.12660859       4.94990271
Si      -3.48529152      -1.15783702       4.99863519
Si       0.66525190       7.97589036       0.33706705
Si       4.67388064       3.22529781       3.95568051
Si       2.05096037       6.34956793      -1.30863076
Si      -0.04966706      -0.69947486       2.87368286
Si       4.68891523      -2.46715564       5.91634520
Si       2.13277921       3.32413078       3.47659102
Si      -1.04273807       3.99340451       7.13821320
Si      -0.54892129       4.17028724       3.62720029
Si      -0.18176796      -0.10042727       7.50329263
22
Lattice="8.163770872718612 -0.04316780253864065 -0.5830098055240707 -2.041805800170239 9.886440607499472 -0.6824406962711717 -4.445111991639338 -3.094639307043456 9.535334678308248" Properties=species:S:1:pos:R:3 unique_starting_index=18 config_type=initial n_minim_iter=6 stress="0.014236797234957698 0.010085397765794693 -0.0050681073471847546 0.010085397765794693 0.008134026074025583 0.006178212460107677 -0.0050681073471847546 0.006178212460107677 -0.0042619098884443185" pbc="T T T"
Si       2.09122158       8.72395548       1.52322573
Si       0.85137133       1.24381941       6.58524074
Si      -3.24820659      -2.46697630       8.26786613
Si       1.63432711      -0.45094492       7.78137857
Si      -5.58766263       1.09244852       9.01533325
Si       6.05403719       3.59062717       0.37215703
Si       4.31386030       0.01329654       0.79636554
Si       0.00011855       1.67781409       8.14311203
Si       0.61902268      -1.21250290       9.02476435
Si      -2.01051246       2.64113881       6.55375975
Si       3.84184582       1.03231548       3.12539919
Si      -2.04401583       5.14222299       4.95878533
Si      -3.57372683      -1.16933738       4.98082107
Si       0.75894117       7.99560978       0.35444059
Si       4.77659024       3.28356220       3.92367387
Si       2.13980748       6.36222550      -1.27664766
Si      -0.06567286      -0.69772078       2.84661318
Si       4.71956138      -2.39742138       5.85696453
Si       2.18862116       3.35824674       3.44773505
Si      -1.05369085       4.03225631       7.12255161
Si      -0.52901011       4.17331314       3.60959969
Si      -0.22014754      -0.06948802       7.43814174
22
Lattice="8.160467752212078 -0.08807247780739634 -0.5159987942176408 -2.1089756883231905 9.712608748968842 -0.739616934977147 -4.337749045217891 -3.031252414315799 9.645314994588452" Properties=species:S:1:pos:R:3 unique_starting_index=18 config_type=initial n_minim_iter=7 stress="0.024052596484625967 -0.00011565119402495418 0.012232903708332797 -0.00011565119402495418 0.008546150158396297 0.002106440429582753 0.012232903708332797 0.002106440429582753 0.035167983184242066" pbc="T T T"
Si       2.03547683       8.50827055       1.55731273
Si       0.99096760       1.14133172       6.66269850
Si      -3.19919421      -2.48100241       8.36421434
Si       1.72639432      -0.45664659       7.91294818
Si      -5.53995324       1.09091816       9.13467005
Si       6.04605946       3.54658430       0.46751988
Si       4.29587217      -0.03530694       0.86512878
Si       0.03474820       1.65898888       8.23312874
Si       0.73677696      -1.08262951       9.25942134
Si      -1.94010041       2.68320745       6.61907658
Si       3.84912186       0.98624152       3.24602504
Si      -2.07499522       5.05749671       5.03097115
Si      -3.53443153      -1.12341178       5.04896025
Si       0.74404127       7.82404607       0.28784310
Si       4.85088310       3.14787844       3.99599323
Si       2.07023881       6.17718630      -1.28828719
Si      -0.02286162      -0.72733430       2.86602513
Si       4.80962922      -2.38009450       6.00930714
Si       2.21485579       3.23950459       3.45052927
Si      -1.03897340       3.99130573       7.25435149
Si      -0.52067759       4.02872317       3.57871484
Si      -0.17267804      -0.08275906       7.46863836
22
Lattice="8.1292222655067 -0.17031292024628147 -0.5376534985428199 -2.1949531174063357 9.730021522451286 -0.678151601713726 -4.313746144412162 -2.9363310822368325 9.627234003785532" Properties=species:S:1:pos:R:3 unique_starting_index=18 config_type=initial n_minim_iter=8 stress="0.021620248301154225 -0.034259473907775465 0.00643709401887809 -0.034259473907775465 0.009750182732652215 -0.009234453446129701 0.00643709401887809 -0.009234453446129701 0.04381342426709944" pbc="T T T"
Si       1.92295999       8.46819094       1.61616771
Si       1.03781958       1.11747600       6.63922583
Si      -3.21972327      -2.45856226       8.34892385
Si       1.71667317      -0.41182907       7.89509008
Si      -5.58500665       1.19777580       9.17455702
Si       5.97882004       3.53461345       0.49483588
Si       4.25344414      -0.08921306       0.86669480
Si      -0.01156682       1.71731581       8.22007167
Si       0.74911392      -0.90733352       9.32726291
Si      -1.95813198       2.81293471       6.61353164
Si       3.80198446       0.96509168       3.27197360
Si      -2.16799609       5.11471919       5.08365231
Si      -3.53422730      -1.04833221       5.06573715
Si       0.68928996       7.80567288       0.28184172
Si       4.83934980       3.08940289       3.97380816
Si       1.98813754       6.10852408      -1.25061739
Si      -0.01165946      -0.74360851       2.83755989
Si       4.81456141      -2.38360835       5.98296379
Si       2.17627719       3.20677496       3.40727986
Si      -1.11527782       4.08733819       7.31428659
Si      -0.57030809       4.00130975       3.53957835
Si      -0.20636732      -0.04412971       7.39145623
22
Lattice="8.108266101867097 -0.12968254178232888 -0.45740132511471543 -2.1500060123280784 9.750768260516312 -0.7072607770336797 -4.229188039543988 -2.9788242513237253 9.561600140180264" Properties=species:S:1:pos:R:3 unique_starting_index=18 config_type=initial n_minim_iter=9 stress="0.022764595952823295 -0.020718518483994402 0.022326540997601414 -0.020718518483994402 0.024940862808452945 -0.009685388287705748 0.022326540997601414 -0.009685388287705748 0.04957227329813278" pbc="T T T"
Si       1.96704204       8.48584967       1.63148527
Si       1.14578264       1.08963667       6.62695409
Si      -3.16598303      -2.52069070       8.29922565
Si       1.78896340      -0.39800587       7.88742300
Si      -5.50053155       1.16180285       9.10650324
Si       5.98751686       3.59744773       0.56095656
Si       4.24236124      -0.07608647       0.91099325
Si       0.07356631       1.71318896       8.19066677
Si       0.84378465      -0.84888170       9.34875439
Si      -1.87375052       2.83603149       6.56129540
Si       3.82393754       0.98176475       3.31542536
Si      -2.11020176       5.11839291       5.05445961
Si      -3.49199103      -1.06755042       5.02703816
Si       0.74244676       7.82646840       0.25734511
Si       4.90636869       3.10276312       3.99346092
Si       1.99526983       6.11916171      -1.23262310
Si       0.01649745      -0.76512661       2.82057701
Si       4.85787746      -2.37063539       6.01899711
Si       2.22454083       3.20850121       3.39089674
Si      -1.03228326       4.11350650       7.30458224
Si      -0.51968235       3.98073115       3.49065733
Si      -0.14182377      -0.05555586       7.33975369
22
Lattice="8.192050872641902 -0.1472220323745404 -0.48586510512534026 -2.1872417227332455 9.654263592302202 -0.6540188588949291 -4.303073879538814 -2.8983654638851575 9.524687640923146" Properties=species:S:1:pos:R:3 unique_starting_index=18 config_type=initial n_minim_iter=10 stress="0.022992035926275738 -0.028045047364290046 0.008135771876907578 -0.028045047364290046 -0.008419644541444577 -0.0030852041774135893 0.008135771876907578 -0.0030852041774135893 0.03726552895499292" pbc="T T T"
Si       1.95341122       8.38422320       1.66499610
Si       1.18090417       1.06851036       6.60771741
Si      -3.24442234      -2.48330333       8.27333889
Si       1.77606757      -0.33428383       7.83525304
Si      -5.61151722       1.19524640       9.10050505
Si       6.03722651       3.57873866       0.57294633
Si       4.27168658      -0.08171538       0.89531586
Si       0.03796573       1.72650127       8.16154398
Si       0.82366647      -0.72837620       9.33389304
Si      -1.91258118       2.87144980       6.54177406
Si       3.84186757       0.97459139       3.30680230
Si      -2.18106530       5.09678536       5.07140329
Si      -3.55442039      -1.01765493       5.02262995
Si       0.74890495       7.74122625       0.26900222
Si       4.95837138       3.06589318       3.95453973
Si       2.00070403       6.03255469      -1.20743540
Si       0.01194231      -0.76148686       2.79651238
Si       4.89526819      -2.32765597       5.96633604
Si       2.23176994       3.17063781       3.35983076
Si      -1.08747628       4.12511230       7.32248047
Si      -0.55279416       3.93196227       3.46439068
Si      -0.16903399      -0.02249580       7.28880066
22
Lattice="8.12462801723521 -0.16429220765430028 -0.5023226339558018 -2.182568074455817 9.867240550805253 -0.5935114202170275 -4.28921277318792 -2.9205924965416425 9.387053971521814" Properties=species:S:1:pos:R:3 unique_starting_index=18 config_type=initial n_minim_iter=11 stress="0.008437807915420275 -0.026290578066975562 0.0034967212590993665 -0.026290578066975562 0.012781163855266486 0.016775988705828505 0.0034967212590993665 0.016775988705828505 0.0077018813513750955" pbc="T T T"
Si       1.91026691       8.55992944       1.68132086
Si       1.18253004       1.09258388       6.52444246
Si      -3.24739824      -2.52232600       8.16150353
Si       1.73490174      -0.29604252       7.70909231
Si      -5.60098139       1.25613675       8.99236326
Si       5.97856023       3.67519478       0.57704163
Si       4.22909768      -0.08261513       0.87262298
Si       0.00705854       1.79457829       8.05600785
Si       0.78890069      -0.67311183       9.20208095
Si      -1.90666039       2.97554875       6.46202449
Si       3.79668142       0.99674939       3.25880402
Si      -2.19578730       5.23185447       5.02839675
Si      -3.54526184      -1.00786939       4.95873247
Si       0.73749377       7.90867531       0.29380448
Si       4.91165256       3.13431037       3.88260113
Si       1.97863320       6.15275540      -1.17154142
Si       0.00679752      -0.77618759       2.74983341
Si       4.84403639      -2.36367382       5.85583010
Si       2.19738936       3.24003131       3.31230696
Si      -1.11221568       4.24429374       7.25588481
Si      -0.57165683       4.01886347       3.41816198
Si      -0.17984679       0.00578415       7.17875347
22
Lattice="8.183917769512474 -0.05890393181142405 -0.41898522746987743 -2.0892612910435138 9.91394329624443 -0.7662590953465783 -4.279191948606591 -3.1545601054254235 9.228208186962176" Properties=species:S:1:pos:R:3 unique_starting_index=18 config_type=initial n_minim_iter=12 stress="-0.014742610152517025 -0.007687985568540267 0.003914874959733503 -0.007687985568540267 -0.036609963145719696 -0.0014924849396539006 0.003914874959733503 -0.0014924849396539006 -0.02268914567447826" pbc="T T T"
Si       2.02588578       8.59051786       1.53656025
Si       1.32034482       0.97980204       6.43329824
Si      -3.25635425      -2.76210950       8.06461255
Si       1.78668838      -0.38210605       7.57928489
Si      -5.55442726       1.01418866       8.75163507
Si       6.04330587       3.81424283       0.54875879
Si       4.26557788      -0.02687604       0.90564320
Si       0.10107006       1.65848004       7.90871626
Si       0.85950120      -0.74910954       9.05908027
Si      -1.79360257       2.86326186       6.24823949
Si       3.86635267       0.96470052       3.21387155
Si      -2.12380703       5.14194886       4.80898462
Si      -3.56858787      -1.12397126       4.86182480
Si       0.84444654       7.96145786       0.16330820
Si       5.03705579       3.14674235       3.75045186
Si       2.07208022       6.25004064      -1.24191462
Si       0.02033119      -0.84496907       2.71418209
Si       4.90691122      -2.41868112       5.81534152
Si       2.27068372       3.21111093       3.22916128
Si      -1.01351002       4.08403816       7.07778498
Si      -0.53141090       3.96856422       3.26214165
Si      -0.08316003      -0.10912607       7.04934331
22
Lattice="8.195903811003536 -0.04595771020253339 -0.44323336034940986 -2.077260579909565 9.96338428352199 -0.8193998092193578 -4.322471335504035 -3.238668246375241 9.198515079086127" Properties=species:S:1:pos:R:3 unique_starting_index=18 config_type=initial n_minim_iter=13 stress="-0.01992795346192571 0.005710284467912268 -0.0018930350273792 0.005710284467912268 -0.03486259100458994 0.0067930285328188875 -0.0018930350273792 0.0067930285328188875 -0.02691354779435157" pbc="T T T"
Si       2.02587281       8.61998375       1.45992133
Si       1.31475043       0.94637909       6.40055168
Si      -3.29823622      -2.84750258       8.04899164
Si       1.75447650      -0.43292300       7.51674302
Si      -5.58566331       0.93529605       8.69188464
Si       6.03931784       3.85960328       0.49347339
Si       4.26721837      -0.01928045       0.89443572
Si       0.07172939       1.60355927       7.83861941
Si       0.81815070      -0.79193494       8.99513951
Si      -1.80524870       2.80214761       6.16685464
Si       3.86080650       0.93695633       3.16428599
Si      -2.14117115       5.12242995       4.73254009
Si      -3.60353092      -1.15981603       4.85181912
Si       0.85402656       8.00531331       0.11438298
Si       5.03832146       3.15142972       3.66285499
Si       2.09079862       6.30080237      -1.28420241
Si       0.00634608      -0.87176465       2.70479455
Si       4.88785216      -2.46167030       5.77017673
Si       2.25824298       3.19929883       3.19209048
Si      -1.01680932       4.04342401       7.02756633
Si      -0.55477391       3.96756151       3.21164700
Si      -0.08545851      -0.14530672       7.01109529
22
Lattice="8.162099471361886 0.020282545327672194 -0.4259152678943677 -1.9969543431320305 10.165185269975899 -0.9564579459309746 -4.3115654727338315 -3.4682738531132684 9.21198686702089" Properties=species:S:1:pos:R:3 unique_starting_index=18 config_type=initial n_minim_iter=14 stress="-0.02566527848814508 0.009988171290029484 -0.005816594795631867 0.009988171290029484 -0.024531075905855817 -0.006050450593244644 -0.005816594795631867 -0.006050450593244644 0.005225079835396225" pbc="T T T"
Si       2.07892370       8.80245114       1.34366935
Si       1.35561234       0.91483567       6.44249325
Si      -3.30122604      -3.06690621       8.07032546
Si       1.76078361      -0.55784522       7.48004885
Si      -5.53331707       0.75305514       8.61988847
Si       6.01643114       4.02289499       0.45896327
Si       4.24517729       0.00740027       0.93583733
Si       0.10154436       1.50762465       7.75290691
Si       0.81867829      -0.86794696       9.00282822
Si      -1.71518466       2.72651172       6.09504123
Si       3.85188220       0.90232215       3.13225764
Si      -2.08919019       5.12461466       4.61089182
Si      -3.61147067      -1.26582861       4.86911878
Si       0.89385943       8.19325072       0.01140803
Si       5.06291587       3.22481720       3.56498460
Si       2.13089496       6.47630298      -1.37766549
Si      -0.00358336      -0.93301691       2.72460342
Si       4.85288577      -2.55029553       5.80250327
Si       2.26388561       3.21320503       3.17768567
Si      -0.94527362       3.97116958       6.97212552
Si      -0.54881186       4.00755070       3.14562469
Si      -0.03314816      -0.22061900       7.01315241
22
Lattice="8.168233924115958 0.13285211373922165 -0.4234758605328945 -1.8707325428135648 10.458543148646344 -1.1369603866262064 -4.372625032844819 -3.8201912084171727 9.046302986875336" Properties=species:S:1:pos:R:3 unique_starting_index=18 config_type=initial n_minim_iter=15 stress="-0.010689129670394142 0.02027426940868943 -0.020158882942594072 0.02027426940868943 -0.009498173259215568 0.0015215528076581491 -0.020158882942594072 0.0015215528076581491 -0.024208238086257654" pbc="T T T"
Si       2.18093551       9.08448958       1.11457374
Si       1.40173995       0.87275589       6.32149022
Si      -3.36772922      -3.38903602       7.91949955
Si       1.75307091      -0.78197108       7.25257939
Si      -5.50076734       0.45311729       8.36739025
Si       6.03561677       4.31348011       0.39228269
Si       4.22514320       0.02871599       0.98225608
Si       0.14049695       1.38568020       7.54878694
Si       0.78240095      -0.97748531       8.77268364
Si      -1.63088820       2.61406241       5.82741390
Si       3.83022283       0.86144025       3.00213798
Si      -2.04064312       5.09503232       4.31577842
Si      -3.67838080      -1.44023501       4.82392432
Si       0.96089615       8.49406098      -0.15382034
Si       5.14246951       3.36170686       3.30426091
Si       2.19026378       6.71879915      -1.50394308
Si      -0.04519495      -1.03393833       2.69912542
Si       4.79593323      -2.65939812       5.71826516
Si       2.28943317       3.20338077       3.07173912
Si      -0.85626183       3.86767196       6.70913781
Si      -0.55649071       4.06624051       2.97557714
Si      -0.00575956      -0.35063693       6.85265683
22
Lattice="8.12465493800813 0.23390754868269356 -0.3836017966303542 -1.7538130387238944 10.859681859545692 -1.3886172053680046 -4.358204544502664 -4.25498454057175 8.888734415786814" Properties=species:S:1:pos:R:3 unique_starting_index=18 config_type=initial n_minim_iter=16 stress="0.001517581254333369 0.029666935913619154 -0.04908769267857719 0.029666935913619154 0.019898479889495644 0.018323081916071047 -0.04908769267857719 0.018323081916071047 -0.03843894419642345" pbc="T T T"
Si       2.26303569       9.43422807       0.85380485
Si       1.52767462       0.74057765       6.23971591
Si      -3.39009902      -3.80805425       7.77647743
Si       1.75315325      -1.04202753       7.03936177
Si      -5.40065752       0.10921119       8.08690382
Si       6.00788987       4.63136367       0.34443476
Si       4.17186514       0.00542796       1.05393988
Si       0.18422423       1.26254684       7.31838235
Si       0.82797916      -1.07378512       8.57499453
Si      -1.49736876       2.50621082       5.52727314
Si       3.78723632       0.81893417       2.91321400
Si      -1.97534895       5.06406057       3.96937558
Si      -3.71299892      -1.65114954       4.78751159
Si       1.00072542       8.88316108      -0.38078744
Si       5.23708418       3.50701810       3.03732598
Si       2.21275276       7.02258630      -1.67235836
Si      -0.07547250      -1.17840064       2.67620918
Si       4.74856645      -2.81772429       5.67996246
Si       2.31735708       3.16375529       2.95446178
Si      -0.73533847       3.76195389       6.43984805
Si      -0.55747419       4.12845142       2.78869845
Si       0.05703998      -0.49616515       6.66405132
22
Lattice="8.076440313952698 0.3065920540965692 -0.32235794483896035 -1.670512337640852 11.166022969185242 -1.5959875687601288 -4.299258381031793 -4.586879752884729 8.792223302756469" Properties=species:S:1:pos:R:3 unique_starting_index=18 config_type=initial n_minim_iter=17 stress="-0.0008364116434647209 0.03405426173897912 -0.04889060996802398 0.03405426173897912 0.03547966099590176 0.011763537544942087 -0.04889060996802398 0.011763537544942087 -0.05812057326979101" pbc="T T T"
Si       2.32730818       9.70646422       0.66971003
Si       1.63961971       0.63091436       6.20654369
Si      -3.36278858      -4.11867698       7.68271582
Si       1.78672400      -1.22882992       6.91563636
Si      -5.27950510      -0.15569010       7.89643421
Si       5.97105223       4.85011286       0.31731612
Si       4.13131419      -0.01446200       1.13654391
Si       0.25338077       1.16965942       7.17504230
Si       0.89705807      -1.16399776       8.45594751
Si      -1.37127436       2.41140487       5.32418872
Si       3.76355934       0.78306838       2.86212434
Si      -1.90267241       5.02261122       3.70869087
Si      -3.70866727      -1.82070780       4.76514475
Si       1.01662504       9.18471643      -0.55156207
Si       5.31968533       3.63541743       2.87865981
Si       2.21813092       7.26478631      -1.80457278
Si      -0.08862480      -1.28943981       2.66906761
Si       4.72984994      -2.93912110       5.69546276
Si       2.34677923       3.12621014       2.89236194
Si      -0.61483736       3.67403532       6.25354203
Si      -0.53935898       4.17549657       2.68118252
Si       0.13196763      -0.60100051       6.55328902
22
Lattice="8.037190962248086 0.30423744848143297 -0.28077472302240297 -1.669748237620559 11.281472328741962 -1.6411771697365614 -4.226884476637107 -4.651045376511187 8.816377615331916" Properties=species:S:1:pos:R:3 unique_starting_index=18 config_type=initial n_minim_iter=18 stress="0.011461326301114537 0.00942090110391684 -0.022392458329044154 0.00942090110391684 0.02015195575420196 0.004878093582477588 -0.022392458329044154 0.004878093582477588 -0.022705794514730464" pbc="T T T"
Si       2.32139952       9.80724475       0.67137293
Si       1.69389497       0.59891795       6.27553429
Si      -3.31690907      -4.17394735       7.67618782
Si       1.82094351      -1.25087197       6.93706714
Si      -5.17856661      -0.21319223       7.91663669
Si       5.92389894       4.87039827       0.35655490
Si       4.10643097      -0.04526617       1.19004939
Si       0.29254749       1.19380495       7.19824785
Si       0.96187732      -1.12480092       8.48632080
Si      -1.30207415       2.40390074       5.30329989
Si       3.73728542       0.78573143       2.89981477
Si      -1.87881836       5.02153729       3.64735179
Si      -3.68356289      -1.85567920       4.80022388
Si       0.97788154       9.31590152      -0.57495589
Si       5.37271370       3.70653748       2.87194776
Si       2.18924577       7.34190241      -1.85763613
Si      -0.09295246      -1.32390885       2.68822092
Si       4.73495215      -2.95580754       5.77848205
Si       2.34828218       3.09210932       2.93064799
Si      -0.55003618       3.67644421       6.25400582