22
Lattice="12.83583482878775 1.0680337426732058 -1.6033705070414546 -0.6584009957718734 9.603153761349638 -2.250425749536897 -8.590729084095514 -4.857516163211912 10.097751427475476" Properties=species:S:1:pos:R:3 unique_starting_index=18 config_type=initial n_minim_iter=1 energy=-3752.9475873011434 free_energy=-3752.9475873011434 pbc="T T T"
Si       4.25813656       7.78723515      -0.24822439
Si       0.61467495       0.26367369       6.48880980
Si      -5.87935971      -2.78886080       8.39089002
Si       2.30343688      -0.98229930       8.15540013
Si     -11.21001940      -0.79937466      10.65400291
Si       8.70400056       4.95744425      -0.37154123
Si       5.66117519      -0.12321764       1.81122204
Si      -0.03574782       1.51271419       7.35963151
Si       0.77731194      -1.14585473       8.84259893
Si      -1.16296655       0.65458095       4.46101109
Si       4.61524595       0.94272228       2.90235677
Si      -2.17636545       3.41315312       3.12024796
Si      -7.16911777      -2.07637663       5.96713268
Si       2.54394366       8.46975501      -0.18819797
Si       9.80893637       3.06934491       1.31200742
Si       6.78556799       6.75728949      -4.75833823
Si       1.15291771      -2.08397899       0.54976114
Si       5.29702320      -2.01002911       5.94658964
Si       4.60983508       3.67983846       2.60901255
Si      -0.30544252       2.06117534       4.66066525
Si      -1.52773289       2.17500629       2.23213069
Si      -0.89166498       0.10387840       7.15887349
22
Lattice="12.835690071587543 1.0680290485481352 -1.6037919999236452 -0.6583827511012755 9.603388718520296 -2.250746100041246 -8.590881250691954 -4.857908329575212 10.09813669492591" Properties=species:S:1:pos:R:3 unique_starting_index=18 config_type=initial n_minim_iter=2 stress="-6.910938315920627e-05 1.2251778229735813e-05 -4.325000953542597e-05 1.2251778229735813e-05 6.557707428843112e-05 -6.02820515398771e-05 -4.325000953542597e-05 -6.02820515398771e-05 -2.7863428896362853e-05" pbc="T T T"
Si       4.25802190       7.78732293      -0.24860939
Si       0.61444671       0.26341669       6.48875324
Si      -5.87950695      -2.78914609       8.39111827
Si       2.30316032      -0.98262514       8.15527285
Si     -11.21019190      -0.79969552      10.65437432
Si       8.70381411       4.95750637      -0.37205724
Si       5.66105494      -0.12329361       1.81103806
Si      -0.03599118       1.51244683       7.35952924
Si       0.77704358      -1.14622981       8.84259548
Si      -1.16312125       0.65443701       4.46097271
Si       4.61511039       0.94264540       2.90220918
Si      -2.17645369       3.41315143       3.12016451
Si      -7.16920079      -2.07657514       5.96740854
Si       2.54387270       8.46984412      -0.18858974
Si       9.80877366       3.06928304       1.31158093
Si       6.78559763       6.75747588      -4.75872849
Si       1.15293114      -2.08403602       0.54981979
Si       5.29679570      -2.01030208       5.94645823
Si       4.60966482       3.67977951       2.60873241
Si      -0.30557772       2.06104806       4.66053692
Si      -1.52783248       2.17492584       2.23210633
Si      -0.89187530       0.10359875       7.15882597
22
Lattice="12.836150533122346 1.0677884800094448 -1.6037417057249634 -0.658556894358145 9.603041795367114 -2.2506707783086575 -8.591085698410959 -4.857498293799635 10.098194667371372" Properties=species:S:1:pos:R:3 unique_starting_index=18 config_type=initial n_minim_iter=3 stress="0.0002202768678155061 -0.00013785271084937786 -2.2543721152318577e-05 -0.00013785271084937786 0.00015325618867256032 -1.406478433841611e-05 -2.2543721152318577e-05 -1.406478433841611e-05 0.00030144822838006085" pbc="T T T"
Si       4.25805727       7.78697323      -0.24846248
Si       0.61448275       0.26344080       6.48885746
Si      -5.87963643      -2.78882751       8.39117999
Si       2.30328061      -0.98251341       8.15535429
Si     -11.21056089      -0.79938448      10.65453991
Si       8.70401073       4.95723927      -0.37204500
Si       5.66129847      -0.12331523       1.81108623
Si      -0.03598696       1.51247243       7.35966843
Si       0.77715062      -1.14612288       8.84273645
Si      -1.16317908       0.65447093       4.46099491
Si       4.61532051       0.94263838       2.90234556
Si      -2.17656567       3.41314376       3.12024277
Si      -7.16943689      -2.07631895       5.96746198
Si       2.54386245       8.46947337      -0.18848554
Si       9.80911118       3.06905431       1.31168625
Si       6.78577746       6.75705907      -4.75865589
Si       1.15305014      -2.08397227       0.54983537
Si       5.29707425      -2.01022586       5.94653468
Si       4.60979782       3.67962924       2.60885222
Si      -0.30560250       2.06103285       4.66061426
Si      -1.52793034       2.17486256       2.23216724
Si      -0.89189288       0.10365098       7.15889071
22
Lattice="12.836231087145904 1.0677606508978992 -1.6036387059044286 -0.6585534194648375 9.602664966760022 -2.250549649085544 -8.59110023312466 -4.857242365949252 10.097947404026037" Properties=species:S:1:pos:R:3 unique_starting_index=18 config_type=initial n_minim_iter=4 stress="1.6588831007149208e-06 -8.224683387750647e-05 -6.41595579921574e-05 -8.224683387750647e-05 -0.00011070687813636947 9.841963254622922e-05 -6.41595579921574e-05 9.841963254622922e-05 -7.982694676490491e-05" pbc="T T T"
Si       4.25809268       7.78667937      -0.24833584
Si       0.61450850       0.26346902       6.48876162
Si      -5.87962951      -2.78863001       8.39098762
Si       2.30331929      -0.98238347       8.15520162
Si     -11.21058869      -0.79928248      10.65435123
Si       8.70403765       4.95709276      -0.37200636
Si       5.66135984      -0.12325709       1.81108307
Si      -0.03594937       1.51247773       7.35957304
Si       0.77721369      -1.14601380       8.84260090
Si      -1.16317987       0.65447399       4.46089124
Si       4.61539518       0.94268152       2.90237547
Si      -2.17655124       3.41306773       3.12021368
Si      -7.16947609      -2.07619310       5.96732661
Si       2.54390864       8.46913480      -0.18839367
Si       9.80919229       3.06897541       1.31174836
Si       6.78584659       6.75675997      -4.75846315
Si       1.15308754      -2.08388627       0.54983241
Si       5.29715257      -2.01007546       5.94643901
Si       4.60985027       3.67953593       2.60888035
Si      -0.30558324       2.06099643       4.66054978
Si      -1.52793883       2.17477834       2.23215070
Si      -0.89187139       0.10368015       7.15874443
22
Lattice="12.836288767839129 1.0679507204259064 -1.60347069523727 -0.6584499754578109 9.602590827408239 -2.2506498052788606 -8.591071371961473 -4.857413976437579 10.097890914519164" Properties=species:S:1:pos:R:3 unique_starting_index=18 config_type=initial n_minim_iter=5 stress="-3.653243649398946e-06 2.67792925053106e-05 0.00013554658252356468 2.67792925053106e-05 -5.04941126620894e-05 -2.8477627818617913e-05 0.00013554658252356468 -2.8477627818617913e-05 3.9867476800650174e-05" pbc="T T T"
Si       4.25821683       7.78666346      -0.24832424
Si       0.61459411       0.26339788       6.48877896
Si      -5.87957478      -2.78874193       8.39094301
Si       2.30341227      -0.98240173       8.15524068
Si     -11.21050932      -0.79953300      10.65425037
Si       8.70411668       4.95719277      -0.37197379
Si       5.66142249      -0.12316990       1.81116511
Si      -0.03582512       1.51239415       7.35957846
Si       0.77733460      -1.14608886       8.84264276
Si      -1.16312470       0.65438978       4.46085162
Si       4.61549464       0.94274662       2.90247161
Si      -2.17646013       3.41299323       3.12015749
Si      -7.16947266      -2.07632410       5.96726794
Si       2.54405163       8.46907464      -0.18843680
Si       9.80929755       3.06907799       1.31186699
Si       6.78593620       6.75683461      -4.75842746
Si       1.15309651      -2.08385519       0.54988398
Si       5.29724630      -2.01002689       5.94653443
Si       4.60996333       3.67955389       2.60892570
Si      -0.30549606       2.06093151       4.66053230
Si      -1.52789249       2.17470805       2.23211598
Si      -0.89178091       0.10357028       7.15872180
22
Lattice="12.836401527837864 1.0680780566380326 -1.6036304154402172 -0.6583360940747758 9.60260974740717 -2.2506660563987775 -8.59130056161202 -4.8575401870341395 10.097967880848111" Properties=species:S:1:pos:R:3 unique_starting_index=18 config_type=initial n_minim_iter=6 stress="0.0001294024360974615 0.0001399102981071638 -2.5668771086901367e-05 0.0001399102981071638 0.00014783189133931365 0.00010175441451571176 -2.5668771086901367e-05 0.00010175441451571176 -6.474195472021042e-05" pbc="T T T"
Si       4.25831371       7.78670528      -0.24838116
Si       0.61450497       0.26335394       6.48872863
Si      -5.87973855      -2.78880506       8.39098124
Si       2.30328834      -0.98239637       8.15515579
Si     -11.21072687      -0.79967583      10.65436573
Si       8.70418723       4.95729983      -0.37214556
Si       5.66144528      -0.12310043       1.81108187
Si      -0.03590927       1.51236577       7.35954329
Si       0.77722616      -1.14613917       8.84258933
Si      -1.16318618       0.65432596       4.46081192
Si       4.61552113       0.94281756       2.90243323
Si      -2.17647245       3.41297803       3.12015754
Si      -7.16963060      -2.07640678       5.96734963
Si       2.54416219       8.46908701      -0.18850253
Si       9.80935659       3.06917291       1.31173553
Si       6.78612192       6.75693452      -4.75850686
Si       1.15310733      -2.08384958       0.54989243
Si       5.29720016      -2.00999442       5.94643458
Si       4.60999386       3.67960263       2.60884944
Si      -0.30554493       2.06091167       4.66050146
Si      -1.52791436       2.17468443       2.23211085
Si      -0.89188285       0.10349689       7.15867358
22
Lattice="12.83618681578129 1.0679028914204127 -1.6039491638340615 -0.6584223473533307 9.602381137103734 -2.2509952654363024 -8.591285082845035 -4.857595635456976 10.098381199648058" Properties=species:S:1:pos:R:3 unique_starting_index=18 config_type=initial n_minim_iter=7 stress="-5.0618585713302846e-05 -7.367946316279729e-06 -1.2113282943195175e-05 -7.367946316279729e-06 2.0978820525936436e-05 4.745961907547397e-06 -1.2113282943195175e-05 4.745961907547397e-06 3.6169408690058804e-05" pbc="T T T"
Si       4.25811152       7.78636577      -0.24868116
Si       0.61432047       0.26305371       6.48872473
Si      -5.87975157      -2.78884598       8.39124395
Si       2.30302711      -0.98264022       8.15515630
Si     -11.21074902      -0.79983873      10.65474274
Si       8.70388502       4.95705044      -0.37259745
Si       5.66132897      -0.12319022       1.81097372
Si      -0.03610308       1.51204820       7.35955554
Si       0.77706708      -1.14646322       8.84265682
Si      -1.16326529       0.65408380       4.46078178
Si       4.61542004       0.94270185       2.90241108
Si      -2.17653259       3.41280413       3.12011067
Si      -7.16963340      -2.07640916       5.96763924
Si       2.54402260       8.46871627      -0.18885238
Si       9.80907082       3.06889588       1.31146124
Si       6.78603327       6.75679811      -4.75890402
Si       1.15317571      -2.08381715       0.54998513
Si       5.29704265      -2.01019174       5.94640836
Si       4.60979942       3.67934467       2.60866506
Si      -0.30568870       2.06067082       4.66046165
Si      -1.52797765       2.17455399       2.23206770
Si      -0.89202309       0.10317961       7.15868580
22
Lattice="12.836660215769443 1.0678458407347964 -1.603996508882089 -0.6584840295090095 9.602041714774007 -2.251245519165505 -8.591620074397797 -4.8576713941772 10.09831072051437" Properties=species:S:1:pos:R:3 unique_starting_index=18 config_type=initial n_minim_iter=8 stress="0.0001894885003371925 4.3973733620220054e-05 -6.622717422479423e-05 4.3973733620220054e-05 -0.00015154331576377116 -0.00012111866410504449 -6.622717422479423e-05 -0.00012111866410504449 -3.6133803375082436e-05" pbc="T T T"
Si       4.25823191       7.78599046      -0.24889126
Si       0.61429938       0.26277348       6.48850035
Si      -5.87997043      -2.78890051       8.39113244
Si       2.30304460      -0.98285135       8.15493286
Si     -11.21122950      -0.80004720      10.65456199
Si       8.70414030       4.95681222      -0.37284848
Si       5.66154267      -0.12322196       1.81090901
Si      -0.03616401       1.51171084       7.35932807
Si       0.77704456      -1.14676108       8.84243391
Si      -1.16332706       0.65386016       4.46063466
Si       4.61563185       0.94262148       2.90237091
Si      -2.17662787       3.41259595       3.11996063
Si      -7.16994709      -2.07644592       5.96760779
Si       2.54410722       8.46829215      -0.18913460
Si       9.80938958       3.06869235       1.31129088
Si       6.78626101       6.75663807      -4.75907968
Si       1.15329344      -2.08375546       0.55007411
Si       5.29725272      -2.01030383       5.94627829
Si       4.60994076       3.67910429       2.60848164
Si      -0.30570647       2.06039407       4.66027536
Si      -1.52808826       2.17437527       2.23191765
Si      -0.89209180       0.10287164       7.15846176
22
Lattice="12.836642000296706 1.0676006482419849 -1.6038114949790436 -0.658696565072486 9.601890001002651 -2.251327296046544 -8.591418542926892 -4.857549604007825 10.097999604396161" Properties=species:S:1:pos:R:3 unique_starting_index=18 config_type=initial n_minim_iter=9 stress="2.076191547956123e-05 -4.0074775344472073e-05 3.588873433549979e-05 -4.0074775344472073e-05 5.622907397369839e-05 -6.847332203425553e-06 3.588873433549979e-05 -6.847332203425553e-06 -7.190214382053113e-05" pbc="T T T"
Si       4.25809121       7.78571580      -0.24886165
Si       0.61434951       0.26257640       6.48826039
Si      -5.87979528      -2.78874481       8.39086220
Si       2.30311263      -0.98296270       8.15470599
Si     -11.21115811      -0.79988760      10.65418464
Si       8.70400503       4.95655980      -0.37288356
Si       5.66159310      -0.12328045       1.81093643
Si      -0.03613761       1.51153342       7.35913025
Si       0.77714907      -1.14696220       8.84217215
Si      -1.16328320       0.65371651       4.46046938
Si       4.61574555       0.94258777       2.90246417
Si      -2.17663788       3.41258487       3.11986100
Si      -7.16989807      -2.07629934       5.96742813
Si       2.54399614       8.46799874      -0.18921815
Si       9.80934160       3.06844947       1.31132767
Si       6.78607354       6.75645818      -4.75904658
Si       1.15344288      -2.08375213       0.55016305
Si       5.29741847      -2.01041758       5.94618608
Si       4.60991184       3.67894508       2.60845218
Si      -0.30565555       2.06023718       4.66012442
Si      -1.52817069       2.17428928       2.23176633
Si      -0.89200881       0.10267231       7.15819601
22
Lattice="12.836499333294231 1.0677886938664478 -1.6041531297962857 -0.658455406397707 9.60128649054887 -2.251463062260692 -8.591590994685076 -4.8574666523271555 10.09863114742491" Properties=species:S:1:pos:R:3 unique_starting_index=18 config_type=initial n_minim_iter=10 stress="-3.308285175456041e-05 3.507931710224988e-05 -1.3536907354850355e-05 3.507931710224988e-05 -3.36061755912616e-05 1.707877932787997e-05 -1.3536907354850355e-05 1.707877932787997e-05 6.128743172310443e-05" pbc="T T T"
Si       4.25819557       7.78527825      -0.24893980
Si       0.61419845       0.26246810       6.48846322
Si      -5.87990566      -2.78863295       8.39134920
Si       2.30284895      -0.98288503       8.15496875
Si     -11.21129562      -0.80008505      10.65487566
Si       8.70394107       4.95640308      -0.37312360
Si       5.66147044      -0.12311559       1.81090597
Si      -0.03629252       1.51134933       7.35942948
Si       0.77691968      -1.14695347       8.84248083
Si      -1.16336280       0.65354106       4.46064990
Si       4.61571043       0.94269563       2.90259724
Si      -2.17657460       3.41238548       3.12006647
Si      -7.16999307      -2.07628360       5.96787519
Si       2.54417332       8.46745932      -0.18932404
Si       9.80919573       3.06844510       1.31113378
Si       6.78619165       6.75619243      -4.75948663
Si       1.15346254      -2.08361695       0.55022603
Si       5.29721335      -2.01019774       5.94632607
Si       4.60986022       3.67882869       2.60848046
Si      -0.30566588       2.06004002       4.66031652
Si      -1.52822936       2.17408268       2.23185590
Si      -0.89215677       0.10250663       7.15845871
22
Lattice="12.837019608440624 1.0673410223727935 -1.6042903656696526 -0.6588085032918327 9.600937591648956 -2.251819910841433 -8.591897336269568 -4.857396290925625 10.098521218636714" Properties=species:S:1:pos:R:3 unique_starting_index=18 config_type=initial n_minim_iter=11 stress="2.022122433411649e-05 -2.0440239921629348e-05 7.214779833737299e-06 -2.0440239921629348e-05 1.4459135253428583e-05 -1.4834708713963113e-05 7.214779833737299e-06 -1.4834708713963113e-05 -3.745324663186588e-05" pbc="T T T"
Si       4.25816734       7.78467349      -0.24922590
Si       0.61409920       0.26197720       6.48808335
Si      -5.88008120      -2.78845237       8.39118613
Si       2.30284578      -0.98331602       8.15458133
Si     -11.21201287      -0.80013361      10.65455984
Si       8.70404060       4.95579323      -0.37335010
Si       5.66167482      -0.12328727       1.81080364
Si      -0.03652188       1.51083810       7.35894120
Si       0.77687981      -1.14739380       8.84200030
Si      -1.16355639       0.65314459       4.46033270
Si       4.61600461       0.94253268       2.90260963
Si      -2.17676996       3.41230039       3.11981509
Si      -7.17036624      -2.07605275       5.96787639
Si       2.54408655       8.46685327      -0.18973595
Si       9.80938256       3.06789829       1.31071049
Si       6.78634292       6.75582048      -4.75980631
Si       1.15377523      -2.08363484       0.55039740
Si       5.29751879      -2.01052235       5.94608953
Si       4.60989598       3.67845785       2.60821775
Si      -0.30579637       2.05965569       4.65999702
Si      -1.52855727       2.17389457       2.23168587
Si      -0.89232911       0.10195799       7.15796639
22
Lattice="12.83716535048871 1.0672598864329246 -1.6046475569826444 -0.6587913802441132 9.600293829333834 -2.2520671937826924 -8.592197278350598 -4.8572545951570385 10.09899900543088" Properties=species:S:1:pos:R:3 unique_starting_index=18 config_type=initial n_minim_iter=12 stress="-3.725781908075932e-07 6.3685999751900495e-06 -1.6381331994260098e-05 6.3685999751900495e-06 -1.7003681473807865e-05 7.962685173859994e-06 -1.6381331994260098e-05 7.962685173859994e-06 2.5814537569407236e-05" pbc="T T T"
Si       4.25829155       7.78402649      -0.24939596
Si       0.61387450       0.26164871       6.48808508
Si      -5.88024257      -2.78817496       8.39154095
Si       2.30267752      -0.98347929       8.15464703
Si     -11.21248854      -0.80019076      10.65504143
Si       8.70408093       4.95529863      -0.37357330
Si       5.66164240      -0.12322647       1.81075641
Si      -0.03679865       1.51048241       7.35893244
Si       0.77656854      -1.14762536       8.84201651
Si      -1.16375153       0.65285274       4.46025238
Si       4.61614455       0.94256929       2.90276961
Si      -2.17687010       3.41207411       3.11982217
Si      -7.17062622      -2.07583638       5.96827968
Si       2.54422163       8.46615650      -0.18996609
Si       9.80930911       3.06771496       1.31036862
Si       6.78656256       6.75537259      -4.76028700
Si       1.15397666      -2.08357395       0.55053562
Si       5.29750903      -2.01047218       5.94612061
Si       4.60987416       3.67824233       2.60816194
Si      -0.30594529       2.05929922       4.65994993
Si      -1.52871901       2.17367566       2.23171234
Si      -0.89252776       0.10155281       7.15787575
22
Lattice="12.837221975670198 1.0671247501846115 -1.6045968241234225 -0.6589092939040148 9.600013872126771 -2.25229380218326 -8.592160728171969 -4.857278092278057 10.098850439407167" Properties=species:S:1:pos:R:3 unique_starting_index=18 config_type=initial n_minim_iter=13 stress="9.787251726932772e-06 -7.029124145664076e-06 7.400014876518897e-06 -7.029124145664076e-06 -1.1478266299829743e-05 -3.811474177728006e-06 7.400014876518897e-06 -3.811474177728006e-06 -1.9091993222297526e-05" pbc="T T T"
Si       4.25834652       7.78363645      -0.24952284
Si       0.61387139       0.26131530       6.48780536
Si      -5.88014495      -2.78802623       8.39141437
Si       2.30267693      -0.98372490       8.15453398
Si     -11.21262138      -0.80033622      10.65476650
Si       8.70409284       4.95490618      -0.37365348
Si       5.66163135      -0.12325096       1.81079119
Si      -0.03688104       1.51014613       7.35864653
Si       0.77655900      -1.14790616       8.84172941
Si      -1.16383259       0.65258889       4.45992194
Si       4.61630604       0.94254328       2.90287910
Si      -2.17694258       3.41197740       3.11963182
Si      -7.17065973      -2.07568068       5.96825042
Si       2.54426925       8.46578335      -0.19015992
Si       9.80925594       3.06754118       1.31025578
Si       6.78649220       6.75513899      -4.76036935
Si       1.15416835      -2.08360825       0.55066987
Si       5.29764345      -2.01057507       5.94607486
Si       4.60988143       3.67810296       2.60809390
Si      -0.30593591       2.05902145       4.65963161
Si      -1.52879669       2.17351135       2.23154098
Si      -0.89256778       0.10116627       7.15751255
22
Lattice="12.837111858756447 1.0671225969716849 -1.60470480740062 -0.6588962357307256 9.599856423247664 -2.2524780265762434 -8.592147342475668 -4.857373063153893 10.098977876538646" Properties=species:S:1:pos:R:3 unique_starting_index=18 config_type=initial n_minim_iter=14 stress="-1.801710193518554e-05 5.548046770270587e-06 -5.850008375790702e-06 5.548046770270587e-06 -9.976352832240105e-06 -1.2345022552041887e-05 -5.850008375790702e-06 -1.2345022552041887e-05 -1.830461882314946e-06" pbc="T T T"
Si       4.25843188       7.78341302      -0.24965151
Si       0.61380572       0.26109686       6.48765511
Si      -5.88007489      -2.78791041       8.39152820
Si       2.30253685      -0.98388667       8.15460041
Si     -11.21261918      -0.80051714      10.65480471
Si       8.70393845       4.95472446      -0.37378896
Si       5.66150747      -0.12321835       1.81081155
Si      -0.03701679       1.50984488       7.35856158
Si       0.77646101      -1.14817035       8.84161226
Si      -1.16393339       0.65243028       4.45973446
Si       4.61635438       0.94258454       2.90299229
Si      -2.17696159       3.41193841       3.11957684
Si      -7.17064575      -2.07557194       5.96842022
Si       2.54437059       8.46559266      -0.19029836
Si       9.80910720       3.06748570       1.31011502
Si       6.78647010       6.75500887      -4.76060308
Si       1.15429657      -2.08367070       0.55077180
Si       5.29760930      -2.01059971       5.94610986
Si       4.60983144       3.67809595       2.60807403
Si      -0.30600775       2.05878776       4.65944852
Si      -1.52888159       2.17340369       2.23143487
Si      -0.89267149       0.10088504       7.15736795
22
Lattice="12.837348882494528 1.0669580433304644 -1.6046695693558304 -0.6590244821919525 9.59974988170942 -2.25244331792004 -8.592243146086155 -4.857198177018849 10.098876917156659" Properties=species:S:1:pos:R:3 unique_starting_index=18 config_type=initial n_minim_iter=15 stress="1.385681555119469e-05 4.507750099065173e-06 1.7589053771049337e-05 4.507750099065173e-06 -2.9601700421396287e-05 1.618428141337939e-05 1.7589053771049337e-05 1.618428141337939e-05 -5.6761704710446015e-06" pbc="T T T"
Si       4.25862163       7.78320249      -0.24957686
Si       0.61375139       0.26104419       6.48746239
Si      -5.88004844      -2.78749738       8.39152962
Si       2.30260850      -0.98394721       8.15458138
Si     -11.21291075      -0.80038001      10.65467608
Si       8.70394171       4.95447701      -0.37383586
Si       5.66153983      -0.12320382       1.81089592
Si      -0.03709857       1.50963555       7.35848835
Si       0.77642365      -1.14821671       8.84146077
Si      -1.16405039       0.65230866       4.45949078
Si       4.61655566       0.94266997       2.90318306
Si      -2.17700780       3.41196062       3.11953878
Si      -7.17073787      -2.07520410       5.96850542
Si       2.54450622       8.46548789      -0.19019317
Si       9.80923613       3.06737005       1.31012794
Si       6.78649946       6.75476981      -4.76062431
Si       1.15450916      -2.08380807       0.55083888
Si       5.29781583      -2.01054056       5.94616032
Si       4.60990683       3.67818792       2.60820544
Si      -0.30606722       2.05867466       4.65927792
Si      -1.52909679       2.17346919       2.23135189
Si      -0.89271592       0.10075570       7.15717205
22
Lattice="12.837399528563369 1.0667918412553572 -1.604879867993196 -0.6591412140676544 9.59992608594449 -2.252539372431556 -8.592357255263257 -4.857259366640108 10.09901491497132" Properties=species:S:1:pos:R:3 unique_starting_index=18 config_type=initial n_minim_iter=16 stress="-1.2718741183931e-06 -1.8571176669551454e-06 -1.0078720047416227e-05 -1.8571176669551454e-06 3.4847293937235094e-07 -8.958992637023716e-06 -1.0078720047416227e-05 -8.958992637023716e-06 -6.098991077790478e-06" pbc="T T T"
Si       4.25872457       7.78318325      -0.24969939
Si       0.61357489       0.26088105       6.48726071
Si      -5.88006383      -2.78724456       8.39170324
Si       2.30250215      -0.98415837       8.15450384
Si     -11.21324820      -0.80040735      10.65476005
Si       8.70379668       4.95432325      -0.37415478
Si       5.66144611      -0.12324618       1.81088851
Si      -0.03730049       1.50941933       7.35841773
Si       0.77621894      -1.14837398       8.84134043
Si      -1.16423062       0.65219916       4.45933461
Si       4.61661319       0.94271273       2.90327430
Si      -2.17710004       3.41204734       3.11951222
Si      -7.17079475      -2.07493615       5.96876918
Si       2.54458068       8.46560927      -0.19024693
Si       9.80912041       3.06726196       1.30993858
Si       6.78651938       6.75469215      -4.76091618
Si       1.15469712      -2.08402559       0.55091172
Si       5.29784106      -2.01063247       5.94617120
Si       4.60984777       3.67832798       2.60821469
Si      -0.30624504       2.05852285       4.65911510
Si      -1.52927513       2.17354749       2.23123443
Si      -0.89288866       0.10048694       7.15700170
22
Lattice="12.83740068181204 1.0665944889764998 -1.6048679105435246 -0.6592894553694127 9.600021061703893 -2.2524635887104574 -8.592295146101396 -4.857106830812885 10.09894672010426" Properties=species:S:1:pos:R:3 unique_starting_index=18 config_type=initial n_minim_iter=17 stress="8.68295539773962e-06 -1.7676090755601522e-06 -2.6739178368742107e-06 -1.7676090755601522e-06 -4.236835094496204e-06 6.1503149357538744e-06 -2.6739178368742107e-06 6.1503149357538744e-06 -1.1129547105161073e-06" pbc="T T T"
Si       4.25888791       7.78313246      -0.24960359
Si       0.61344823       0.26081682       6.48713963
Si      -5.87991256      -2.78671838       8.39181346
Si       2.30242410      -0.98416012       8.15437004
Si     -11.21336807      -0.80026024      10.65459594
Si       8.70353705       4.95415423      -0.37426393
Si       5.66135081      -0.12323756       1.81100890
Si      -0.03739201       1.50932883       7.35832239
Si       0.77615287      -1.14840630       8.84115263
Si      -1.16435029       0.65212693       4.45921607
Si       4.61670964       0.94283306       2.90349441
Si      -2.17720594       3.41211438       3.11952050
Si      -7.17070378      -2.07445760       5.96896148
Si       2.54472874       8.46573559      -0.19005109
Si       9.80900082       3.06725272       1.30992311
Si       6.78638885       6.75441592      -4.76096041
Si       1.15492307      -2.08429524       0.55097414
Si       5.29797691      -2.01054787       5.94630314
Si       4.60983654       3.67857626       2.60843603
Si      -0.30624952       2.05843276       4.65899534
Si      -1.52940566       2.17361979       2.23115662
Si      -0.89293242       0.10029431       7.15677011
22
Lattice="12.8370333822995 1.0663338624233527 -1.6047926028049573 -0.6594952004464673 9.600256683374424 -2.2524378784694705 -8.591918452650571 -4.857027355507713 10.098783470313002" Properties=species:S:1:pos:R:3 unique_starting_index=18 config_type=initial n_minim_iter=18 stress="-1.9499647464664096e-06 -1.3655107890821497e-06 -6.518081332693644e-08 -1.3655107890821497e-06 6.4325231320199725e-06 2.0470977646106861e-07 -6.518081332693644e-08 2.0470977646106861e-07 -4.859192456745146e-06" pbc="T T T"
Si       4.25909833       7.78313444      -0.24951052
Si       0.61346090       0.26060805       6.48684604
Si      -5.87946232      -2.78590837       8.39201739
Si       2.30218094      -0.98421069       8.15395548
Si     -11.21319740      -0.80016017      10.65424440
Si       8.70293961       4.95386214      -0.37454744
Si       5.66104787      -0.12321014       1.81124880
Si      -0.03762778       1.50902524       7.35797496
Si       0.77597269      -1.14863509       8.84083639
Si      -1.16440145       0.65189908       4.45893005
Si       4.61673812       0.94302314       2.90384435
Si      -2.17726920       3.41223005       3.11940924
Si      -7.17028551      -2.07371107       5.96928003
Si       2.54498395       8.46603630      -0.18977689
Si       9.80844833       3.06719928       1.30977719
Si       6.78599035       6.75413320      -4.76100607