20
Lattice="10.066756956832847 -3.5349501104064984e-13 -3.4876196491768987e-16 5.033378478416729 8.718067258340797 -8.158125948905133e-15 5.033378478416524 2.906022419446821 7.106176968821948" Properties=species:S:1:pos:R:3 unique_starting_index=8 config_type=initial n_minim_iter=1 energy=-3284.2235689014183 free_energy=-3284.2235689014183 pbc="T T T"
Si      12.28798884       4.71256938       3.18711704
Si       9.90831470       8.28542580       3.18711704
Si       8.00396734       4.43813934       3.18711704
Si       7.22575313       5.61069395       4.71203341
Si      11.66163386       3.45233880       4.71203341
Si      11.31288389       8.37310177       4.71203341
Si      10.81825835       2.92970872       6.29853126
Si      12.18718257       7.90403219       6.29853126
Si       7.19482996       6.60239361       6.29853126
Si       5.80920973       7.22350391      -0.23909774
Si      10.97317116       1.41917125      -0.23909774
Si      13.41788999       8.79345936      -0.23909774
Si      13.91759805       8.70534708       6.22481594
Si      15.70242013       7.70031992       6.22481594
Si      15.68038814       9.74853477       6.22481594
Si      10.21654482       1.07100038       1.40388365
Si      14.09772797       8.31228716       1.40388365
Si       5.88599809       8.05284698       1.40388365
Si      15.10013544       8.71806726      -0.04716316
Si      15.10013544       8.71806726       4.75300181
20
Lattice="10.06883243460958 -3.5155238088203414e-13 -4.71909981507474e-16 5.034416217305096 8.719864674820439 -8.273234257259474e-15 5.03441621730489 2.906621558273369 7.170364380670873" Properties=species:S:1:pos:R:3 unique_starting_index=8 config_type=initial n_minim_iter=2 stress="0.01402269465104763 9.372049550631911e-16 -1.0641313292919504e-15 9.372049550631911e-16 0.014022694651053836 6.788756136062793e-17 -1.0641313292919504e-15 6.788756136062793e-17 0.010022364444576345" pbc="T T T"
Si      12.29011674       4.71334011       3.21566070
Si       9.91073423       8.28688325       3.21566070
Si       8.00564634       4.43950599       3.21566070
Si       7.22696921       5.61214323       4.75511003
Si      11.66392166       3.45266731       4.75511003
Si      11.31560644       8.37491881       4.75511003
Si      10.82080197       2.92973072       6.35581571
Si      12.19004266       7.90622404       6.35581571
Si       7.19565268       6.60377460       6.35581571
Si       5.80941611       7.22667753      -0.24177382
Si      10.97447050       1.41776317      -0.24177382
Si      13.42261071       8.79528866      -0.24177382
Si      13.91950072       8.70747627       6.28114736
Si      15.70585130       7.70090309       6.28114736
Si      15.68439395       9.75121467       6.28114736
Si      10.21821663       1.07087210       1.41806316
Si      14.10115412       8.31379913       1.41806316
Si       5.88712657       8.05505813       1.41806316
Si      15.10324866       8.71986468      -0.05190077
Si      15.10324866       8.71986468       4.79499604
20
Lattice="10.039818594843966 -3.5090427054502276e-13 -7.400090198155495e-16 5.019909297422289 8.69473795252209 -8.428370137132063e-15 5.019909297422082 2.898245984173919 7.180505804172485" Properties=species:S:1:pos:R:3 unique_starting_index=8 config_type=initial n_minim_iter=3 stress="-0.012239660251217633 -3.8533186208731546e-16 -3.047028740556717e-15 -3.8533186208731546e-16 -0.012239660251204484 1.9851403951715846e-16 -3.047028740556717e-15 1.9851403951715846e-16 0.007774737117085015" pbc="T T T"
Si      12.25425376       4.69961063       3.21980483
Si       9.88252812       8.26268975       3.21980483
Si       7.98267391       4.42717553       3.21980483
Si       7.20576907       5.59641879       4.76271249
Si      11.63011182       3.44216967       4.76271249
Si      11.28357491       8.35088745       4.76271249
Si      10.79013691       2.92070344       6.36508067
Si      12.15516537       7.88418096       6.36508067
Si       7.17415351       6.58459151       6.36508067
Si       5.79176416       7.20770892      -0.24226877
Si      10.94169609       1.41196043      -0.24226877
Si      13.38599555       8.76980655      -0.24226877
Si      13.87850748       8.68276381       6.28995142
Si      15.66070802       7.67775813       6.28995142
Si      15.63996819       9.72369191       6.28995142
Si      10.18835310       1.06728850       1.42112046
Si      14.06116169       8.28972835       1.42112046
Si       5.86994100       8.03245906       1.42112046
Si      15.05972790       8.69473795      -0.05601098
Si      15.05972790       8.69473795       4.80111168
20
Lattice="10.108049773225444 -3.566742702456684e-13 -6.926423031282216e-16 5.054024886613032 8.753827886330596 -8.414343930445187e-15 5.054024886612822 2.917942628776751 7.1077017227641965" Properties=species:S:1:pos:R:3 unique_starting_index=8 config_type=initial n_minim_iter=4 stress="-0.002729003348764602 -1.0845284151720066e-15 -2.7013200006674022e-15 -1.0845284151720066e-15 -0.002729003348736154 5.167595176975572e-16 -2.7013200006674022e-15 5.167595176975572e-16 0.00021706274348886757" pbc="T T T"
Si      12.33264016       4.72976009       3.18182076
Si       9.95368708       8.31549962       3.18182076
Si       8.03782209       4.46239606       3.18182076
Si       7.25029926       5.64069556       4.72543963
Si      11.70596427       3.45859556       4.72543963
Si      11.36788580       8.40836465       4.72543963
Si      10.86937718       2.93494240       6.30287139
Si      12.23967629       7.94568557       6.30287139
Si       7.21509586       6.62702781       6.30287139
Si       5.82455740       7.27250739      -0.23986426
Si      11.00564470       1.40796097      -0.23986426
Si      13.49394723       8.82718741      -0.23986426
Si      13.96372252       8.74684425       6.22432880
Si      15.76729874       7.71951630       6.22432880
Si      15.75520273       9.79512311       6.22432880
Si      10.25354129       1.07001527       1.41618463
Si      14.16266850       8.34481960       1.41618463
Si       5.90793954       8.09282090       1.41618463
Si      15.16207466       8.75382789      -0.09545166
Si      15.16207466       8.75382789       4.74570362
20
Lattice="10.142774956631097 -3.583040824782218e-13 -6.527363918567366e-16 5.071387478315859 8.783900777310963 -8.388685943598155e-15 5.07138747831565 2.927966925770207 7.058499465707625" Properties=species:S:1:pos:R:3 unique_starting_index=8 config_type=initial n_minim_iter=5 stress="0.0037835032931413403 -2.6712810996037442e-15 -6.716332977476172e-16 -2.6712810996037442e-15 0.003783503293150741 6.177724120344097e-16 -6.716332977476172e-16 6.177724120344097e-16 -0.0003688256746959671" pbc="T T T"
Si      12.36522781       4.74411876       3.15135580
Si       9.99440865       8.33654202       3.15135580
Si       8.06868842       4.48714077       3.15135580
Si       7.26662407       5.66971971       4.70713476
Si      11.74211659       3.45822119       4.70713476
Si      11.41958422       8.43986066       4.70713476
Si      10.91908416       2.93296778       6.26999252
Si      12.28598323       7.98972038       6.26999252
Si       7.22325749       6.64511340       6.26999252
Si       5.85016567       7.29387015      -0.24376757
Si      11.04379024       1.41945701      -0.24376757
Si      13.53436897       8.85447440      -0.24376757
Si      13.99244093       8.78538221       6.17691923
Si      15.82374024       7.72511820       6.17691923
Si      15.82630615       9.84120193       6.17691923
Si      10.28010182       1.05762849       1.41429733
Si      14.22956587       8.37401508       1.41429733
Si       5.91865720       8.13615799       1.41429733
Si      15.21416244       8.78390078      -0.13452254
Si      15.21416244       8.78390078       4.70833581
20
Lattice="10.41399834130025 -3.6183157051567274e-13 -5.302362999187194e-16 5.20699917065044 9.018787118534844 -8.77732047100691e-15 5.206999170650228 3.0062623728448323 6.900783250701888" Properties=species:S:1:pos:R:3 unique_starting_index=8 config_type=initial n_minim_iter=6 stress="0.019590699550965485 -1.2106121656663744e-15 6.9777025342525895e-16 -1.2106121656663744e-15 0.019590699550964402 3.8931148688356e-16 6.9777025342525895e-16 3.8931148688356e-16 -0.057462822965415675" pbc="T T T"
Si      12.61081778       4.86735137       3.01844871
Si      10.30733786       8.48761288       3.01844871
Si       8.32383939       4.68261000       3.01844871
Si       7.38183918       5.90399178       4.67623144
Si      12.02407023       3.44086436       4.67623144
Si      11.83608562       8.69271810       4.67623144
Si      11.27163713       2.92852479       6.26013436
Si      12.65600126       8.29726170       6.26013436
Si       7.31435664       6.81178775       6.26013436
Si       6.03369066       7.53305344      -0.24031664
Si      11.28733571       1.45880266      -0.24031664
Si      13.92096867       9.04571813      -0.24031664
Si      14.18494132       9.10057575       5.98447199
Si      16.26819458       7.73423165       5.98447199
Si      16.40985665      10.22155395       5.98447199
Si      10.50017775       1.00622354       1.34723252
Si      14.70649267       8.59030890       1.34723252
Si       6.03532462       8.44104180       1.34723252
Si      15.62099752       9.01878712      -0.30685047
Si      15.62099752       9.01878712       4.62807001
20
Lattice="10.458564090860197 -3.6614886697059734e-13 -6.624336114971708e-16 5.229282045430418 9.057382189792449 -9.069471980547443e-15 5.229282045430203 3.0191273965973666 6.88634760960441" Properties=species:S:1:pos:R:3 unique_starting_index=8 config_type=initial n_minim_iter=7 stress="0.029858743471676025 -1.1362087570156613e-15 1.8173658177468977e-16 -1.1362087570156613e-15 0.029858743471673367 7.531619715453746e-16 1.8173658177468977e-16 7.531619715453746e-16 -0.06621380636317996" pbc="T T T"
Si      12.64828847       4.88966101       2.99930312
Si      10.35841330       8.50890862       2.99930312
Si       8.36899051       4.71619475       2.99930312
Si       7.39688481       5.94696734       4.68343025
Si      12.06846099       3.43240649       4.68343025
Si      11.91034648       8.73539056       4.68343025
Si      11.33214296       2.93052965       6.27207458
Si      12.71314359       8.34865885       6.27207458
Si       7.33040574       6.83557588       6.27207458
Si       6.06712923       7.57408407      -0.24122494
Si      11.32421436       1.46724600      -0.24122494
Si      13.98434870       9.07343431      -0.24122494
Si      14.21085536       9.15791442       5.95949586
Si      16.33927807       7.72800454       5.95949586
Si      16.51340499      10.28622761       5.95949586
Si      10.53570566       0.99808322       1.33686857
Si      14.78490994       8.62514714       1.33686857
Si       6.05507668       8.49153402       1.33686857
Si      15.68784614       9.05738219      -0.33804526
Si      15.68784614       9.05738219       4.62691151
20
Lattice="10.488666916028288 -3.8504699056864e-13 -9.638778978699765e-16 5.244333458014479 9.083452001113692 -9.445295352860867e-15 5.244333458014255 3.027817333704441 7.065151578539028" Properties=species:S:1:pos:R:3 unique_starting_index=8 config_type=initial n_minim_iter=8 stress="0.01432128095356981 -9.270129779230671e-15 2.16709983111194e-15 -9.270129779230671e-15 0.014321280953578664 -1.6115858813203104e-15 2.16709983111194e-15 -1.6115858813203104e-15 -0.022132795323662767" pbc="T T T"
Si      12.61611426       4.92296121       3.02851056
Si      10.40586724       8.46439484       3.02851056
Si       8.44401926       4.77954796       3.02851056
Si       7.35602292       6.02755396       4.86741584
Si      12.07930752       3.35672574       4.86741584
Si      12.03067031       8.78262430       4.86741584
Si      11.39469640       2.91588353       6.54857280
Si      12.75475642       8.41015479       6.54857280
Si       7.31654793       6.84086569       6.54857280
Si       6.14983385       7.63184741      -0.24372546
Si      11.29304318       1.50998864      -0.24372546
Si      14.02312373       9.02506796      -0.24372546
Si      14.20126882       9.27476934       6.04748099
Si      16.33318048       7.66127489       6.04748099
Si      16.66455183      10.31431178       6.04748099
Si      10.54631342       0.97130409       1.31285353
Si      14.86300311       8.64772330       1.31285353
Si       6.05668422       8.54787662       1.31285353
Si      15.73300038       9.08345200      -0.42904610
Si      15.73300038       9.08345200       4.81235965
20
Lattice="10.459336947159494 -3.9734255421888584e-13 -1.1947052915077174e-15 5.229668473580093 9.058051502981105 -8.861324268486273e-15 5.22966847357986 3.0193505009935744 7.194314360296354" Properties=species:S:1:pos:R:3 unique_starting_index=8 config_type=initial n_minim_iter=9 stress="0.020184546610249397 -1.735201055895905e-15 2.756436707732622e-16 -1.735201055895905e-15 0.020184546610244467 -1.0861006049474052e-15 2.756436707732622e-16 -1.0861006049474052e-15 -0.00352207125568902" pbc="T T T"
Si      12.53624644       4.93858565       3.06504793
Si      10.37361005       8.38741506       3.06504793
Si       8.46815436       4.79010230       3.06504793
Si       7.30200315       6.05546802       5.00919191
Si      12.02348319       3.29598622       5.00919191
Si      12.05252451       8.76464877       5.00919191
Si      11.36248471       2.89938255       6.73082300
Si      12.72649260       8.39050913       6.73082300
Si       7.28903354       6.82621132       6.73082300
Si       6.18489773       7.63606176      -0.25972270
Si      11.21320156       1.53824767      -0.25972270
Si      13.97991156       8.94179357      -0.25972270
Si      14.14482654       9.31632116       6.11365871
Si      16.23742678       7.59161853       6.11365871
Si      16.68476295      10.26621482       6.11365871
Si      10.50891856       1.00706361       1.29206759
Si      14.79207195       8.59745864       1.29206759
Si       6.07702034       8.51158077       1.29206759
Si      15.68900542       9.05805150      -0.45252488
Si      15.68900542       9.05805150       4.92861753
20
Lattice="10.44763484066554 -4.1059265687399533e-13 -1.1747654747833547e-15 5.223817420333123 9.047917181479537 -8.766455946484075e-15 5.223817420332884 3.0159723938263823 7.353485038168596" Properties=species:S:1:pos:R:3 unique_starting_index=8 config_type=initial n_minim_iter=10 stress="0.04904986994129481 -1.0762179789705073e-15 1.6614541509924449e-15 -1.0762179789705073e-15 0.04904986994129001 4.662617575964753e-16 1.6614541509924449e-15 4.662617575964753e-16 0.013683462033073497" pbc="T T T"
Si      12.49276767       4.97949165       3.12529053
Si      10.33651959       8.32930834       3.12529053
Si       8.51361728       4.78703438       3.12529053
Si       7.27649733       6.09818610       5.18419852
Si      11.97583694       3.25253849       5.18419852
Si      12.09057026       8.74510978       5.18419852
Si      11.31669714       2.90600957       6.91098454
Si      12.72024300       8.34754243       6.91098454
Si       7.30596439       6.84228237       6.91098454
Si       6.20770996       7.66666191      -0.28331448
Si      11.15189073       1.54270356      -0.28331448
Si      13.98330385       8.88646889      -0.28331448
Si      14.12517721       9.37839220       6.21025088
Si      16.15839004       7.54356619       6.21025088
Si      16.73078955      10.22179316       6.21025088
Si      10.48144327       0.99569150       1.26992826
Si      14.79225392       8.57935039       1.26992826
Si       6.06920734       8.52079248       1.26992826
Si      15.67145226       9.04791718      -0.41704601
Si      15.67145226       9.04791718       5.05032429
20
Lattice="10.364180414195337 -4.102422185838235e-13 -1.6596223367916555e-15 5.182090207098024 8.97564352809808 -9.272219218910346e-15 5.182090207097785 2.991881176032563 7.492719262764851" Properties=species:S:1:pos:R:3 unique_starting_index=8 config_type=initial n_minim_iter=11 stress="-0.004984856839962284 4.369342755131588e-15 1.353108565861174e-15 4.369342755131588e-15 -0.004984856839972532 -1.2446874186229677e-15 1.353108565861174e-15 -1.2446874186229677e-15 -0.005481546747303884" pbc="T T T"
Si      12.39900657       4.97705775       3.19258299
Si      10.21859910       8.24932580       3.19258299
Si       8.47493558       4.72490351       3.19258299
Si       7.22873074       6.07283941       5.31982618
Si      11.85476227       3.22384475       5.31982618
Si      12.00904825       8.65460290       5.31982618
Si      11.20601818       2.88242640       7.01303751
Si      12.62909726       8.26348322       7.01303751
Si       7.25742581       6.80537744       7.01303751
Si       6.16530823       7.61880000      -0.30153029
Si      11.04763238       1.52991355      -0.30153029
Si      13.87960065       8.80257351      -0.30153029
Si      14.00794938       9.32845841       6.32668561
Si      16.00988459       7.46701081       6.32668561
Si      16.62097790      10.13146136       6.32668561
Si      10.40194325       1.00113297       1.26549927
Si      14.66038263       8.50778062       1.26549927
Si       6.03021538       8.44237348       1.26549927
Si      15.54627063       8.97564353      -0.34059093
Si      15.54627063       8.97564353       5.13868900
20
Lattice="10.256067930752577 -4.0430079693582914e-13 -2.2780903120026266e-15 5.128033965376639 8.88201537097043 -9.451337672375649e-15 5.128033965376403 2.960671790323349 7.627622312598668" Properties=species:S:1:pos:R:3 unique_starting_index=8 config_type=initial n_minim_iter=12 stress="-0.0034018976665773893 5.7732818721817576e-15 1.049490534165778e-15 5.7732818721817576e-15 -0.003401897666584696 -4.740337151231785e-16 1.049490534165778e-15 -4.740337151231785e-16 -0.0014523372901885945" pbc="T T T"
Si      12.30788969       4.99385679       3.27266354
Si      10.03338418       8.16201675       3.27266354
Si       8.42692993       4.60815721       3.27266354
Si       7.19326916       6.03169327       5.43738682
Si      11.69190168       3.21370719       5.43738682
Si      11.88303296       8.51863028       5.43738682
Si      11.03611252       2.84342439       7.09286333
Si      12.53160185       8.13584160       7.09286333
Si       7.20048943       6.78476475       7.09286333
Si       6.12541300       7.52607317      -0.29876301
Si      10.93165881       1.54172668      -0.29876301
Si      13.71113199       8.69623089      -0.29876301
Si      13.85782801       9.25345534       6.44117224
Si      15.82556240       7.37450343       6.44117224
Si      16.46891529      10.01808735       6.44117224
Si      10.30751178       1.02698813       1.27056515
Si      14.46898217       8.41307298       1.27056515
Si       5.99170986       8.32396963       1.27056515
Si      15.38410190       8.88201537      -0.31065069
Si      15.38410190       8.88201537       5.22815695
20
Lattice="10.205846091109265 -3.998334998673314e-13 -2.4208791408370187e-15 5.102923045554982 8.838521982014536 -9.595826326016458e-15 5.102923045554744 2.946173994004719 7.612952606630822" Properties=species:S:1:pos:R:3 unique_starting_index=8 config_type=initial n_minim_iter=13 stress="-0.020289446182964483 5.3493598188592525e-15 2.2891664368877413e-16 5.3493598188592525e-15 -0.020289446182977143 -3.0030654522061208e-16 2.2891664368877413e-16 -3.0030654522061208e-16 -0.007710847592228605" pbc="T T T"
Si      12.30582436       5.02079397       3.28979734
Si       9.91064488       8.14675953       3.28979734
Si       8.40106904       4.50949047       3.28979734
Si       7.20278832       5.99229847       5.40689613
Si      11.62081533       3.24164843       5.40689613
Si      11.79393464       8.44309707       5.40689613
Si      10.95166069       2.83695362       7.06661083
Si      12.47898794       8.06593956       7.06661083
Si       7.18688965       6.77415079       7.06661083
Si       6.06491493       7.46235318      -0.30475454
Si      10.91664730       1.52119381      -0.30475454
Si      13.63597606       8.69349698      -0.30475454
Si      13.80362795       9.22023820       6.43208195
Si      15.73076379       7.34417337       6.43208195
Si      16.39191567       9.95115438       6.43208195
Si      10.26532548       1.04059078       1.27682355
Si      14.37785140       8.36973726       1.27682355
Si       5.97436140       8.26671594       1.27682355
Si      15.30876914       8.83852198      -0.28239477
Si      15.30876914       8.83852198       5.20179316
20
Lattice="10.266099484602332 -4.0171323723097143e-13 -2.5716157233183676e-15 5.133049742301518 8.890702951443751 -8.933206133298385e-15 5.133049742301278 2.9635676504811244 7.605320901618802" Properties=species:S:1:pos:R:3 unique_starting_index=8 config_type=initial n_minim_iter=14 stress="0.017377510118723582 3.817254109864261e-15 -1.2957715780160664e-16 3.817254109864261e-15 0.01737751011870913 3.37753465763029e-16 -1.2957715780160664e-16 3.37753465763029e-16 0.010277032409258846" pbc="T T T"
Si      12.43174519       5.11222019       3.28544018
Si       9.88901383       8.21009705       3.28544018
Si       8.47753945       4.45908866       3.28544018
Si       7.27847314       6.01878622       5.40960891
Si      11.68054063       3.29394953       5.40960891
Si      11.83928469       8.46867015       5.40960891
Si      11.03459800       2.83186717       7.08106612
Si      12.56243106       8.14030860       7.08106612
Si       7.20126940       6.80923013       7.08106612
Si       6.09710795       7.50844912      -0.30764862
Si      10.98113732       1.52602581      -0.30764862
Si      13.72005319       8.74693097      -0.30764862
Si      13.87827336       9.28925186       6.40737516
Si      15.81443369       7.37431136       6.40737516
Si      16.50474064      10.00854564       6.40737516
Si      10.31623301       1.03318741       1.27540196
Si      14.47931593       8.41752615       1.27540196
Si       6.00274953       8.33069234       1.27540196
Si      15.39914923       8.89070295      -0.29845327
Si      15.39914923       8.89070295       5.19188118
20
Lattice="10.263539424119138 -4.0232494491944494e-13 -3.142675329783126e-15 5.1317697120599215 8.88848587403008 -8.982157216564163e-15 5.131769712059682 2.962828624676568 7.616078368903438" Properties=species:S:1:pos:R:3 unique_starting_index=8 config_type=initial n_minim_iter=15 stress="0.008829730916577908 1.6328268921331058e-15 1.512515462272954e-15 1.6328268921331058e-15 0.008829730916567375 7.821135355819471e-16 1.512515462272954e-15 7.821135355819471e-16 0.006023409424312205" pbc="T T T"
Si      12.45893422       5.13778628       3.28480017
Si       9.84815831       8.22086040       3.28480017
Si       8.48352575       4.41832507       3.28480017
Si       7.29034216       6.00827762       5.43434481
Si      11.67858672       3.30948270       5.43434481
Si      11.82168940       8.45921143       5.43434481
Si      11.03875584       2.82290236       7.09177806
Si      12.56299577       8.14839180       7.09177806
Si       7.18886666       6.80567758       7.09177806
Si       6.09580530       7.50462704      -0.30722866
Si      10.97997854       1.52680872      -0.30722866
Si      13.71483444       8.74553598      -0.30722866
Si      13.87317213       9.28714552       6.40846249
Si      15.81112827       7.37094673       6.40846249
Si      16.50162702      10.00736538       6.40846249
Si      10.30704085       1.03113248       1.27506377
Si      14.48057150       8.41059297       1.27506377
Si       6.00300593       8.33524630       1.27506377
Si      15.39530914       8.88848587      -0.30687512
Si      15.39530914       8.88848587       5.19753380
20
Lattice="10.261697042395562 -4.0086206017154756e-13 -3.064341505287623e-15 5.130848521198131 8.886890324653988 -8.981895912411424e-15 5.130848521197891 2.962296774884539 7.632961305158187" Properties=species:S:1:pos:R:3 unique_starting_index=8 config_type=initial n_minim_iter=16 stress="0.003125095077262826 -5.962292765111546e-16 9.979786852618252e-16 -5.962292765111546e-16 0.0031250950772408284 1.761305779184615e-15 9.979786852618252e-16 1.761305779184615e-15 0.00306382421213297" pbc="T T T"
Si      12.48809113       5.16093235       3.28166436
Si       9.80985001       8.23453799       3.28166436
Si       8.48715000       4.37831031       3.28166436
Si       7.30240830       5.99700798       5.46341981
Si      11.67862869       3.32556711       5.46341981
Si      11.80405415       8.45120557       5.46341981
Si      11.03607595       2.81299985       7.10971097
Si      12.56922679       8.15102220       7.10971097
Si       7.17978840       6.80975860       7.10971097
Si       6.09500474       7.50439447      -0.30674998
Si      10.97689547       1.52623170      -0.30674998
Si      13.71319093       8.74315448      -0.30674998
Si      13.87112558       9.28003688       6.41517642
Si      15.81278066       7.37272870       6.41517642
Si      16.49373046      10.00790541       6.41517642
Si      10.30082514       1.03055450       1.27486365
Si      14.48049515       8.40549900       1.27486365
Si       6.00377085       8.33772716       1.27486365
Si      15.39254557       8.88689033      -0.30471809
Si      15.39254557       8.88689033       5.20782507
20
Lattice="10.257953141175735 -3.9873857979132385e-13 -3.2049250428235745e-15 5.1289765705882155 8.883648011088363 -9.030481305070401e-15 5.128976570587977 2.9612160036959976 7.648248643388732" Properties=species:S:1:pos:R:3 unique_starting_index=8 config_type=initial n_minim_iter=17 stress="-0.002674436775425745 6.577773490372663e-16 -2.09634939110952e-16 6.577773490372663e-16 -0.0026744367754469706 2.0931773231659606e-15 -2.09634939110952e-16 2.0931773231659606e-15 -0.0005808532175928663" pbc="T T T"
Si      12.51298613       5.17518976       3.27213509
Si       9.77756742       8.24896898       3.27213509
Si       8.48330588       4.34313728       3.27213509
Si       7.30905579       5.98751169       5.49456344
Si      11.67604117       3.33607214       5.49456344
Si      11.78876248       8.44371219       5.49456344
Si      11.03023526       2.80507538       7.12921870
Si      12.57152212       8.14992626       7.12921870
Si       7.17210205       6.81229439       7.12921870
Si       6.08983652       7.50070471      -0.30593845
Si      10.97518720       1.52360077      -0.30593845
Si      13.70883571       8.74299054      -0.30593845
Si      13.87026533       9.26914797       6.42039356
Si      15.81140915       7.37742815       6.42039356
Si      16.47911466      10.00436792       6.42039356
Si      10.29581415       1.03151392       1.27524785
Si      14.47468196       8.40067965       1.27524785
Si       6.00336333       8.33510246       1.27524785
Si      15.38692972       8.88364801      -0.30396222
Si      15.38692972       8.88364801       5.21390845
20
Lattice="10.251638299793298 -3.9341895558117874e-13 -2.925694690082781e-15 5.125819149896994 8.878179198030315 -9.505701438785291e-15 5.125819149896756 2.9593930660099814 7.675760614857895" Properties=species:S:1:pos:R:3 unique_starting_index=8 config_type=initial n_minim_iter=18 stress="-0.0026556085245790987 -3.4629260640690356e-15 -9.011797025721946e-16 -3.4629260640690356e-15 -0.0026556085245964044 1.1611026649043194e-15 -9.011797025721946e-16 1.1611026649043194e-15 -0.0008657224207019726" pbc="T T T"
Si      12.54457301       5.18552383       3.25583328
Si       9.74019473       8.27115699       3.25583328
Si       8.47014717       4.29967758       3.25583328
Si       7.31625763       5.98539423       5.54080991
Si      11.66164434       3.34336786       5.54080991
Si      11.77701294       8.42759632       5.54080991
Si      11.01797541       2.79665349       7.16782371
Si      12.57231594       8.14351985       7.16782371
Si       7.16462357       6.81618506       7.16782371
Si       6.08069659       7.49272324      -0.30394742
Si      10.97403964       1.51967610      -0.30394742
Si      13.70017868       8.74395906      -0.30394742
Si      13.86954015       9.25233589       6.43574205
Si      15.80738691       7.38520616       6.43574205
Si      16.45544530       9.99699555       6.43574205
Si      10.29713081       1.03311035       1.27625105
Si      14.46001139       8.40102169       1.27625105
Si       5.99777271       8.32222636       1.27625105
Si      15.37745745       8.87817920      -0.29847959
Si      15.37745745       8.87817920       5.21669680
20
Lattice="10.25080803824603 -3.924001545658943e-13 -2.7060954102425424e-15 5.125404019123361 8.877460170438598 -8.8705582687585e-15 5.125404019123122 2.9591533901460743 7.669347085774162" Properties=species:S:1:pos:R:3 unique_starting_index=8 config_type=initial n_minim_iter=19 stress="0.0018227419684773197 -2.165719920027612e-15 -2.2393413629777207e-15 -2.165719920027612e-15 0.001822741968466202 5.1036726940257856e-17 -2.2393413629777207e-15 5.1036726940257856e-17 -0.001130612049831659" pbc="T T T"
Si      12.55350014       5.18102761       3.24408569
Si       9.73796448       8.28113622       3.24408569
Si       8.46095950       4.29275651       3.24408569
Si       7.31564711       5.99852492       5.54280938
Si      11.64891756       3.33627378       5.54280938
Si      11.78785946       8.42012164       5.54280938
Si      11.01361605       2.79519584       7.17064781
Si      12.57409745       8.14047337       7.17064781
Si       7.16471063       6.81925113       7.17064781
Si       6.07780754       7.48955243      -0.30878029
Si      10.97656964       1.51875951      -0.30878029
Si      13.69804694       8.74660840      -0.30878029
Si      13.86818999       9.24965665       6.43041603
Si      15.80789150       7.38537651       6.43041603
Si      16.45255470       9.99734736       6.43041603
Si      10.30577093       1.03231933       1.27684442
Si      14.45471585       8.40889977       1.27684442
Si       5.99193734       8.31370125       1.27684442
Si      15.37621206       8.87746017      -0.30096512
Si      15.37621206       8.87746017       5.20595436
20