20
Lattice="10.212572256359556 -7.105427357601002e-15 -3.3635055248742273e-15 5.106286128179785 8.844347011991534 -1.15703208078131e-14 5.106286128179783 2.9481156706638494 6.842059861695751" Properties=species:S:1:pos:R:3 unique_starting_index=8 config_type=initial n_minim_iter=1 energy=-3259.719942696071 free_energy=-3259.719942696071 pbc="T T T"
Si      12.21905112       4.33252116       2.97428790
Si      10.56354557       8.41574810       2.97428790
Si       7.85512009       4.94042477       2.97428790
Si       7.07644606       5.41494873       4.65418729
Si      12.19743833       3.42090769       4.65418729
Si      11.36383239       8.85283761       4.65418729
Si      10.26240583       2.99326199       5.72652206
Si      12.70170068       7.39087316       5.72652206
Si       7.67361027       7.30455888       5.72652206
Si       6.03814313       7.38413362      -0.20353583
Si      11.01122565       1.53711853      -0.20353583
Si      13.58834800       8.76744188      -0.20353583
Si      14.51937515       8.08854021       5.77122755
Si      16.37314790       8.52987762       5.77122755
Si      15.06405211       9.91462321       5.77122755
Si      10.67095640       1.01300090       1.95425016
Si      14.21238181       8.73481888       1.95425016
Si       5.75437857       7.94087425       1.95425016
Si      15.31885839       8.84434701       0.45120591
Si      15.31885839       8.84434701       3.80374249
20
Lattice="10.215362015848722 -7.408484297634478e-15 -3.263969012185996e-15 5.107681007924368 8.846763014579603 -1.1364188238270434e-14 5.107681007924366 2.9489210048598733 6.853253554977259" Properties=species:S:1:pos:R:3 unique_starting_index=8 config_type=initial n_minim_iter=2 stress="0.0015749727537139565 -1.6819315296327835e-18 8.166773766410758e-17 -1.6819315296327835e-18 0.0015749727537133827 4.1344797894282316e-17 8.166773766410758e-17 4.1344797894282316e-17 0.0018778385132958318" pbc="T T T"
Si      12.22241236       4.33375005       2.97916120
Si      10.56638022       8.41804457       2.97916120
Si       7.85729348       4.94173141       2.97916120
Si       7.07853512       5.41650382       4.66166758
Si      12.20062657       3.42193932       4.66166758
Si      11.36692437       8.85508289       4.66166758
Si      10.26525577       2.99404894       5.73592771
Si      12.70517371       7.39294780       5.73592771
Si       7.67565658       7.30652929       5.73592771
Si       6.03971619       7.38627140      -0.20384973
Si      11.01416728       1.53741195      -0.20384973
Si      13.59220259       8.76984268      -0.20384973
Si      14.52320851       8.09066632       5.78074114
Si      16.37775923       8.53213435       5.78074114
Si      15.06816134       9.91748837       5.78074114
Si      10.67386464       1.01320591       1.95759729
Si      14.21632966       8.73723498       1.95759729
Si       5.75589176       7.94308514       1.95759729
Si      15.32304303       8.84676302       0.45177572
Si      15.32304303       8.84676302       3.80968046
20
Lattice="10.204168116994516 -9.635727212838356e-15 -3.3094363920783904e-15 5.102084058497266 8.837068813804464 -1.1311875063364146e-14 5.1020840584972635 2.945689604601494 6.859267647989255" Properties=species:S:1:pos:R:3 unique_starting_index=8 config_type=initial n_minim_iter=3 stress="-0.002175518904802672 7.695711763201191e-17 3.1788235228426545e-16 7.695711763201191e-17 -0.002175518904802764 3.1849199922914983e-16 3.1788235228426545e-16 3.1849199922914983e-16 0.00233576363588406" pbc="T T T"
Si      12.20917189       4.32917775       2.98197836
Si      10.55457239       8.40886414       2.98197836
Si       7.84876008       4.93609574       2.98197836
Si       7.07167722       5.41095239       4.66492556
Si      12.18647541       3.41877592       4.66492556
Si      11.35435174       8.84440932       4.66492556
Si      10.25427292       2.99057071       5.74111999
Si      12.69128957       7.38517549       5.74111999
Si       7.66694187       7.29839143       5.74111999
Si       6.03262078       7.37888105      -0.20389289
Si      11.00172741       1.53496232      -0.20389289
Si      13.57815617       8.76029426      -0.20389289
Si      14.50670287       8.08149655       5.78599792
Si      16.36037161       8.52242493       5.78599792
Si      15.05168206       9.90728496       5.78599792
Si      10.66198211       1.01139546       1.96026934
Si      14.20145102       8.72784963       1.96026934
Si       5.74907123       7.93489254       1.96026934
Si      15.30625218       8.83706881       0.45163328
Si      15.30625218       8.83706881       3.81115545
20
Lattice="10.212901101575095 -1.0879484880376184e-14 -3.2710418909714756e-15 5.1064505507875575 8.844631800302102 -1.1255533788148591e-14 5.106450550787554 2.9482106001007056 6.857219752451664" Properties=species:S:1:pos:R:3 unique_starting_index=8 config_type=initial n_minim_iter=4 stress="-0.0002775171658223702 -8.137608477907008e-16 4.278422897425943e-16 -8.137608477907008e-16 -0.0002775171658219572 -2.906249938681802e-17 4.278422897425943e-16 -2.906249938681802e-17 0.0006384442827240707" pbc="T T T"
Si      12.21990487       4.33316444       2.98143826
Si      10.56321930       8.41616583       2.98143826
Si       7.85557915       4.93993334       2.98143826
Si       7.07921621       5.41618527       4.66212108
Si      12.19564007       3.42268844       4.66212108
Si      11.36384704       8.85038989       4.66212108
Si      10.26354829       2.99295924       5.73969710
Si      12.70204933       7.39201393       5.73969710
Si       7.67310570       7.30429044       5.73969710
Si       6.03702665       7.38626325      -0.20365914
Si      11.01059727       1.53508682      -0.20365914
Si      13.59107939       8.76791354      -0.20365914
Si      14.51820718       8.08792823       5.78444303
Si      16.37524841       8.52917212       5.78444303
Si      15.06459938       9.91679505       5.78444303
Si      10.67095756       1.01143754       1.96105647
Si      14.21439283       8.73560156       1.96105647
Si       5.75335293       7.94222451       1.96105647
Si      15.31935166       8.84463180       0.45126146
Si      15.31935166       8.84463180       3.80741215
20
Lattice="10.217158386128423 -1.2778090919552078e-14 -3.2616649135497267e-15 5.108579193064223 8.848318716876422 -1.1241162356008246e-14 5.108579193064219 2.949439572292145 6.8613016033113325" Properties=species:S:1:pos:R:3 unique_starting_index=8 config_type=initial n_minim_iter=5 stress="-0.00027877476409926354 -3.752331761907735e-16 5.358633903554124e-16 -3.752331761907735e-16 -0.00027877476410180654 -3.6874841451327624e-16 5.358633903554124e-16 -3.6874841451327624e-16 -0.0018241642994961083" pbc="T T T"
Si      12.22690222       4.33798977       2.98383762
Si      10.56405632       8.41981305       2.98383762
Si       7.86051662       4.93883462       2.98383762
Si       7.08935445       5.42190912       4.65890334
Si      12.19412852       3.42860649       4.65890334
Si      11.36799220       8.84612183       4.65890334
Si      10.27143061       2.99393275       5.74468994
Si      12.70577966       7.39835347       5.74468994
Si       7.67426490       7.30435122       5.74468994
Si       6.03505360       7.39422827      -0.20416871
Si      11.01320046       1.52939559      -0.20416871
Si      13.60322111       8.77301358      -0.20416871
Si      14.52400481       8.09289843       5.78767170
Si      16.38081713       8.53170791       5.78767170
Si      15.07239081       9.92034981       5.78767170
Si      10.67599180       1.01006324       1.96372526
Si      14.22158045       8.74064849       1.96372526
Si       5.75390292       7.94592571       1.96372526
Si      15.32573758       8.84831872       0.45817489
Si      15.32573758       8.84831872       3.81171455
20
Lattice="10.235852500779364 -3.299015389007795e-14 -3.2173475059836415e-15 5.117926250389711 8.864508295065384 -1.1201180925423877e-14 5.117926250389695 2.9548360983551256 6.884149005796282" Properties=species:S:1:pos:R:3 unique_starting_index=8 config_type=initial n_minim_iter=6 stress="0.001128933547317008 -1.2042402341004696e-16 1.5412788208177808e-15 -1.2042402341004696e-16 0.0011289335473108426 -7.334369747220269e-17 1.5412788208177808e-15 -7.334369747220269e-17 -0.00842470247677707" pbc="T T T"
Si      12.26660829       4.38327925       2.98225164
Si      10.54236968       8.43155477       2.98225164
Si       7.89857954       4.91418257       2.98225164
Si       7.13571673       5.44729172       4.65136981
Si      12.18635363       3.45606610       4.65136981
Si      11.38548715       8.82565877       4.65136981
Si      10.32067928       2.99193388       5.77956913
Si      12.72027462       7.44200349       5.77956913
Si       7.66660362       7.29507921       5.77956913
Si       6.00726576       7.43326317      -0.22831541
Si      11.03067739       1.48581317      -0.22831541
Si      13.66961436       8.80994026      -0.22831541
Si      14.54511747       8.11913353       5.80331503
Si      16.40362288       8.53687446       5.80331503
Si      15.11259591       9.93751690       5.80331503
Si      10.70577533       1.01205658       2.00161811
Si      14.24235064       8.76544511       2.00161811
Si       5.75943155       7.95151491       2.00161811
Si      15.35377875       8.86450830       0.49105121
Si      15.35377875       8.86450830       3.83673957
20
Lattice="10.306476352834277 -1.4088031196020175e-13 -2.430977756026165e-15 5.153238176417259 8.925670345057997 -1.0745735734212474e-14 5.153238176417179 2.975223448352627 7.058682663073887" Properties=species:S:1:pos:R:3 unique_starting_index=8 config_type=initial n_minim_iter=7 stress="0.006445053939357693 -9.628948984337284e-16 -2.2334104470096978e-15 -9.628948984337284e-16 0.0064450539393530095 -2.0840073409835674e-15 -2.2334104470096978e-15 -2.0840073409835674e-15 -0.012943220398646288" pbc="T T T"
Si      12.44706678       4.61337163       3.00750106
Si      10.39412229       8.47279022       3.00750106
Si       8.07824000       4.76517884       3.00750106
Si       7.34537042       5.53114871       4.63575505
Si      12.15015221       3.59570303       4.63575505
Si      11.42390644       8.72448896       4.63575505
Si      10.55137526       2.96483634       6.02302655
Si      12.76964149       7.65534085       6.02302655
Si       7.59841231       7.23116350       6.02302655
Si       5.83114934       7.60981200      -0.38590764
Si      11.10708753       1.24501746      -0.38590764
Si      13.98119220       8.99651124      -0.38590764
Si      14.59868572       8.22055348       5.94062675
Si      16.50087806       8.53255596       5.94062675
Si      15.27957982      10.02390160       5.94062675
Si      10.81978403       0.99490809       2.19983221
Si      14.34144502       8.87275378       2.19983221
Si       5.75820003       7.98367882       2.19983221
Si      15.45971453       8.92567035       0.73095488
Si      15.45971453       8.92567035       4.00994348
20
Lattice="10.311210894499862 -1.4804011658596027e-13 -2.1313326400001035e-15 5.155605447250058 8.929770578415663 -1.0769091268517213e-14 5.155605447249972 2.976590192805182 7.068958460275871" Properties=species:S:1:pos:R:3 unique_starting_index=8 config_type=initial n_minim_iter=8 stress="0.0036839559527034457 -1.1795974144129293e-15 -2.2174662330212556e-15 -1.1795974144129293e-15 0.0036839559526991666 -2.196669288004465e-15 -2.2174662330212556e-15 -2.196669288004465e-15 -0.012619982860341451" pbc="T T T"
Si      12.45830117       4.62690001       3.00925388
Si      10.38625827       8.47575530       3.00925388
Si       8.08907326       4.75688586       3.00925388
Si       7.35796985       5.53590526       4.63450763
Si      12.14920229       3.60423617       4.63450763
Si      11.42646056       8.71939973       4.63450763
Si      10.56557717       2.96355076       6.03740878
Si      12.77312297       7.66828286       6.03740878
Si       7.59493255       7.22770754       6.03740878
Si       5.82087875       7.62112862      -0.39469651
Si      11.11189143       1.23046456      -0.39469651
Si      14.00086251       9.00794799      -0.39469651
Si      14.60303303       8.22711062       5.94905657
Si      16.50722938       8.53304226       5.94905657
Si      15.29018663      10.02915886       5.94905657
Si      10.82687235       0.99382755       2.21098311
Si      14.34830571       8.87943273       2.21098311
Si       5.75845463       7.98628088       2.21098311
Si      15.46681635       8.92977058       0.74419734
Si      15.46681635       8.92977058       4.02011547
20
Lattice="10.404907280554763 -1.7951718555651082e-13 -1.7273350051553956e-15 5.202453640277537 9.01091402898199 -1.043425796770975e-14 5.202453640277433 3.003638009660613 7.124136588100071" Properties=species:S:1:pos:R:3 unique_starting_index=8 config_type=initial n_minim_iter=9 stress="-0.0075469795388923575 -2.0360533581148124e-15 -3.445844791606282e-16 -2.0360533581148124e-15 -0.007546979538900271 -1.9808588385108387e-15 -3.445844791606282e-16 -1.9808588385108387e-15 -0.0015671971151778252" pbc="T T T"
Si      12.59176416       4.70757092       3.04342510
Si      10.43705648       8.55100218       3.04342510
Si       8.18590121       4.76325496       3.04342510
Si       7.44428873       5.54889024       4.62666776
Si      12.28219030       3.67249803       4.62666776
Si      11.48824283       8.80043979       4.62666776
Si      10.69968980       2.98000752       6.10751903
Si      12.87920746       7.77619942       6.10751903
Si       7.63582460       7.26562113       6.10751903
Si       5.81501712       7.71741612      -0.40486073
Si      11.21882760       1.17724448      -0.40486073
Si      14.18087714       9.12716746      -0.40486073
Si      14.74233516       8.31962105       6.02218301
Si      16.63855109       8.60742624       6.02218301
Si      15.44119652      10.10569481       6.02218301
Si      10.90718380       0.96331630       2.21476217
Si      14.52196628       8.96424010       2.21476217
Si       5.78557178       8.09427166       2.21476217
Si      15.60736092       9.01091403       0.75078119
Si      15.60736092       9.01091403       4.06338652
20
Lattice="10.41298986161758 -1.824633482207581e-13 -1.3187564431868054e-15 5.2064949308089465 9.017913749510534 -1.056034638345865e-14 5.206494930808842 3.0059712498367923 7.104265856233712" Properties=species:S:1:pos:R:3 unique_starting_index=8 config_type=initial n_minim_iter=10 stress="-0.008087819339518017 -2.7788333556630037e-15 -6.159890795544517e-16 -2.7788333556630037e-15 -0.008087819339522939 -2.0358753498636694e-15 -6.159890795544517e-16 -2.0358753498636694e-15 0.00012916523626842313" pbc="T T T"
Si      12.59852068       4.71313001       3.05250347
Si      10.44502907       8.55407395       3.05250347
Si       8.19541985       4.76862354       3.05250347
Si       7.44308878       5.53276445       4.60307955
Si      12.31292077       3.67952174       4.60307955
Si      11.48296005       8.82354132       4.60307955
Si      10.72173740       2.97475814       6.07993801
Si      12.88889491       7.79791789       6.07993801
Si       7.62833729       7.26315147       6.07993801
Si       5.81031035       7.71458640      -0.38838573
Si      11.23979676       1.17458316      -0.38838573
Si      14.18886249       9.14665794      -0.38838573
Si      14.75278043       8.32715697       6.02435215
Si      16.65104990       8.61270415       6.02435215
Si      15.45462406      10.11388014       6.02435215
Si      10.91331384       0.97377623       2.18503806
Si      14.52600785       8.96431891       2.18503806
Si       5.79964790       8.09773236       2.18503806
Si      15.61948480       9.01791375       0.70715420
Si      15.61948480       9.01791375       4.07227616
20
Lattice="10.564212732589183 -2.1820977654029058e-13 -3.400563801262818e-16 5.282106366294778 9.148876597405142 -1.0564408664673357e-14 5.282106366294652 3.0496255324683172 7.09462431751024" Properties=species:S:1:pos:R:3 unique_starting_index=8 config_type=initial n_minim_iter=11 stress="0.013128710726341744 -4.230037236661948e-15 3.893110518290725e-16 -4.230037236661948e-15 0.013128710726335185 -1.2266588555268699e-15 3.893110518290725e-16 -1.2266588555268699e-15 0.019152735860442346" pbc="T T T"
Si      12.80592250       4.87296621       3.06051665
Si      10.50535169       8.65377109       3.06051665
Si       8.38136402       4.77101589       3.06051665
Si       7.58171808       5.59852482       4.54656122
Si      12.48910172       3.76669805       4.54656122
Si      11.62181842       8.93253033       4.54656122
Si      10.99461898       2.98239328       6.05129510
Si      13.04828764       8.03042270       6.05129510
Si       7.64973160       7.28493722       6.05129510
Si       5.81444788       7.80767250      -0.37942656
Si      11.45955880       1.13162332      -0.37942656
Si      14.41863152       9.35845738      -0.37942656
Si      14.97034398       8.48673858       6.07556779
Si      16.85773500       8.72132890       6.07556779
Si      15.71087832      10.23856231       6.07556779
Si      11.05300570       0.97558499       2.16074068
Si      14.75704124       9.08439123       2.16074068
Si       5.88259127       8.23777698       2.16074068
Si      15.84631910       9.14887660       0.69779107
Si      15.84631910       9.14887660       4.11119863
20
Lattice="10.606613262366883 -2.3616405579129093e-13 -7.253649262655779e-17 5.303306631183641 9.185596533326539 -1.0931319849787703e-14 5.303306631183506 3.0618655111087776 7.063420391451801" Properties=species:S:1:pos:R:3 unique_starting_index=8 config_type=initial n_minim_iter=12 stress="0.027103831494165974 -5.32262020358036e-15 1.7144424853335945e-15 -5.32262020358036e-15 0.027103831494159777 -6.851325715069019e-16 1.7144424853335945e-15 -6.851325715069019e-16 0.019420827885448765" pbc="T T T"
Si      12.86874744       4.95649233       3.04796595
Si      10.48640454       8.66641602       3.04796595
Si       8.46468783       4.74828471       3.04796595
Si       7.63291400       5.61825184       4.49503927
Si      12.53122071       3.80117150       4.49503927
Si      11.65570509       8.95176972       4.49503927
Si      11.11602647       2.96805929       6.00930105
Si      13.08479855       8.14273167       6.00930105
Si       7.61901477       7.26040211       6.00930105
Si       5.79815913       7.81914562      -0.36590318
Si      11.54256822       1.11178029      -0.36590318
Si      14.47911245       9.44026715      -0.36590318
Si      15.01822374       8.53961072       6.08821457
Si      16.91520810       8.73635792       6.08821457
Si      15.79632785      10.28082097       6.08821457
Si      11.08602379       0.98237945       2.13609206
Si      14.81944908       9.10958850       2.13609206
Si       5.91436693       8.27922512       2.13609206
Si      15.90991990       9.18559653       0.68739641
Si      15.90991990       9.18559653       4.13018925
20
Lattice="10.522250126323367 -2.475752923087396e-13 1.126009004020186e-15 5.261125063161895 9.112535914369925 -9.973462101805686e-15 5.261125063161756 3.03751197145657 7.015463448219944" Properties=species:S:1:pos:R:3 unique_starting_index=8 config_type=initial n_minim_iter=13 stress="0.011402185755239672 -5.1425974660193275e-15 2.322908353042591e-15 -5.1425974660193275e-15 0.011402185755232679 -2.7802938734549273e-16 2.322908353042591e-15 -2.7802938734549273e-16 0.015116045778088687" pbc="T T T"
Si      12.77984321       5.01462136       3.02395537
Si      10.31178917       8.56035819       3.02395537
Si       8.47511801       4.65009228       3.02395537
Si       7.60197363       5.57072959       4.41545085
Si      12.41912010       3.79813748       4.41545085
Si      11.54565666       8.85620476       4.41545085
Si      11.14369994       2.91171604       5.94145881
Si      12.95103023       8.19486922       5.94145881
Si       7.47202022       7.11848658       5.94145881
Si       5.73862092       7.71254120      -0.34232763
Si      11.49593319       1.11352090      -0.34232763
Si      14.33219628       9.39900973      -0.34232763
Si      14.87735090       8.50639649       6.11003946
Si      16.76131948       8.63096557       6.11003946
Si      15.71145520      10.20024568       6.11003946
Si      10.97843991       1.00655301       2.10456874
Si      14.68357983       9.00433135       2.10456874
Si       5.90473065       8.21418747       2.10456874
Si      15.78337519       9.11253592       0.67138339
Si      15.78337519       9.11253592       4.15008306
20
Lattice="10.51093445024049 -2.763098247040015e-13 1.7566005744814694e-15 5.255467225120483 9.102736251421147 -9.270577579576441e-15 5.2554672251203245 3.0342454171403 6.981321252120062" Properties=species:S:1:pos:R:3 unique_starting_index=8 config_type=initial n_minim_iter=14 stress="0.003249406557295077 -4.050744929001131e-15 1.263157577908847e-15 -4.050744929001131e-15 0.0032494065572913327 -5.982709895634177e-16 1.263157577908847e-15 -5.982709895634177e-16 0.01922844602312235" pbc="T T T"
Si      12.80366658       5.12410737       2.99294914
Si      10.18242846       8.52624684       2.99294914
Si       8.54670832       4.55511830       2.99294914
Si       7.64750541       5.55636237       4.32919842
Si      12.38616523       3.84475278       4.32919842
Si      11.49913272       8.80435736       4.32919842
Si      11.24801067       2.86700152       5.91230199
Si      12.91496742       8.30756222       5.91230199
Si       7.36982527       7.03090876       5.91230199
Si       5.70791862       7.69709643      -0.34196226
Si      11.50202855       1.09465431      -0.34196226
Si      14.32285619       9.41372176      -0.34196226
Si      14.82401111       8.53912337       6.12733349
Si      16.72570004       8.56840852       6.12733349
Si      15.74949389      10.20067686       6.12733349
Si      10.94703958       1.01778160       2.10965696
Si      14.66692440       8.97152357       2.10965696
Si       5.91883938       8.21616734       2.10965696
Si      15.76640168       9.10273625       0.66584514
Si      15.76640168       9.10273625       4.19286181
20
Lattice="10.480413981877286 -3.040378677053101e-13 2.0267562519908204e-15 5.240206990938901 9.076304750483205 -9.101014465349683e-15 5.24020699093873 3.0254349168276398 6.824582362518892" Properties=species:S:1:pos:R:3 unique_starting_index=8 config_type=initial n_minim_iter=15 stress="0.0025859156430206023 -3.636780885302029e-15 6.350867976661707e-16 -3.636780885302029e-15 0.002585915643018457 -2.0308195653258708e-15 6.350867976661707e-16 -2.0308195653258708e-15 0.011922293813591294" pbc="T T T"
Si      12.84760654       5.30467943       2.88803835
Si       9.94303756       8.47401392       2.88803835
Si       8.65059786       4.37391616       2.88803835
Si       7.69622866       5.47983875       4.14009368
Si      12.36703407       3.92521016       4.14009368
Si      11.37797922       8.74756059       4.14009368
Si      11.44600490       2.77615907       5.75478215
Si      12.83360124       8.52445147       5.75478215
Si       7.16163582       6.85199896       5.75478215
Si       5.76456592       7.66128203      -0.31271749
Si      11.44368015       1.16161951      -0.31271749
Si      14.23299590       9.32970796      -0.31271749
Si      14.71173201       8.61309721       6.06957112
Si      16.62621496       8.43418505       6.06957112
Si      15.82391596      10.18163200       6.06957112
Si      10.84983924       1.03397612       2.08464284
Si      14.64045876       8.87924834       2.08464284
Si       5.95094396       8.23938504       2.08464284
Si      15.72062098       9.07630475       0.60286856
Si      15.72062098       9.07630475       4.23881095
20
Lattice="10.458018448700027 -3.1068290781049577e-13 2.1216706926341997e-15 5.229009224350279 9.056909649820392 -8.872723804314624e-15 5.229009224350103 3.0189698832733685 6.743795765751735" Properties=species:S:1:pos:R:3 unique_starting_index=8 config_type=initial n_minim_iter=16 stress="-0.014559963085539399 -2.3858118754480462e-15 1.8839792807266482e-15 -2.3858118754480462e-15 -0.014559963085543647 -6.704178275964658e-16 1.8839792807266482e-15 -6.704178275964658e-16 0.008622933539871862" pbc="T T T"
Si      12.85235934       5.36174567       2.84096875
Si       9.84644928       8.44959685       2.84096875
Si       8.67524674       4.30247678       2.84096875
Si       7.71070865       5.42093383       4.05561390
Si      12.36601617       3.96720265       4.05561390
Si      11.29733054       8.72568282       4.05561390
Si      11.54098998       2.74155782       5.68336452
Si      12.77128320       8.62401160       5.68336452
Si       7.06178218       6.74824989       5.68336452
Si       5.81674229       7.64465403      -0.31012652
Si      11.38720117       1.21511958      -0.31012652
Si      14.17011190       9.25404570      -0.31012652
Si      14.65682735       8.64848650       6.01775756
Si      16.55583267       8.36894158       6.01775756
Si      15.84842301      10.15330088       6.01775756
Si      10.79475958       1.03172108       2.07352577
Si      14.62516045       8.83267549       2.07352577
Si       5.95413532       8.24942274       2.07352577
Si      15.68702768       9.05690965       0.56360352
Si      15.68702768       9.05690965       4.27825237
20
Lattice="10.501288421741458 -2.866209366399433e-13 2.3758497790042794e-15 5.250644210870975 9.09438254569535 -8.750996780361675e-15 5.2506442108708145 3.0314608485650303 6.689282305312967" Properties=species:S:1:pos:R:3 unique_starting_index=8 config_type=initial n_minim_iter=17 stress="-0.026007948169517164 -1.7316362292723105e-15 1.1494152605270326e-15 -1.7316362292723105e-15 -0.026007948169523457 -1.4114576655348722e-15 1.1494152605270326e-15 -1.4114576655348722e-15 -0.02900798444086839" pbc="T T T"
Si      12.89323312       5.31301377       2.82257179
Si       9.95475539       8.50936053       2.82257179
Si       8.65587676       4.36639079       2.82257179
Si       7.71772451       5.41203823       4.06887495
Si      12.45675200       3.97772637       4.06887495
Si      11.32938877       8.79900050       4.06887495
Si      11.56104293       2.77408442       5.65196450
Si      12.81962780       8.62511466       5.65196450
Si       7.12319454       6.78956601       5.65196450
Si       5.91659855       7.70496366      -0.32107886
Si      11.37158331       1.27144282      -0.32107886
Si      14.21568342       9.21235861      -0.32107886
Si      14.72203918       8.70406232       5.91287276
Si      16.60490659       8.39762876       5.91287276
Si      15.92885213      10.18145655       5.91287276
Si      10.84040803       1.02201476       2.05702545
Si      14.69728209       8.87706136       2.05702545
Si       5.96617516       8.28968897       2.05702545
Si      15.75193264       9.09438255       0.54308062
Si      15.75193264       9.09438255       4.27248939
20
Lattice="10.64161195321127 -2.90124731389192e-13 2.8878105885359544e-15 5.320805976605882 9.215906288696939 -8.56460183044375e-15 5.32080597660572 3.071968762898893 6.715800308986919" Properties=species:S:1:pos:R:3 unique_starting_index=8 config_type=initial n_minim_iter=18 stress="0.014849455900477504 -2.228934498218248e-15 1.8923523857958506e-15 -2.228934498218248e-15 0.014849455900469564 -1.805790924468997e-15 1.8923523857958506e-15 -1.805790924468997e-15 -0.010489656458375955" pbc="T T T"
Si      13.06544608       5.34963537       2.85567316
Si      10.11758074       8.64019053       2.85567316
Si       8.74180905       4.44198668       2.85567316
Si       7.80125160       5.46078483       4.11389873
Si      12.65341973       4.02568966       4.11389873
Si      11.47016454       8.94533810       4.11389873
Si      11.74374787       2.81987892       5.70865975
Si      12.96926320       8.76044453       5.70865975
Si       7.21182480       6.85148913       5.70865975
Si       5.98746954       7.82740146      -0.34350075
Si      11.51076063       1.27160000      -0.34350075
Si      14.42660570       9.33281112      -0.34350075
Si      14.91764099       8.88519151       5.88695129
Si      16.77121381       8.47646031       5.88695129
Si      16.19839900      10.28606706       5.88695129
Si      10.99796344       1.02196371       2.04781803
Si      14.89919566       9.01353387       2.04781803
Si       6.02767678       8.39631500       2.04781803
Si      15.96241793       9.21590629       0.54304220
Si      15.96241793       9.21590629       4.29995042
20
Lattice="10.658874370900078 -2.921506833657054e-13 2.8607953251252324e-15 5.3294371854502876 9.230855980946183 -7.978716421872087e-15 5.329437185450125 3.0769519936486396 6.711727077232029" Properties=species:S:1:pos:R:3 unique_starting_index=8 config_type=initial n_minim_iter=19 stress="0.028020316508207143 -1.9913338749527173e-15 1.4715357181484102e-15 -1.9913338749527173e-15 0.028020316508198192 -2.4655086234311445e-15 1.4715357181484102e-15 -2.4655086234311445e-15 -0.009306658460646475" pbc="T T T"
Si      13.09178992       5.37182053       2.86816264
Si      10.11972074       8.65191239       2.86816264
Si       8.76511246       4.43797904       2.86816264
Si       7.78909210       5.45320650       4.13641595
Si      12.70058734       4.01894838       4.13641595
Si      11.48694369       8.98955708       4.13641595
Si      11.83982105       2.81561781       5.71916534
Si      12.95944167       8.84577690       5.71916534
Si       7.17736040       6.80031725       5.71916534
Si       5.99858087       7.83583559      -0.33273417
Si      11.53242564       1.27700562      -0.33273417
Si      14.44561662       9.34887076      -0.33273417
Si      14.90292049       8.97284481       5.87432796
Si      16.75445132       8.41988532       5.87432796
Si      16.30756287      10.29983781       5.87432796
Si      11.02002898       1.02960326       1.99632190
Si      14.91607168       9.02882341       1.99632190
Si       6.04052247       8.40328529       1.99632190
Si      15.98831156       9.23085598       0.53622768