20
Lattice="10.476248931395125 -2.6911806116913795e-13 3.3880780229497927e-15 5.238124465697796 9.072697710957623 -7.338860000263683e-15 5.238124465697637 3.0242325703191235 6.814555087650278" Properties=species:S:1:pos:R:3 unique_starting_index=8 config_type=initial n_minim_iter=1 energy=-3273.0771898175694 free_energy=-3273.0771898175694 pbc="T T T"
Si      12.84142752       5.23124048       2.94950040
Si      10.00139696       8.50538221       2.94950040
Si       8.58592233       4.40877273       2.94950040
Si       7.59112947       5.37442825       4.29025411
Si      12.50254174       3.88689684       4.29025411
Si      11.33507560       8.88407034       4.29025411
Si      11.65869810       2.77063696       5.86847153
Si      12.72370683       8.71141025       5.86847153
Si       7.04634188       6.66334822       5.86847153
Si       5.90222099       7.66280551      -0.33625127
Si      11.36520314       1.28007055      -0.33625127
Si      14.16132268       9.20251936      -0.33625127
Si      14.61296726       8.94970826       5.87799375
Si      16.37158846       8.18034674       5.87799375
Si      16.15856448      10.08803814       5.87799375
Si      10.86934822       1.02276587       1.96423823
Si      14.63208253       8.90174875       1.96423823
Si       5.92731605       8.22088080       1.96423823
Si      15.71437340       9.07269771       0.49475628
Si      15.71437340       9.07269771       4.27951149
20
Lattice="10.472979980519035 -2.6956653943875545e-13 3.466368835132586e-15 5.236489990259752 9.069866716455204 -7.28525669901456e-15 5.236489990259594 3.0232889054849843 6.7343129925819465" Properties=species:S:1:pos:R:3 unique_starting_index=8 config_type=initial n_minim_iter=2 stress="-0.017977670830767952 6.478896128217991e-16 3.9112358641537037e-16 6.478896128217991e-16 -0.017977670830768264 -3.6310828976447216e-17 3.9112358641537037e-16 -3.6310828976447216e-17 -0.008988115599563236" pbc="T T T"
Si      12.83716618       5.22912281       2.91502471
Si       9.99882369       8.50275062       2.91502471
Si       8.58295009       4.40786001       2.91502471
Si       7.58892847       5.37458226       4.24104695
Si      12.49697096       3.88491371       4.24104695
Si      11.33304052       8.88023747       4.24104695
Si      11.65456110       2.77129146       5.79745338
Si      12.71867061       8.70750025       5.79745338
Si       7.04570824       6.66094172       5.79745338
Si       5.90027207       7.66093915      -0.33178140
Si      11.36125601       1.27931592      -0.33178140
Si      14.15741188       9.19947836      -0.33178140
Si      14.60924290       8.94738038       5.80874610
Si      16.36565979       8.17828529       5.80874610
Si      16.15350723      10.08393448       5.80874610
Si      10.86598800       1.02208918       1.94139068
Si      14.62781077       8.89917706       1.94139068
Si       5.92514118       8.21846720       1.94139068
Si      15.70946997       9.06986672       0.48821337
Si      15.70946997       9.06986672       4.22861261
20
Lattice="10.553162608100013 -2.739220582730695e-13 3.609991906447949e-15 5.276581304050245 9.139306908882514 -7.47818032069823e-15 5.276581304050084 3.0464356362940865 6.683190507949667" Properties=species:S:1:pos:R:3 unique_starting_index=8 config_type=initial n_minim_iter=3 stress="0.012468381845486338 1.3746605200429304e-15 1.0436339258340031e-15 1.3746605200429304e-15 0.012468381845482898 5.837427651836046e-16 1.0436339258340031e-15 5.837427651836046e-16 -0.011182988220940509" pbc="T T T"
Si      12.93495458       5.26818069       2.89338100
Si      10.07646962       8.56790892       2.89338100
Si       8.64806363       4.44252421       2.89338100
Si       7.64728028       5.42020886       4.21210864
Si      12.58864651       3.91263456       4.21210864
Si      11.42356104       8.94577040       4.21210864
Si      11.74279444       2.79607367       5.74898765
Si      12.81345718       8.77152146       5.74898765
Si       7.10323622       6.71101870       5.74898765
Si       5.94519640       7.72057543      -0.32832466
Si      11.44751257       1.28840339      -0.32832466
Si      14.26677887       9.26963500      -0.32832466
Si      14.72251631       9.01684095       5.76531697
Si      16.48941635       8.24165265       5.76531697
Si      16.27729909      10.15942712       5.76531697
Si      10.94934009       1.02937826       1.92765342
Si      14.74018745       8.96771755       1.92765342
Si       5.96996029       8.28151802       1.92765342
Si      15.82974392       9.13930691       0.48104603
Si      15.82974392       9.13930691       4.19429526
20
Lattice="10.56423805815526 -2.810165307336093e-13 3.512942814107903e-15 5.282119029077875 9.148898529988701 -7.397975241365563e-15 5.28211902907771 3.0496328433294786 6.575918757556413" Properties=species:S:1:pos:R:3 unique_starting_index=8 config_type=initial n_minim_iter=4 stress="-0.0015684129785559686 2.8471303055645334e-15 -1.0427406122777469e-15 2.8471303055645334e-15 -0.0015684129785536209 -9.106088864191265e-16 -1.0427406122777469e-15 -9.106088864191265e-16 -0.028177461283153574" pbc="T T T"
Si      12.93972994       5.26277078       2.85423953
Si      10.10091796       8.57474946       2.85423953
Si       8.65206628       4.46027683       2.85423953
Si       7.65837335       5.49035665       4.19082599
Si      12.54450111       3.88716754       4.19082599
Si      11.48983972       8.92027287       4.19082599
Si      11.74695977       2.84396671       5.59628084
Si      12.79204882       8.75118222       5.59628084
Si       7.15370560       6.70264813       5.59628084
Si       5.94696655       7.74300468      -0.31453841
Si      11.44935409       1.27872177      -0.31453841
Si      14.29639354       9.27607061      -0.31453841
Si      14.75609090       9.03907468       5.68527020
Si      16.48660043       8.25961224       5.68527020
Si      16.29637994      10.14800868       5.68527020
Si      10.95853925       1.01410513       1.91312707
Si      14.77096569       8.98332081       1.91312707
Si       5.96320924       8.30037112       1.91312707
Si      15.84635709       9.14889853       0.41382272
Si      15.84635709       9.14889853       4.09461802
20
Lattice="10.560614891728939 -2.8160123844926926e-13 3.4983205867557215e-15 5.280307445864715 9.145760775821365 -7.406344032418792e-15 5.2803074458645485 3.0485869252736997 6.583317602865154" Properties=species:S:1:pos:R:3 unique_starting_index=8 config_type=initial n_minim_iter=5 stress="0.0030242804659532728 2.7347189327382247e-15 7.192031100132916e-18 2.7347189327382247e-15 0.0030242804659534515 -1.3051780609335368e-15 7.192031100132916e-18 -1.3051780609335368e-15 -0.03086118873234363" pbc="T T T"
Si      12.92510631       5.24322845       2.86842328
Si      10.11790760       8.57185618       2.86842328
Si       8.63883078       4.47643692       2.86842328
Si       7.66903954       5.52194067       4.21292772
Si      12.50456912       3.88061273       4.21292772
Si      11.50823602       8.88896816       4.21292772
Si      11.73170637       2.85163254       5.57477481
Si      12.78579038       8.73413947       5.57477481
Si       7.16434794       6.70574954       5.57477481
Si       5.94396581       7.73902789      -0.31163880
Si      11.44705213       1.27811144      -0.31163880
Si      14.29082675       9.27438222      -0.31163880
Si      14.72848539       9.04111483       5.69869482
Si      16.48776687       8.23468509       5.69869482
Si      16.30651476      10.16148241       5.69869482
Si      10.94952786       0.99674334       1.90651368
Si      14.78326081       8.98419762       1.90651368
Si       5.94905602       8.31058060       1.90651368
Si      15.84092234       9.14576078       0.41982869
Si      15.84092234       9.14576078       4.08746990
20
Lattice="10.479309488577561 -2.767777539993798e-13 3.4446024799228505e-15 5.239654744289021 9.07534823122734 -7.376793306601086e-15 5.239654744288858 3.0251160770756944 6.717099859196819" Properties=species:S:1:pos:R:3 unique_starting_index=8 config_type=initial n_minim_iter=6 stress="0.009651620737491129 2.266705306499922e-15 -2.0471034132177583e-16 2.266705306499922e-15 0.009651620737492286 -1.1409348830676496e-15 -2.0471034132177583e-16 -1.1409348830676496e-15 0.01577912244209941" pbc="T T T"
Si      12.81220037       5.17597412       2.93993036
Si      10.06999372       8.50770393       2.93993036
Si       8.55573439       4.46701841       2.93993036
Si       7.63904362       5.49653344       4.29426125
Si      12.37895958       3.86733911       4.29426125
Si      11.41992527       8.78682391       4.29426125
Si      11.61621315       2.81386545       5.68456617
Si      12.71363345       8.65300296       5.68456617
Si       7.10808188       6.68382806       5.68456617
Si       5.89854129       7.67186368      -0.31824758
Si      11.36531950       1.27235476      -0.31824758
Si      14.17406769       9.20647802      -0.31824758
Si      14.61002437       8.98155638       5.81092472
Si      16.35466029       8.16187406       5.81092472
Si      16.19220804      10.08261425       5.81092472
Si      10.87190473       1.00909716       1.93444918
Si      14.64876284       8.91079710       1.93444918
Si       5.91726090       8.23080220       1.93444918
Si      15.71896424       9.07534823       0.43177624
Si      15.71896424       9.07534823       4.19476870
20
Lattice="10.435112401683282 -2.7504500163658494e-13 3.4192825001576102e-15 5.217556200841879 9.037072431203624 -7.349399438565222e-15 5.217556200841717 3.012357477067791 6.7601644184124865" Properties=species:S:1:pos:R:3 unique_starting_index=8 config_type=initial n_minim_iter=7 stress="-0.0038322421152819663 1.9450584036600523e-15 -6.079690677138875e-16 1.9450584036600523e-15 -0.003832242115277129 -5.959603650233916e-16 -6.079690677138875e-16 -5.959603650233916e-16 0.008616763824379776" pbc="T T T"
Si      12.75562827       5.13815653       2.95260757
Si      10.04263659       8.47761985       2.95260757
Si       8.50707236       4.45836848       2.95260757
Si       7.61959903       5.49828768       4.33599096
Si      12.29876848       3.84962248       4.33599096
Si      11.38696970       8.72623470       4.33599096
Si      11.55530816       2.80023736       5.71776722
Si      12.66749404       8.60707173       5.71776722
Si       7.08253502       6.66683577       5.71776722
Si       5.88374440       7.61947994      -0.33048086
Si      11.32968942       1.28573215      -0.33048086
Si      14.09190339       9.16893278      -0.33048086
Si      14.56157496       8.95731569       5.84963653
Si      16.26728679       8.13203599       5.84963653
Si      16.12914406      10.02186562       5.84963653
Si      10.82550798       1.01444115       1.93623195
Si      14.57893901       8.86794434       1.93623195
Si       5.90089022       8.19175937       1.93623195
Si      15.65266861       9.03707243       0.45697087
Si      15.65266861       9.03707243       4.24295143
20
Lattice="10.42601124832244 -2.7796402627887804e-13 3.3750174965883456e-15 5.21300562416146 9.029190601189391 -7.462826686717862e-15 5.213005624161296 3.0097302003963793 6.73162957832424" Properties=species:S:1:pos:R:3 unique_starting_index=8 config_type=initial n_minim_iter=8 stress="-0.0038178798881167717 1.5900934083114057e-15 -8.865999527730038e-16 1.5900934083114057e-15 -0.0038178798881154936 -9.28499052955029e-16 -8.865999527730038e-16 -9.28499052955029e-16 0.0008572630211272454" pbc="T T T"
Si      12.74552086       5.11973082       2.92915497
Si      10.04544512       8.47807944       2.92915497
Si       8.48706777       4.46057095       2.92915497
Si       7.62040258       5.50635603       4.32478791
Si      12.27317701       3.84628420       4.32478791
Si      11.38445417       8.70574097       4.32478791
Si      11.53015099       2.79284403       5.69957412
Si      12.66827313       8.58898165       5.69957412
Si       7.07960964       6.67655552       5.69957412
Si       5.88252093       7.61344195      -0.33459439
Si      11.31732790       1.28769159      -0.33459439
Si      14.07818492       9.15724767      -0.33459439
Si      14.53762504       8.96068007       5.83087507
Si      16.24904465       8.10961256       5.83087507
Si      16.13038093      10.01727917       5.83087507
Si      10.81382422       1.01979455       1.92832056
Si      14.56194241       8.85514921       1.92832056
Si       5.90226713       8.18343745       1.92832056
Si      15.63901688       9.02919060       0.44710143
Si      15.63901688       9.02919060       4.22477890
20
Lattice="10.431240923912071 -2.8572176600661443e-13 3.3870510972822025e-15 5.215620461956282 9.033719633103562 -7.444239353014594e-15 5.215620461956115 3.0112398777011 6.705687186263329" Properties=species:S:1:pos:R:3 unique_starting_index=8 config_type=initial n_minim_iter=9 stress="0.001358418755284161 -9.54427647274407e-17 -1.1442086356854384e-15 -9.54427647274407e-17 0.0013584187552891087 -1.970027044628238e-15 -1.1442086356854384e-15 -1.970027044628238e-15 -0.0025839775446184093" pbc="T T T"
Si      12.75343290       5.08791444       2.89805957
Si      10.07950224       8.50083966       2.89805957
Si       8.46078764       4.47868517       2.89805957
Si       7.64023449       5.52527788       4.31268482
Si      12.25733360       3.85399822       4.31268482
Si      11.39615469       8.68816317       4.31268482
Si      11.50848923       2.79422171       5.69652679
Si      12.68837026       8.56953317       5.69652679
Si       7.09686330       6.70368439       5.69652679
Si       5.89431097       7.62545121      -0.34076306
Si      11.31149191       1.29189743      -0.34076306
Si      14.08791991       9.15009063      -0.34076306
Si      14.54226223       8.99233170       5.82033475
Si      16.23500397       8.09780267       5.82033475
Si      16.16331797      10.01102453       5.82033475
Si      10.80782023       1.01494642       1.91533429
Si      14.57960236       8.85237367       1.91533429
Si       5.90630019       8.20011918       1.91533429
Si      15.64686139       9.03371963       0.43640077
Si      15.64686139       9.03371963       4.20969839
20
Lattice="10.390734268680342 -2.924747758375136e-13 3.3074112861827506e-15 5.195367134340424 8.998639840650542 -7.49718818650442e-15 5.195367134340252 2.9995466135500917 6.690688098810877" Properties=species:S:1:pos:R:3 unique_starting_index=8 config_type=initial n_minim_iter=10 stress="0.010531653664854748 -2.146694166343211e-15 -1.5646782226934196e-15 -2.146694166343211e-15 0.01053165366486345 -2.2638973952160217e-15 -1.5646782226934196e-15 -2.2638973952160217e-15 -0.009029028630135104" pbc="T T T"
Si      12.70197703       4.99657427       2.85774457
Si      10.10331978       8.50194765       2.85774457
Si       8.36690600       4.49875777       2.85774457
Si       7.63683517       5.54669383       4.32212160
Si      12.15947320       3.84034635       4.32212160
Si      11.37589445       8.61023951       4.32212160
Si      11.42773421       2.80110423       5.70746088
Si      12.64177401       8.49615602       5.70746088
Si       7.10269459       6.70001943       5.70746088
Si       5.89188366       7.60100763      -0.35190010
Si      11.25286101       1.30201710      -0.35190010
Si      14.02745815       9.09425495      -0.35190010
Si      14.48144561       9.01537806       5.82592517
Si      16.12393358       8.03361075       5.82592517
Si      16.15292502       9.94693071       5.82592517
Si      10.75427614       1.02834994       1.89873174
Si      14.51375330       8.79930137       1.89873174
Si       5.90417337       8.16962838       1.89873174
Si      15.58610141       8.99863984       0.41356173
Si      15.58610141       8.99863984       4.21219108
20
Lattice="10.294980968313205 -2.9193724210305815e-13 3.1386394117958992e-15 5.147490484156856 8.91571505003641 -7.636560722746776e-15 5.147490484156686 2.971905016678714 6.755938351013501" Properties=species:S:1:pos:R:3 unique_starting_index=8 config_type=initial n_minim_iter=11 stress="0.0139509866139702 -1.0560274425063673e-15 -2.152517257840282e-15 -1.0560274425063673e-15 0.013950986613978015 -1.0914420093218767e-15 -2.152517257840282e-15 -1.0914420093218767e-15 -0.0019412582265366113" pbc="T T T"
Si      12.58223726       4.87980428       2.85108930
Si      10.07280884       8.45663496       2.85108930
Si       8.22989681       4.49499086       2.85108930
Si       7.58666598       5.52872634       4.37787616
Si      12.00861149       3.80588229       4.37787616
Si      11.28966545       8.49682146       4.37787616
Si      11.28904308       2.79032235       5.79261347
Si      12.52895037       8.38143692       5.79261347
Si       7.06694947       6.65967084       5.79261347
Si       5.85998194       7.52212163      -0.36001922
Si      11.14562255       1.31383240      -0.36001922
Si      13.87933843       8.99547606      -0.36001922
Si      14.33852606       8.99107154       5.89285776
Si      15.92918352       7.92199205       5.89285776
Si      16.05970479       9.83408157       5.89285776
Si      10.64483276       1.03607541       1.89356261
Si      14.37027794       8.70065788       1.89356261
Si       5.86983222       8.09469681       1.89356261
Si      15.44247146       8.91571505       0.42219263
Si      15.44247146       8.91571505       4.27773693
20
Lattice="10.102867727715978 -2.908672400185289e-13 2.851347749240694e-15 5.051433863858239 8.749340103275863 -7.816981995221073e-15 5.051433863858072 2.916446701091864 6.902144917914643" Properties=species:S:1:pos:R:3 unique_starting_index=8 config_type=initial n_minim_iter=12 stress="0.004808271375726948 -2.6889434704293668e-15 -1.793628828579264e-15 -2.6889434704293668e-15 0.004808271375733866 -6.578481178831709e-16 -1.793628828579264e-15 -6.578481178831709e-16 -0.0006538081019987854" pbc="T T T"
Si      12.34086664       4.68035462       2.87077117
Si       9.98199614       8.34732670       2.87077117
Si       7.98574041       4.47099889       2.87077117
Si       7.47034761       5.47318784       4.48951683
Si      11.73064194       3.73291688       4.48951683
Si      11.10761364       8.29257549       4.48951683
Si      11.02507624       2.77091230       5.95386347
Si      12.29351690       8.16253995       5.95386347
Si       6.99001005       6.56522796       5.95386347
Si       5.77796152       7.37254625      -0.35346929
Si      10.93194236       1.31758833      -0.35346929
Si      13.59869931       8.80854563      -0.35346929
Si      14.05495201       8.90703230       6.02778074
Si      15.56741094       7.71842934       6.02778074
Si      15.84054184       9.62255868       6.02778074
Si      10.43416024       1.04730087       1.88225667
Si      14.08166618       8.51259740       1.88225667
Si       5.79277677       7.93878194       1.88225667
Si      15.15430160       8.74934010       0.43131976
Si      15.15430160       8.74934010       4.42965938
20
Lattice="9.935224833440751 -2.8537358602928436e-13 2.8369399045186307e-15 4.967612416720621 8.604157098069567 -7.557489863719817e-15 4.967612416720457 2.8680523660231017 7.071471709277608" Properties=species:S:1:pos:R:3 unique_starting_index=8 config_type=initial n_minim_iter=13 stress="-0.018109699012877928 -2.806826827694444e-15 -1.8432740543095342e-15 -2.806826827694444e-15 -0.01810969901286965 -1.2795183619521975e-15 -1.8432740543095342e-15 -1.2795183619521975e-15 0.003192013885787919" pbc="T T T"
Si      12.13140519       4.52933350       2.92064476
Si       9.88222921       8.24143833       2.92064476
Si       7.79204012       4.43754237       2.92064476
Si       7.35781078       5.41044008       4.60862233
Si      11.50596573       3.66683101       4.60862233
Si      10.94189801       8.13104311       4.60862233
Si      10.80925667       2.75390708       6.12288788
Si      12.08086784       7.98413733       6.12288788
Si       6.91554999       6.47026978       6.12288788
Si       5.69985192       7.24188799      -0.33345785
Si      10.74886474       1.31527256      -0.33345785
Si      13.35695785       8.65115365      -0.33345785
Si      13.80798745       8.81355098       6.17005207
Si      15.26892173       7.55129242       6.17005207
Si      15.63160258       9.44762790       6.17005207
Si      10.25392977       1.05483413       1.86873362
Si      13.82997163       8.35274660       1.86873362
Si       5.72177311       7.80073347       1.86873362
Si      14.90283725       8.60415710       0.44441481
Si      14.90283725       8.60415710       4.61155865
20
Lattice="9.9611441822568 -2.8134233398623357e-13 2.049969926092862e-15 4.98057209112864 8.626603912593815 -7.790239553005492e-15 4.980572091128478 2.8755346375311865 7.117737777417421" Properties=species:S:1:pos:R:3 unique_starting_index=8 config_type=initial n_minim_iter=14 stress="-0.02226615323328805 -2.4693816901379786e-16 -2.342962834024121e-15 -2.4693816901379786e-16 -0.022266153233283542 -1.9947339504397186e-15 -2.342962834024121e-15 -1.9947339504397186e-15 -0.01628099695792768" pbc="T T T"
Si      12.16172022       4.60016257       2.99245667
Si       9.85757061       8.23227738       2.99245667
Si       7.86414172       4.42076788       2.99245667
Si       7.33773937       5.38256804       4.61482710
Si      11.59197803       3.66338468       4.61482710
Si      10.95371516       8.20725511       4.61482710
Si      10.88404108       2.75600998       6.13359730
Si      12.09349318       8.04785108       6.13359730
Si       6.90589830       6.44934677       6.13359730
Si       5.68909351       7.26010640      -0.28344207
Si      10.79030504       1.29684630      -0.28344207
Si      13.40403401       8.69625513      -0.28344207
Si      13.85087706       8.78763589       6.18475648
Si      15.34767810       7.60139346       6.18475648
Si      15.62659366       9.49078240       6.18475648
Si      10.28839187       1.04412348       1.86037340
Si      13.87385498       8.38794698       1.86037340
Si       5.72118571       7.82113737       1.86037340
Si      14.94171628       8.62660391       0.43911205
Si      14.94171628       8.62660391       4.63388532
20
Lattice="9.96756976738323 -2.8267126170497646e-13 1.5866108268029497e-15 4.983784883691858 8.632168632547485 -8.355923589259891e-15 4.983784883691692 2.8773895441824076 7.13020654419762" Properties=species:S:1:pos:R:3 unique_starting_index=8 config_type=initial n_minim_iter=15 stress="-0.027846110776522492 -1.561103450274531e-14 -1.8962094919849363e-15 -1.561103450274531e-14 -0.027846110776516376 1.2328582413622002e-14 -1.8962094919849363e-15 1.2328582413622002e-14 -0.01724278927085818" pbc="T T T"
Si      12.16882660       4.60442254       3.00473494
Si       9.86317935       8.23630170       3.00473494
Si       7.87070336       4.42361303       3.00473494
Si       7.33959413       5.38935629       4.62539151
Si      11.59802302       3.66159682       4.62539151
Si      10.96509216       8.21338416       4.62539151
Si      10.88676562       2.76068347       6.14038393
Si      12.10093471       8.04787385       6.14038393
Si       6.91500898       6.45577994       6.14038393
Si       5.69288724       7.26847570      -0.27388160
Si      10.79401131       1.29594712      -0.27388160
Si      13.41581076       8.69991444      -0.27388160
Si      13.85642447       8.79174856       6.19436147
Si      15.36061948       7.60414131       6.19436147
Si      15.63702002       9.50061603       6.19436147
Si      10.29066373       1.04214226       1.85381722
Si      13.88728600       8.39090508       1.85381722
Si       5.72475958       7.83128992       1.85381722
Si      14.95135465       8.63216863       0.42013835
Si      14.95135465       8.63216863       4.64803390
20
Lattice="10.040434376693305 -2.9334986626178526e-13 1.6412200466573077e-15 5.020217188346905 8.695271235246832 -8.209177462073385e-15 5.0202171883467335 2.8984237450821864 7.130114406643708" Properties=species:S:1:pos:R:3 unique_starting_index=8 config_type=initial n_minim_iter=16 stress="0.029783916104583447 -1.1358316261196395e-14 -2.944082356970169e-15 -1.1358316261196395e-14 0.02978391610458694 6.875235373324444e-15 -2.944082356970169e-15 6.875235373324444e-15 0.014538829220628517" pbc="T T T"
Si      12.25552780       4.66214983       3.03717895
Si       9.91556467       8.28252349       3.03717895
Si       7.95021067       4.44586915       3.03717895
Si       7.38930741       5.44144598       4.63242040
Si      11.67378461       3.67860494       4.63242040
Si      11.05821113       8.27049156       4.63242040
Si      10.94437516       2.77900152       6.12019555
Si      12.20199526       8.08860615       6.12019555
Si       6.97493272       6.52293480       6.12019555
Si       5.74926335       7.31243573      -0.27522317
Si      10.87348198       1.32279025      -0.27522317
Si      13.49855781       8.75531649      -0.27522317
Si      13.94674651       8.83066315       6.19592630
Si      15.50035126       7.66290521       6.19592630
Si      15.73485693       9.59224536       6.19592630
Si      10.35313602       1.04229278       1.84388781
Si      14.00164873       8.44493241       1.84388781
Si       5.76651839       7.90331728       1.84388781
Si      15.06065157       8.69527124       0.38334208
Si      15.06065157       8.69527124       4.65519437
20
Lattice="9.985899732039814 -2.9771777468083944e-13 1.0997404926048044e-15 4.99294986602016 8.648042847590549 -8.184057328270237e-15 4.9929498660199885 2.882680949196758 7.1596973704664615" Properties=species:S:1:pos:R:3 unique_starting_index=8 config_type=initial n_minim_iter=17 stress="0.00945738307394 -1.407905105813359e-14 -3.645209842826214e-15 -1.407905105813359e-14 0.009457383073947537 9.283105492982024e-15 -3.645209842826214e-15 9.283105492982024e-15 0.017044839351763236" pbc="T T T"
Si      12.19202419       4.62692710       3.05308148
Si       9.86875096       8.24513912       3.05308148
Si       7.89692405       4.42401947       3.05308148
Si       7.34338016       5.42490732       4.65551428
Si      11.60200184       3.64710011       4.65551428
Si      11.01231721       8.22407827       4.65551428
Si      10.86241196       2.77844531       6.16394203
Si      12.13438927       8.01790205       6.16394203
Si       6.96089798       6.49973834       6.16394203
Si       5.73244186       7.27127977      -0.27296318
Si      10.80846554       1.32880039      -0.27296318
Si      13.41679181       8.69600554      -0.27296318
Si      13.86311421       8.78266497       6.23534034
Si      15.42013112       7.61447660       6.23534034
Si      15.65330348       9.54698698       6.23534034
Si      10.28691251       1.05118426       1.81428740
Si      13.91799094       8.38313543       1.81428740
Si       5.75279575       7.86176601       1.81428740
Si      14.97884960       8.64804285       0.37143815
Si      14.97884960       8.64804285       4.67184225
20
Lattice="9.935933620224361 -3.327168038852182e-13 3.95693056283208e-16 4.9679668101124665 8.604770925430014 -7.403312749771142e-15 4.967966810112271 2.868256975143234 7.023785802125766" Properties=species:S:1:pos:R:3 unique_starting_index=8 config_type=initial n_minim_iter=18 stress="-0.06098550912084723 -1.9518291430447128e-14 -3.0011769689165277e-15 -1.9518291430447128e-14 -0.06098550912084754 1.2176438572848072e-14 -3.0011769689165277e-15 1.2176438572848072e-14 -0.0019635367249668054" pbc="T T T"
Si      12.15651233       4.61500634       3.03245874
Si       9.79689835       8.22034532       3.03245874
Si       7.85439019       4.37419019       3.03245874
Si       7.23405961       5.46037930       4.59682752
Si      11.52601025       3.53468974       4.59682752
Si      11.04773101       8.21447281       4.59682752
Si      10.69697509       2.84510574       6.18276440
Si      12.05944586       7.84129930       6.18276440
Si       7.05137992       6.52313682       6.18276440
Si       5.76297649       7.21264757      -0.29050333
Si      10.74404297       1.38456025      -0.29050333
Si      13.30078141       8.61233403      -0.29050333
Si      13.76501868       8.67641413       6.16776652
Si      15.41129647       7.58264879       6.16776652
Si      15.53538615       9.55524985       6.16776652
Si      10.15284006       1.07661769       1.59729994
Si      13.86306894       8.25430856       1.59729994
Si       5.79189187       7.87861560       1.59729994
Si      14.90390043       8.60477093       0.18720572
Si      14.90390043       8.60477093       4.61521280
20
Lattice="9.927507074882943 -3.378309368905407e-13 3.8007327601335374e-16 4.963753537441763 8.597473323098203 -7.166377306679722e-15 4.963753537441565 2.8658244410326295 7.011703943430792" Properties=species:S:1:pos:R:3 unique_starting_index=8 config_type=initial n_minim_iter=19 stress="-0.06856204440152294 -2.2953640699213468e-14 -3.0444605229689274e-15 -2.2953640699213468e-14 -0.06856204440152522 1.2537985490827858e-14 -3.0444605229689274e-15 1.2537985490827858e-14 -0.01731472212882629" pbc="T T T"
Si      12.14865313       4.61070801       3.03564332
Si       9.78769732       8.21568822       3.03564332
Si       7.84617078       4.36855041       3.03564332
Si       7.21514083       5.46857516       4.59518831
Si      11.51151873       3.51420767       4.59518831
Si      11.05586168       8.21216382       4.59518831
Si      10.66930944       2.85647935       6.19337199
Si      12.04657576       7.81165334       6.19337199
Si       7.06663604       6.52681396       6.19337199
Si       5.76825271       7.19942669      -0.28794537
Si      10.73600140       1.39574003      -0.28794537
Si      13.27826713       8.59977993      -0.28794537
Si      13.74764446       8.66014158       6.16475102
Si      15.40879639       7.57573855       6.16475102
Si      15.51734100       9.55653984       6.16475102
Si      10.13030791       1.08125614       1.55674916
Si      13.85346492       8.23247593       1.55674916
Si       5.79874841       7.88121458       1.55674916
Si      14.89126062       8.59747332       0.15475635
Si      14.89126062       8.59747332       4.61611992
20