22
Lattice="12.520584170763875 1.1285683086402876 -1.422281722253118 -0.6823067055331111 10.594814628866217 -1.966518995858329 -8.272284429234372 -5.093625036737757 9.835796558404002" Properties=species:S:1:pos:R:3 unique_starting_index=18 config_type=initial n_minim_iter=1 energy=-3750.034341203546 free_energy=-3750.034341203546 pbc="T T T"
Si       3.90346506       8.66177776      -0.15641348
Si       0.79362610       0.71401659       6.65524947
Si      -5.63540494      -3.26935255       7.93185798
Si       2.53095154      -0.53424031       8.27280658
Si     -10.74540340      -0.49324461      10.62948417
Si       8.52989921       5.44727213       0.02152274
Si       5.51463227      -0.33690338       1.65311928
Si       0.04919093       1.88396495       7.57170243
Si       0.99590463      -0.80889970       8.92709000
Si      -0.89567502       1.08624548       4.56635459
Si       4.45443732       0.76781781       2.69044974
Si      -2.14023027       3.78985300       3.34482187
Si      -6.92167579      -2.40888561       5.53468873
Si       2.22088405       9.38822899       0.01525164
Si       9.67860112       3.44350119       1.59979557
Si       6.58462103       7.30537992      -4.35089498
Si       0.68842653      -1.82373327       0.48714448
Si       5.13698288      -1.96391576       5.80601330
Si       4.57704338       3.52183048       2.43563874
Si      -0.17876892       2.54938289       4.89189335
Si      -1.33831691       2.68631772       2.40902115
Si      -0.71532329       0.43704144       7.27362035
22
Lattice="12.49711235405697 1.1224064506544627 -1.4172532502034032 -0.6860256184599648 10.582607439340958 -1.9673502366292552 -8.252248404705362 -5.086424861869454 9.82453145875907" Properties=species:S:1:pos:R:3 unique_starting_index=18 config_type=initial n_minim_iter=2 stress="-0.009367792609285459 0.003087495376483083 0.0008429194755285088 0.003087495376483083 -0.010245658257494676 0.0008369136692778039 0.0008429194755285088 0.0008369136692778039 -0.01067777732278095" pbc="T T T"
Si       3.89285899       8.64954521      -0.15717704
Si       0.79392818       0.71149071       6.64864009
Si      -5.62148750      -3.26496281       7.92277667
Si       2.52902717      -0.53691861       8.26532665
Si     -10.72299991      -0.49087471      10.61595001
Si       8.51247167       5.43728768       0.02254344
Si       5.50525442      -0.33912710       1.65320450
Si       0.05071625       1.87938899       7.56324759
Si       0.99744338      -0.81043869       8.91833553
Si      -0.89326283       1.08431536       4.56124382
Si       4.44700289       0.76449452       2.68906794
Si      -2.13676799       3.78512238       3.33976745
Si      -6.90659714      -2.40448372       5.52756720
Si       2.21312572       9.37583188       0.01357131
Si       9.66072840       3.43520486       1.60023582
Si       6.56869430       7.29470717      -4.34625890
Si       0.68811782      -1.82193835       0.48738070
Si       5.13034499      -1.96509337       5.80223501
Si       4.56801521       3.51503351       2.43370171
Si      -0.17827063       2.54507047       4.88603431
Si      -1.33645756       2.68290797       2.40591068
Si      -0.71202463       0.43500437       7.26600576
22
Lattice="12.489287465040158 1.1098739219233813 -1.415950264942817 -0.6976671680296016 10.588351942507423 -1.9738698643094283 -8.240309428993132 -5.083960557980951 9.83218288096647" Properties=species:S:1:pos:R:3 unique_starting_index=18 config_type=initial n_minim_iter=3 stress="-0.01095966947049488 -0.0079802266807825 0.010003363870477277 -0.0079802266807825 -0.005857863845956385 -0.005628299240145464 0.010003363870477277 -0.005628299240145464 0.008624186698347944" pbc="T T T"
Si       3.88152958       8.64843918      -0.16039870
Si       0.79484623       0.70868343       6.65313497
Si      -5.61335954      -3.26366809       7.92842800
Si       2.53002743      -0.54464830       8.27200739
Si     -10.71568707      -0.48385049      10.62294126
Si       8.50240885       5.43083909       0.02142806
Si       5.50299508      -0.34589786       1.65572140
Si       0.05055640       1.87588025       7.56708766
Si       1.00042476      -0.81631125       8.92458318
Si      -0.89351200       1.08343623       4.56374954
Si       4.44482085       0.75908631       2.69225020
Si      -2.13868374       3.78755532       3.34007499
Si      -6.89954566      -2.40051595       5.53123839
Si       2.20205451       9.37705126       0.00960736
Si       9.65351901       3.42573601       1.60185041
Si       6.55660643       7.29220998      -4.35087147
Si       0.68999804      -1.82373582       0.48895488
Si       5.13131091      -1.97430904       5.80867999
Si       4.56214169       3.51026726       2.43485007
Si      -0.18007670       2.54428084       4.88753116
Si      -1.33812295       2.68384448       2.40701920
Si      -0.71135945       0.43211709       7.27136024
22
Lattice="12.488328353356636 1.1036701570252083 -1.4284518008108176 -0.7011438470319998 10.595932947839968 -1.9699926765499083 -8.247347185152343 -5.0820792152405225 9.830379632061769" Properties=species:S:1:pos:R:3 unique_starting_index=18 config_type=initial n_minim_iter=4 stress="-0.01168241569802905 -0.007503520020202289 -0.004088065102435051 -0.007503520020202289 -0.0019008989626729798 0.006618508026299457 -0.004088065102435051 0.006618508026299457 -0.007547957384748387" pbc="T T T"
Si       3.87654982       8.65170411      -0.16377396
Si       0.78810075       0.71125174       6.64457857
Si      -5.61980488      -3.26188570       7.92506207
Si       2.52013287      -0.54751825       8.25978051
Si     -10.72762152      -0.47628642      10.62653545
Si       8.49815713       5.43141983       0.01107636
Si       5.49992128      -0.34868611       1.64742645
Si       0.04144894       1.87659218       7.55725070
Si       0.99155057      -0.81732585       8.91189921
Si      -0.90047384       1.08469569       4.55968130
Si       4.44128434       0.75831625       2.68561127
Si      -2.14324334       3.79228676       3.33950854
Si      -6.90408964      -2.39803195       5.53304504
Si       2.19711258       9.38242281       0.00767506
Si       9.65014164       3.42378675       1.58918081
Si       6.55665972       7.29280280      -4.35189040
Si       0.69063099      -1.82559454       0.48795496
Si       5.12518111      -1.97832849       5.79664790
Si       4.55605850       3.51041441       2.42727459
Si      -0.18719207       2.54742727       4.88077004
Si      -1.34172251       2.68586162       2.40797683
Si      -0.72173576       0.43231500       7.26517367
22
Lattice="12.497231783043485 1.117324358263464 -1.4265765679045674 -0.6915605251959253 10.593858950504455 -1.9821232128748874 -8.255608191855735 -5.100251771449175 9.830952706918705" Properties=species:S:1:pos:R:3 unique_starting_index=18 config_type=initial n_minim_iter=5 stress="-0.0067088993317306255 0.002283794606999901 0.0021871764505031386 0.002283794606999901 -0.00555158239279415 -0.004809682380461356 0.0021871764505031386 -0.004809682380461356 -0.0076761082877801" pbc="T T T"
Si       3.88774041       8.65211389      -0.17323614
Si       0.79126932       0.70514344       6.64109796
Si      -5.62507320      -3.27560477       7.92403831
Si       2.52253911      -0.55591474       8.25776811
Si     -10.73353395      -0.49895281      10.62276323
Si       8.50886831       5.43854457       0.00525981
Si       5.50304061      -0.34481376       1.64818982
Si       0.04539682       1.86598805       7.55079303
Si       0.99361183      -0.82700480       8.90853901
Si      -0.90030679       1.07778414       4.55647531
Si       4.44607417       0.75995898       2.68568543
Si      -2.13907862       3.78538743       3.33344830
Si      -6.91035207      -2.41076205       5.53252037
Si       2.20830251       9.38128850      -0.00336818
Si       9.66102116       3.43057495       1.58631166
Si       6.56748672       7.30131330      -4.35694646
Si       0.68963305      -1.82506298       0.49051603
Si       5.12790645      -1.97985842       5.79810904
Si       4.56241170       3.51072185       2.42302302
Si      -0.18388321       2.54107569       4.87437232
Si      -1.33876533       2.68040099       2.40478377
Si      -0.72134078       0.42172923       7.26209204
22
Lattice="12.50597380361304 1.1188455217443756 -1.4243191853750756 -0.6872252099009876 10.561523482543626 -1.9736330697044167 -8.261408565748717 -5.079444622350802 9.837083546607127" Properties=species:S:1:pos:R:3 unique_starting_index=18 config_type=initial n_minim_iter=6 stress="-0.006101579374815299 0.002331528206147827 0.002743247791179076 0.002331528206147827 -0.007417510247398456 0.00042543329443336356 0.002743247791179076 0.00042543329443336356 -0.0041157149148154555" pbc="T T T"
Si       3.89540551       8.62708340      -0.16303445
Si       0.79200473       0.71080699       6.64976927
Si      -5.62896639      -3.25979210       7.92704465
Si       2.52330270      -0.54681523       8.27047935
Si     -10.73773055      -0.49164447      10.63972632
Si       8.51442277       5.42838038       0.00936167
Si       5.50483655      -0.33809688       1.65062954
Si       0.04753473       1.86860624       7.56133719
Si       0.99627491      -0.81357192       8.91692507
Si      -0.90308860       1.07793348       4.56348461
Si       4.45273402       0.76629686       2.69618935
Si      -2.13383125       3.78170372       3.34454637
Si      -6.91762411      -2.40187591       5.53681007
Si       2.21675379       9.35610834       0.00623934
Si       9.67060524       3.42831115       1.59370818
Si       6.57693660       7.27913828      -4.35090590
Si       0.69041534      -1.82001749       0.49117706
Si       5.13213302      -1.96690539       5.80622424
Si       4.56521126       3.50559611       2.43100355
Si      -0.18411367       2.53949518       4.87993377
Si      -1.33255203       2.67334452       2.41192203
Si      -0.71811831       0.42516310       7.27100382
22
Lattice="12.518329897804158 1.1135657232693508 -1.4395293164946312 -0.6905812886776813 10.548413025231042 -1.9893528760036088 -8.277464881155646 -5.083650729261107 9.85054237084332" Properties=species:S:1:pos:R:3 unique_starting_index=18 config_type=initial n_minim_iter=7 stress="-0.0020544113532103116 0.0003896281367070337 -0.00047611782099692693 0.0003896281367070337 -0.006186577399324468 -0.0012241734205477544 -0.00047611782099692693 -0.0012241734205477544 -0.0032820574995757103" pbc="T T T"
Si       3.89627573       8.60819049      -0.18109474
Si       0.78364600       0.69530592       6.64149953
Si      -5.64176671      -3.26362278       7.93072514
Si       2.51372622      -0.56282252       8.26720766
Si     -10.75665774      -0.50333235      10.65309198
Si       8.51509316       5.41619484      -0.01389530
Si       5.50471198      -0.34080527       1.64319731
Si       0.03628002       1.85638846       7.55479014
Si       0.98636766      -0.82698131       8.91142259
Si      -0.91353585       1.06458323       4.56053877
Si       4.45732654       0.76352987       2.69624249
Si      -2.13508100       3.77366177       3.34007645
Si      -6.93307402      -2.40457607       5.54745216
Si       2.21777349       9.34064757      -0.01313438
Si       9.68026364       3.42014365       1.57490755
Si       6.58548781       7.27374152      -4.36442099
Si       0.69314918      -1.81979564       0.49596903
Si       5.13159374      -1.97783201       5.80277636
Si       4.56092163       3.49417701       2.41869520
Si      -0.19321961       2.52814368       4.86969761
Si      -1.33518084       2.66689674       2.41046979
Si      -0.72409287       0.40791383       7.26522165
22
Lattice="12.511985808387108 1.1191511995544263 -1.4361678011668753 -0.6874468249677699 10.559366139185109 -1.993071241201428 -8.27246907958257 -5.095531873067766 9.84495184732297" Properties=species:S:1:pos:R:3 unique_starting_index=18 config_type=initial n_minim_iter=8 stress="-0.00918923042321601 0.003930627920736093 0.004713447774208535 0.003930627920736093 0.006905835718941162 0.0013222827897030073 0.004713447774208535 0.0013222827897030073 -0.005111898344971375" pbc="T T T"
Si       3.89749825       8.61604402      -0.18374892
Si       0.78470788       0.69225263       6.63679583
Si      -5.63804984      -3.27146616       7.92398227
Si       2.51364969      -0.56676618       8.26372479
Si     -10.74916234      -0.51116571      10.64561895
Si       8.51176777       5.42471115      -0.01567936
Si       5.50050758      -0.33914184       1.64324143
Si       0.03860936       1.85518354       7.54943556
Si       0.98689377      -0.83305411       8.90664825
Si      -0.91353257       1.06143072       4.55763131
Si       4.45783215       0.76662116       2.69885355
Si      -2.12978955       3.77785016       3.33632123
Si      -6.93094848      -2.41183565       5.54415746
Si       2.22114640       9.35063635      -0.01754146
Si       9.67845899       3.42724700       1.57363085
Si       6.58416608       7.28606422      -4.36333108
Si       0.69326276      -1.82236376       0.49797245
Si       5.12982104      -1.98177591       5.80209063
Si       4.55838323       3.49829333       2.41654107
Si      -0.19198951       2.52757710       4.86575504
Si      -1.33260957       2.66837538       2.40652683
Si      -0.72077122       0.40288651       7.25881624
22
Lattice="12.554325589316278 1.1042288301741578 -1.4723451464782162 -0.697761191766923 10.523816470155543 -2.0306285757427265 -8.318747475493737 -5.102678705521505 9.874884401588371" Properties=species:S:1:pos:R:3 unique_starting_index=18 config_type=initial n_minim_iter=9 stress="0.0025705454101472664 -0.0016792049819394292 -0.002477067669309785 -0.0016792049819394292 0.0033524930024263007 -0.003909190015448602 -0.002477067669309785 -0.003909190015448602 -0.004828514402768387" pbc="T T T"
Si       3.90258072       8.56628714      -0.22722130
Si       0.76862505       0.65770668       6.62114298
Si      -5.67302993      -3.27894384       7.93122675
Si       2.49791620      -0.60216856       8.25127098
Si     -10.81529842      -0.53503761      10.66722046
Si       8.52952956       5.39464387      -0.06575214
Si       5.50500608      -0.34596644       1.62558081
Si       0.01619426       1.81599551       7.53230026
Si       0.96326479      -0.87462824       8.89688587
Si      -0.93903410       1.03214346       4.55322644
Si       4.47353655       0.75788776       2.69849209
Si      -2.14025536       3.76500261       3.32484701
Si      -6.97519675      -2.41644786       5.56836646
Si       2.22474408       9.30977524      -0.06450932
Si       9.70843716       3.40272155       1.52692488
Si       6.61005291       7.27098336      -4.40462719
Si       0.70122674      -1.82179143       0.50953483
Si       5.13313751      -2.00835614       5.79227384
Si       4.55214508       3.47048165       2.38618117
Si      -0.21153373       2.49125391       4.85232181
Si      -1.34371846       2.65133103       2.38896855
Si      -0.73868709       0.36509351       7.24166235
22
Lattice="12.578961091734131 1.1163764108381753 -1.485451756835799 -0.6804396147841641 10.446359656249074 -2.0363980641793313 -8.348459081356323 -5.079939005320564 9.908800115542881" Properties=species:S:1:pos:R:3 unique_starting_index=18 config_type=initial n_minim_iter=10 stress="0.0034563005894401727 0.0016019337020864507 -0.0008235827398136943 0.0016019337020864507 0.0013028748064751981 0.0023853572027920443 -0.0008235827398136943 0.0023853572027920443 0.004514690207864447" pbc="T T T"
Si       3.92667948       8.50047791      -0.23024397
Si       0.76839413       0.64775876       6.63768917
Si      -5.69323144      -3.26207355       7.94665370
Si       2.49052993      -0.59592817       8.27499499
Si     -10.84989903      -0.54872754      10.70685324
Si       8.55240566       5.37320533      -0.07568571
Si       5.50288579      -0.32938946       1.62431887
Si       0.01477307       1.80047841       7.55489403
Si       0.95683394      -0.87512898       8.91965398
Si      -0.95237305       1.01246674       4.56624650
Si       4.49086134       0.77008212       2.72195580
Si      -2.12804244       3.74607946       3.33588813
Si      -7.00609218      -2.41211663       5.59243541
Si       2.25279799       9.24691826      -0.07092152
Si       9.73775976       3.40152253       1.51919720
Si       6.63467193       7.23718021      -4.42156179
Si       0.70425816      -1.81217657       0.51763640
Si       5.13410621      -1.99181144       5.80855427
Si       4.55380584       3.45545608       2.38822332
Si      -0.20938562       2.46690201       4.86931335
Si      -1.34272928       2.63295539       2.39211753
Si      -0.74131482       0.35219650       7.25312053
22
Lattice="12.602212271749844 1.1102515271234505 -1.496367900495314 -0.685870976006115 10.428254326449565 -2.056891385977129 -8.36875921789877 -5.086407358192487 9.913751269156025" Properties=species:S:1:pos:R:3 unique_starting_index=18 config_type=initial n_minim_iter=11 stress="0.007447615516996895 -0.0002960572766539 -0.0007094974644484191 -0.0002960572766539 0.005012897071161433 0.0011098206373840907 -0.0007094974644484191 0.0011098206373840907 0.0029123511691271707" pbc="T T T"
Si       3.93183874       8.47276894      -0.25201551
Si       0.76660292       0.62404316       6.62631648
Si      -5.70681062      -3.26782461       7.94060433
Si       2.48322852      -0.61589472       8.26372472
Si     -10.88367117      -0.56402080      10.70012729
Si       8.56418336       5.35861079      -0.09324165
Si       5.50368464      -0.33138037       1.61755666
Si       0.00721382       1.77992211       7.54163526
Si       0.95475996      -0.89813814       8.90465039
Si      -0.96612753       0.99718257       4.55713106
Si       4.50349785       0.76655048       2.72664918
Si      -2.12750048       3.74111236       3.32311084
Si      -7.02994297      -2.41662892       5.59865914
Si       2.25821013       9.22672575      -0.09687147
Si       9.75406419       3.38902439       1.50099432
Si       6.64617648       7.23295181      -4.44082826
Si       0.71034889      -1.81381686       0.52556054
Si       5.13848204      -2.00754331       5.80327747
Si       4.55092336       3.44445124       2.37219002
Si      -0.21549016       2.44576559       4.85924079
Si      -1.34444164       2.62372502       2.38637097
Si      -0.74701824       0.33003729       7.23571188
22
Lattice="12.604616981782248 1.117253807360787 -1.5210510610271297 -0.676786141741146 10.412463093830969 -2.074582021791166 -8.388008300900346 -5.097762633224858 9.945048172247159" Properties=species:S:1:pos:R:3 unique_starting_index=18 config_type=initial n_minim_iter=12 stress="0.006092614960773495 0.000252929430027314 -0.0035429147871201684 0.000252929430027314 0.006756652496182317 0.00014423831072868316 -0.0035429147871201684 0.00014423831072868316 0.006307199566581553" pbc="T T T"
Si       3.93871904       8.45423782      -0.27257323
Si       0.75391183       0.60827644       6.62997124
Si      -5.72000677      -3.27691897       7.95767927
Si       2.46708569      -0.62922396       8.26580232
Si     -10.90440525      -0.58129401      10.72723339
Si       8.56785074       5.35072252      -0.11416144
Si       5.49350970      -0.32754710       1.61017903
Si      -0.00545507       1.76262049       7.54342379
Si       0.93762780      -0.91302744       8.91013237
Si      -0.97822504       0.98454531       4.55781657
Si       4.50419312       0.76735635       2.73091878
Si      -2.12641656       3.73504629       3.32240723
Si      -7.04659401      -2.42588506       5.62166950
Si       2.26817669       9.21279126      -0.11834577
Si       9.75507681       3.39058460       1.48065904
Si       6.65666304       7.23555915      -4.46949945
Si       0.71225122      -1.81496347       0.53155127
Si       5.12544054      -2.01411127       5.80461385
Si       4.54308974       3.44257988       2.35979759
Si      -0.22166384       2.43064276       4.86132781
Si      -1.34416536       2.61226253       2.39083500
Si      -0.75655607       0.31511549       7.23678036
22
Lattice="12.624451834019512 1.1166818349842405 -1.5130304048621377 -0.6773428489748957 10.389631613327214 -2.072733596448169 -8.39657701484842 -5.086842575170091 9.936129623708332" Properties=species:S:1:pos:R:3 unique_starting_index=18 config_type=initial n_minim_iter=13 stress="0.009209308969996012 0.00026655044636570417 -0.0006917350585143019 0.00026655044636570417 0.005015003482144399 0.0021564429735753824 -0.0006917350585143019 0.0021564429735753824 0.004982046593626447" pbc="T T T"
Si       3.94836484       8.43226547      -0.26888937
Si       0.75955195       0.60492146       6.62557643
Si      -5.72308711      -3.26946470       7.94813482
Si       2.47567266      -0.62873633       8.26369520
Si     -10.91696118      -0.57837965      10.71697738
Si       8.58497118       5.33668862      -0.10651565
Si       5.49773587      -0.32370974       1.61339538
Si      -0.00138007       1.76058893       7.53955798
Si       0.94373019      -0.90987247       8.90695717
Si      -0.97981107       0.98165558       4.55399183
Si       4.51695830       0.76941749       2.74098089
Si      -2.12504366       3.73260033       3.31992088
Si      -7.05967817      -2.42169126       5.61720561
Si       2.27705894       9.19457390      -0.11742484
Si       9.77431396       3.39022357       1.48615265
Si       6.66755263       7.22352950      -4.46471230
Si       0.71661032      -1.81442534       0.53415569
Si       5.13517200      -2.01081276       5.80652191
Si       4.54875916       3.44226491       2.36129769
Si      -0.21865778       2.42398210       4.86171386
Si      -1.34375834       2.60416294       2.39200114
Si      -0.75517179       0.31250566       7.23011476
22
Lattice="12.618045322213085 1.1249964803406804 -1.533140667514719 -0.6681502221920218 10.381434870911935 -2.0911294400198996 -8.407217062058182 -5.1032150788694635 9.96106037691303" Properties=species:S:1:pos:R:3 unique_starting_index=18 config_type=initial n_minim_iter=14 stress="0.004717147893714079 0.0006182951337585957 -0.002419203937480192 0.0006182951337585957 0.005559153053295358 -0.0005422633384971292 -0.002419203937480192 -0.0005422633384971292 0.006128343574129952" pbc="T T T"
Si       3.95366885       8.41899498      -0.28960506
Si       0.74671961       0.58984338       6.62118465
Si      -5.72828470      -3.28322057       7.96160849
Si       2.46108840      -0.64510305       8.26673186
Si     -10.92389304      -0.60355879      10.73787238
Si       8.58456694       5.33160094      -0.12363480
Si       5.48212751      -0.32054510       1.60881516
Si      -0.01246200       1.74465328       7.53521499
Si       0.93415630      -0.92475568       8.90809802
Si      -0.98682373       0.96941276       4.55475595
Si       4.51481214       0.76918323       2.74694691
Si      -2.12246982       3.73036773       3.31612351
Si      -7.07030430      -2.43370594       5.63674105
Si       2.28606300       9.18826063      -0.13961830
Si       9.76613818       3.39654853       1.46728358
Si       6.67479994       7.23027072      -4.48899569
Si       0.71997169      -1.81963435       0.54022345
Si       5.11911306      -2.02016909       5.80727357
Si       4.53893237       3.44944777       2.34831273
Si      -0.22202998       2.41235915       4.86006145
Si      -1.34607440       2.59506451       2.38889525
Si      -0.76719353       0.29611873       7.22932878
22
Lattice="12.645096586280998 1.119591543744468 -1.5204534622276864 -0.673693308839604 10.35903568904751 -2.0869182485496944 -8.416384758713933 -5.0882496268698585 9.942471146459095" Properties=species:S:1:pos:R:3 unique_starting_index=18 config_type=initial n_minim_iter=15 stress="0.007990139975919979 -0.0007525757467602372 0.0005707939920836852 -0.0007525757467602372 0.0032937792706678303 0.0019710333081190573 0.0005707939920836852 0.0019710333081190573 0.0015836674042738802" pbc="T T T"
Si       3.96399719       8.39353861      -0.28401209
Si       0.74973348       0.58516572       6.61236318
Si      -5.72970282      -3.27411634       7.94479465
Si       2.47634405      -0.64670544       8.26154840
Si     -10.93815348      -0.59682683      10.71858258
Si       8.60511057       5.31711976      -0.11240268
Si       5.48650859      -0.31850451       1.61415841
Si      -0.00745503       1.74013458       7.52545085
Si       0.94597902      -0.92519382       8.89454251
Si      -0.98592828       0.96834882       4.54853401
Si       4.53115839       0.77007543       2.76091204
Si      -2.11939275       3.72935650       3.31035582
Si      -7.08719164      -2.42680056       5.62777781
Si       2.29429299       9.17091952      -0.13774169
Si       9.78654963       3.39522451       1.47575939
Si       6.68620400       7.21561370      -4.47821597
Si       0.72866394      -1.82353653       0.54308691
Si       5.13315439      -2.02000850       5.80701197
Si       4.54569315       3.45670381       2.34907169
Si      -0.21805971       2.40858323       4.85291290
Si      -1.35102671       2.59155085       2.38494822
Si      -0.76361967       0.29510497       7.21866237
22
Lattice="12.639468529797353 1.1322343594659263 -1.5428581587376426 -0.6583792570016487 10.335243150525596 -2.0988415128208415 -8.430936403593861 -5.094364904174748 9.97700179677014" Properties=species:S:1:pos:R:3 unique_starting_index=18 config_type=initial n_minim_iter=16 stress="0.0016569523179112066 0.0016057620242830816 -0.0021661397772688748 0.0016057620242830816 0.001111913725754229 0.0013175186046955102 -0.0021661397772688748 0.0013175186046955102 0.0053158144451814476" pbc="T T T"
Si       3.97537688       8.36874019      -0.29817319
Si       0.73667753       0.56978705       6.61935596
Si      -5.73649794      -3.28164762       7.96634901
Si       2.46569428      -0.65480226       8.27336992
Si     -10.94867953      -0.61791809      10.75321130
Si       8.61049015       5.31239879      -0.13204663
Si       5.46655178      -0.31062046       1.61276488
Si      -0.01756085       1.72643625       7.53684718
Si       0.93012848      -0.93328594       8.90343527
Si      -0.99162643       0.96161435       4.55469536
Si       4.52893853       0.77474776       2.77596645
Si      -2.11024592       3.72296663       3.31670770
Si      -7.10163974      -2.43548014       5.65516094
Si       2.31020232       9.15520855      -0.15298200
Si       9.77724305       3.40579866       1.46347362
Si       6.69966130       7.21413714      -4.50499711
Si       0.73438621      -1.83051550       0.54881634
Si       5.11465128      -2.02121275       5.81432175
Si       4.53630126       3.47391078       2.34107226
Si      -0.22335543       2.39955693       4.85342462
Si      -1.35520472       2.58227324       2.38648224
Si      -0.77625936       0.28165117       7.23149806
22
Lattice="12.655088730009641 1.123283732778969 -1.534472993461201 -0.6681426338952707 10.328165069429877 -2.104644649683551 -8.433354599407174 -5.092392920253175 9.958086498767543" Properties=species:S:1:pos:R:3 unique_starting_index=18 config_type=initial n_minim_iter=17 stress="0.0019959507723208243 -0.0004668917467928959 0.0005562416371810134 -0.0004668917467928959 0.0012886883156491816 0.0002763703836614052 0.0005562416371810134 0.0002763703836614052 -0.00039777811035213623" pbc="T T T"
Si       3.97731431       8.35193510      -0.30329171
Si       0.73801786       0.55752116       6.60682134
Si      -5.73500663      -3.28329221       7.94857983
Si       2.47571173      -0.66559583       8.25966303
Si     -10.95764758      -0.62077409      10.72337288
Si       8.62026703       5.30105046      -0.13620084
Si       5.46605747      -0.31428152       1.61554988
Si      -0.01408310       1.71511840       7.51993227
Si       0.93682948      -0.94224555       8.88374288
Si      -0.99216344       0.95612465       4.54109574
Si       4.53832957       0.77158063       2.78447501
Si      -2.10967944       3.72466155       3.30817805
Si      -7.11213627      -2.43431771       5.64633708
Si       2.31107895       9.14789368      -0.16212276
Si       9.78749317       3.40092791       1.46453511
Si       6.70251104       7.21031459      -4.50038606
Si       0.74384542      -1.83890435       0.55251628
Si       5.12428115      -2.03300801       5.80977342
Si       4.53679002       3.48263582       2.33404415
Si      -0.22161852       2.39600069       4.83749149
Si      -1.36087317       2.57657715       2.37704769
Si      -0.77562332       0.27188734       7.21681061
22
Lattice="12.653983671436183 1.1254280253868698 -1.5396641954268966 -0.6645145403033109 10.314265133393187 -2.1074163543931963 -8.436773150428527 -5.089617598707848 9.967346516696928" Properties=species:S:1:pos:R:3 unique_starting_index=18 config_type=initial n_minim_iter=18 stress="-0.0008827835955267723 0.000822287239385523 0.0003194780871792616 0.000822287239385523 -0.000598567522244247 0.0002649024480444417 0.0003194780871792616 0.0002649024480444417 0.0006005041903829499" pbc="T T T"
Si       3.98041361       8.33750591      -0.30593137
Si       0.73454269       0.55312799       6.60957020
Si      -5.73703393      -3.28355503       7.95410496
Si       2.47219914      -0.66651611       8.26257608
Si     -10.95739557      -0.62485555      10.72876282
Si       8.61877389       5.29744762      -0.14305963
Si       5.45929867      -0.31197826       1.61680198
Si      -0.01527576       1.70995459       7.52342634
Si       0.93412941      -0.94546998       8.88588329
Si      -0.99408572       0.95383844       4.54211556
Si       4.53751605       0.77412761       2.79215496
Si      -2.10714654       3.72177518       3.31117747
Si      -7.11673419      -2.43485469       5.65446627
Si       2.31613242       9.13745227      -0.16560894
Si       9.78662390       3.40314594       1.46330809
Si       6.70836756       7.20409839      -4.50658013
Si       0.74782942      -1.84297315       0.55426894
Si       5.12076557      -2.03324962       5.81370612
Si       4.53377695       3.49100295       2.33239369