8
Lattice="6.8000655385141595 -1.0411866654010339e-15 -4.883632102762121e-47 -3.400032769257079 5.88902950375237 4.064288949842291e-45 4.59603943233213e-47 -4.390132716275698e-45 6.399615839157466" Properties=species:S:1:pos:R:3:tags:I:1 spacegroup="P 1" unit_cell=conventional n_minim_iter=1 energy=-10084.089053027892 free_energy=-10084.089053027892 pbc="T T T"
Ti       3.40003278       3.23036757       1.59990396        0
Ti      -1.09755889       4.55970149       4.79971188        1
Ti       1.09755890       4.55970149       4.79971188        2
Ti       2.30247388       1.32933981       1.59990396        3
Ti       4.49759167       1.32933981       1.59990396        4
Ti       0.00000001       2.65867372       4.79971188        5
Al       0.00000001       3.92602556       1.59990396        6
Al       3.40003278       1.96301573       4.79971188        7
8
Lattice="6.807316509955628 -1.08030833691154e-15 -4.916532001901153e-47 -3.403658254977813 5.895309029222798 4.068068889312389e-45 4.56146204348527e-47 -4.381500851896204e-45 6.385989700936553" Properties=species:S:1:pos:R:3:tags:I:1 spacegroup="P 1" unit_cell=conventional n_minim_iter=2 stress="5.161291254479991 1.1002937847362958e-16 1.5212929987115043e-15 1.1002937847362958e-16 5.161291254479975 2.855456293482274e-15 1.5212929987115043e-15 2.855456293482274e-15 5.200884088033941" pbc="T T T"
Ti       3.40365826       3.23373667       1.59649742        0
Ti      -1.09866386       4.56452580       4.78949227        1
Ti       1.09866387       4.56452580       4.78949227        2
Ti       2.30499440       1.33079503       1.59649742        3
Ti       4.50232213       1.33079503       1.59649742        4
Ti       0.00000001       2.66158416       4.78949227        5
Al       0.00000001       3.93021192       1.59649742        6
Al       3.40365826       1.96510891       4.78949227        7
8
Lattice="6.80455912139805 -1.074624164949028e-15 -3.088667556870972e-47 -3.402279560699024 5.89292106068383 4.0481969711065894e-45 4.566305800883872e-47 -4.444507203611469e-45 6.391166295735388" Properties=species:S:1:pos:R:3:tags:I:1 spacegroup="P 1" unit_cell=conventional n_minim_iter=3 stress="5.167412445972012 -1.6214594969957219e-15 -7.046006113106766e-16 -1.6214594969957219e-15 5.1674124459719835 3.426699176036079e-16 -7.046006113106766e-16 3.426699176036079e-16 5.166057212720482" pbc="T T T"
Ti       3.40227957       3.22459319       1.59779157        0
Ti      -1.09143472       4.55876007       4.79337472        1
Ti       1.09143473       4.55876007       4.79337472        2
Ti       2.31084484       1.33417278       1.59779157        3
Ti       4.49371429       1.33417278       1.59779157        4
Ti       0.00000001       2.66833967       4.79337472        5
Al       0.00000001       3.92861994       1.59779157        6
Al       3.40227957       1.96431292       4.79337472        7
8
Lattice="6.804983255663067 -1.0715274282250917e-15 -3.316561852163466e-47 -3.4024916278315325 5.89328837173195 4.02109281394674e-45 4.566412459980863e-47 -4.40429040384505e-45 6.390369635981061" Properties=species:S:1:pos:R:3:tags:I:1 spacegroup="P 1" unit_cell=conventional n_minim_iter=4 stress="5.167536856486413 -1.0328503913384977e-14 -3.726924316080652e-15 -1.0328503913384977e-14 5.167536856486387 4.036389536702838e-15 -3.726924316080652e-15 4.036389536702838e-15 5.167453826824064" pbc="T T T"
Ti       3.40249163       3.22585572       1.59759241        0
Ti      -1.09242207       4.55957499       4.79277722        1
Ti       1.09242208       4.55957499       4.79277722        2
Ti       2.31006956       1.33372518       1.59759241        3
Ti       4.49491371       1.33372518       1.59759241        4
Ti       0.00000001       2.66744445       4.79277722        5
Al       0.00000001       3.92886481       1.59759241        6
Al       3.40249163       1.96443536       4.79277722        7
