8
Lattice="6.602385097939 -1.0193214790180972e-15 -8.318142495821875e-46 -3.3011925489695004 5.717833220382985 2.485030268427648e-46 6.997674319564976e-46 1.6261583125323158e-46 5.55428578807501" Properties=species:S:1:pos:R:3:tags:I:1 spacegroup="P 1" unit_cell=conventional n_minim_iter=1 energy=-10090.745137470494 free_energy=-10090.745137470494 pbc="T T T"
Ti       3.30119255       3.69988357       1.38857144        0
Ti      -1.55359192       4.70886125       4.16571434        1
Ti       1.55359193       4.70886125       4.16571434        2
Ti       1.74760063       1.00898341       1.38857144        3
Ti       4.85478448       1.00898341       1.38857144        4
Ti       0.00000001       2.01796110       4.16571434        5
Al       0.00000001       3.81189454       1.38857144        6
Al       3.30119255       1.90595013       4.16571434        7
8
Lattice="6.597296839885957 -1.0497345852802815e-15 -8.352931828826409e-46 -3.298648419942979 5.713426659648036 2.3998982577231916e-46 6.972034213056705e-46 1.522498423905355e-46 5.562856734227609" Properties=species:S:1:pos:R:3:tags:I:1 spacegroup="P 1" unit_cell=conventional n_minim_iter=2 stress="-4.470888854500929 -3.071626991527841e-14 5.2771994082904516e-15 -3.071626991527841e-14 -4.470888854500968 -4.259369867708382e-15 5.2771994082904516e-15 -4.259369867708382e-15 -4.1415244971420915" pbc="T T T"
Ti       3.29864843       3.69858596       1.39071418        0
Ti      -1.55374023       4.70600917       4.17214255        1
Ti       1.55374024       4.70600917       4.17214255        2
Ti       1.74490819       1.00742893       1.39071418        3
Ti       4.85238866       1.00742893       1.39071418        4
Ti       0.00000001       2.01485214       4.17214255        5
Al       0.00000001       3.80895682       1.39071418        6
Al       3.29864843       1.90448127       4.17214255        7
8
Lattice="6.698630088842559 -1.0166173979720824e-15 -8.955494747812221e-46 -3.34931504442128 5.801183827492463 1.9742329076191338e-46 7.016639762140149e-46 4.4443678857207876e-48 5.395825969130226" Properties=species:S:1:pos:R:3:tags:I:1 spacegroup="P 1" unit_cell=conventional n_minim_iter=3 stress="-1.7462246065021396 -1.495257494784843e-14 -3.791591798508445e-15 -1.495257494784843e-14 -1.7462246065022473 -9.65940515401887e-15 -3.791591798508445e-15 -9.65940515401887e-15 -1.611052076543733" pbc="T T T"
Ti       3.34931505       3.91772792       1.34895649        0
Ti      -1.71818935       4.85945878       4.04686947        1
Ti       1.71818936       4.85945878       4.04686947        2
Ti       1.63112570       0.94173666       1.34895649        3
Ti       5.06750440       0.94173666       1.34895649        4
Ti       0.00000001       1.88346752       4.04686947        5
Al       0.00000001       3.86746169       1.34895649        6
Al       3.34931505       1.93373375       4.04686947        7
8
Lattice="6.7070828952328245 -9.752256866330261e-16 -9.256376256918093e-46 -3.3535414476164127 5.808504172559706 1.6100808342490679e-46 7.285369961373651e-46 1.0675073226826066e-46 5.3822340298844304" Properties=species:S:1:pos:R:3:tags:I:1 spacegroup="P 1" unit_cell=conventional n_minim_iter=4 stress="-1.5249605789868539 -1.6371178123231755e-14 -1.4606238104857395e-15 -1.6371178123231755e-14 -1.5249605789869298 -2.6075655766671963e-15 -1.4606238104857395e-15 -2.6075655766671963e-15 -1.4335167186504782" pbc="T T T"
Ti       3.35354145       3.93563055       1.34555850        0
Ti      -1.73158027       4.87207027       4.03667552        1
Ti       1.73158029       4.87207027       4.03667552        2
Ti       1.62196117       0.93644553       1.34555850        3
Ti       5.08512173       0.93644553       1.34555850        4
Ti       0.00000001       1.87288525       4.03667552        5
Al       0.00000001       3.87234193       1.34555850        6
Al       3.35354145       1.93617387       4.03667552        7
8
Lattice="6.7088613993843165 -1.043960720644517e-15 -9.197988089592361e-46 -3.3544306996921582 5.810044402335635 2.1500394396376776e-46 7.421025195961315e-46 8.533775143994674e-47 5.379380771724617" Properties=species:S:1:pos:R:3:tags:I:1 spacegroup="P 1" unit_cell=conventional n_minim_iter=5 stress="-1.4853622768389099 -1.9586595591476853e-14 3.0104585803391122e-15 -1.9586595591476853e-14 -1.485362276838963 -1.262801827207076e-14 3.0104585803391122e-15 -1.262801827207076e-14 -1.4726299337084185" pbc="T T T"
Ti       3.35443071       3.93747653       1.34484519        0
Ti      -1.73273431       4.87376337       4.03453558        1
Ti       1.73273432       4.87376337       4.03453558        2
Ti       1.62169639       0.93629266       1.34484519        3
Ti       5.08716502       0.93629266       1.34484519        4
Ti       0.00000001       1.87257950       4.03453558        5
Al       0.00000001       3.87336875       1.34484519        6
Al       3.35443071       1.93668728       4.03453558        7
8
Lattice="6.708972926619967 -1.0594424727885514e-15 -9.868174280549855e-46 -3.3544864633099833 5.810140987754924 8.056081393651214e-47 7.387716564304747e-46 -6.336226921522069e-48 5.379201923937663" Properties=species:S:1:pos:R:3:tags:I:1 spacegroup="P 1" unit_cell=conventional n_minim_iter=6 stress="-1.483686629335154 -2.5791549487468113e-14 1.4297167263775727e-15 -2.5791549487468113e-14 -1.4836866293351687 9.569939557159623e-15 1.4297167263775727e-15 9.569939557159623e-15 -1.4840232475833117" pbc="T T T"
Ti       3.35448647       3.93736334       1.34480048        0
Ti      -1.73260841       4.87375507       4.03440144        1
Ti       1.73260842       4.87375507       4.03440144        2
Ti       1.62187806       0.93639754       1.34480048        3
Ti       5.08709488       0.93639754       1.34480048        4
Ti       0.00000001       1.87278927       4.03440144        5
Al       0.00000001       3.87343314       1.34480048        6
Al       3.35448647       1.93671948       4.03440144        7
