8
Lattice="6.534825690453573 -1.1322261084783425e-15 -1.2525124804692552e-45 -3.267412845226785 5.659325057235979 -9.019893758457944e-47 9.659562173178864e-46 6.380192380370803e-46 5.039754575872446" Properties=species:S:1:pos:R:3:tags:I:1 spacegroup="P 1" unit_cell=conventional n_minim_iter=1 energy=-10029.016858186993 free_energy=-10029.016858186993 pbc="T T T"
Ti       3.26741285       3.97160749       1.25993864        0
Ti      -1.80580165       4.81546911       3.77981593        1
Ti       1.80580166       4.81546911       3.77981593        2
Ti       1.46161120       0.84386728       1.25993864        3
Ti       5.07321451       0.84386728       1.25993864        4
Ti       0.00000001       1.68772889       3.77981593        5
Al       0.00000001       3.77288904       1.25993864        6
Al       3.26741285       1.88644735       3.77981593        7
8
Lattice="6.547158370791111 -1.129862963449546e-15 -1.2636786125925159e-45 -3.2735791853955543 5.670005471705038 -1.088991077702048e-46 9.554074052904034e-46 6.15809417592641e-46 5.020785997396135" Properties=species:S:1:pos:R:3:tags:I:1 spacegroup="P 1" unit_cell=conventional n_minim_iter=2 stress="-3.8971686051508723 4.376992182280175e-15 -5.1954488125172416e-15 4.376992182280175e-15 -3.897168605150919 8.512317979011913e-15 -5.1954488125172416e-15 8.512317979011913e-15 -4.1631280562676105" pbc="T T T"
Ti       3.27357919       3.98116202       1.25519650        0
Ti      -1.81099294       4.82558658       3.76558950        1
Ti       1.81099295       4.82558658       3.76558950        2
Ti       1.46258625       0.84443024       1.25519650        3
Ti       5.08457213       0.84443024       1.25519650        4
Ti       0.00000001       1.68885480       3.76558950        5
Al       0.00000001       3.78000932       1.25519650        6
Al       3.27357919       1.89000750       3.76558950        7
8
Lattice="6.599810757820717 -1.165046340981331e-15 -1.3103171539093096e-45 -3.299905378910357 5.715603776442569 -2.1165322932987623e-46 9.685392509337622e-46 6.085585398926832e-46 4.940995264683303" Properties=species:S:1:pos:R:3:tags:I:1 spacegroup="P 1" unit_cell=conventional n_minim_iter=3 stress="-2.636332440054076 -1.6831499219700193e-16 -3.3529087680346585e-15 -1.6831499219700193e-16 -2.6363324400540997 2.5427690132377553e-16 -3.3529087680346585e-15 2.5427690132377553e-16 -3.282190132479485" pbc="T T T"
Ti       3.29990538       4.09397417       1.23524881        0
Ti      -1.89552798       4.90479183       3.70574645        1
Ti       1.89552799       4.90479183       3.70574645        2
Ti       1.40437740       0.81082339       1.23524881        3
Ti       5.19543337       0.81082339       1.23524881        4
Ti       0.00000001       1.62164105       3.70574645        5
Al       0.00000001       3.81040824       1.23524881        6
Al       3.29990538       1.90520698       3.70574645        7
8
Lattice="6.583218191148599 -1.1782169450197702e-15 -1.2625274546860261e-45 -3.291609095574298 5.701234192190528 -2.1502923165107997e-46 6.861808734124474e-46 6.909272314703741e-46 4.965933557275362" Properties=species:S:1:pos:R:3:tags:I:1 spacegroup="P 1" unit_cell=conventional n_minim_iter=4 stress="-2.9662745347940156 4.0854868921859894e-15 -3.286095167351053e-16 4.0854868921859894e-15 -2.966274534794037 2.7317289104404547e-15 -3.286095167351053e-16 2.7317289104404547e-15 -2.814233842258706" pbc="T T T"
Ti       3.29160910       4.07974710       1.24148339        0
Ti      -1.88735513       4.89049350       3.72445017        1
Ti       1.88735515       4.89049350       3.72445017        2
Ti       1.40425396       0.81075211       1.24148339        3
Ti       5.17896424       0.81075211       1.24148339        4
Ti       0.00000001       1.62149850       3.72445017        5
Al       0.00000001       3.80082850       1.24148339        6
Al       3.29160910       1.90041710       3.72445017        7
8
Lattice="6.587673549618996 -1.2272466669876315e-15 -1.2422529677909765e-45 -3.2938367748094968 5.7050926458088576 -1.6159053919142086e-46 7.0547222102559e-46 6.980210547368128e-46 4.959218733838887" Properties=species:S:1:pos:R:3:tags:I:1 spacegroup="P 1" unit_cell=conventional n_minim_iter=5 stress="-2.8626552234151075 7.928434332399665e-15 -2.213568704702204e-15 7.928434332399665e-15 -2.8626552234151488 -2.750202595204225e-15 -2.213568704702204e-15 -2.750202595204225e-15 -2.8539094431418706" pbc="T T T"
Ti       3.29383678       4.08639393       1.23980468        0
Ti      -1.89199762       4.89574614       3.71941405        1
Ti       1.89199763       4.89574614       3.71941405        2
Ti       1.40183916       0.80935792       1.23980468        3
Ti       5.18583440       0.80935792       1.23980468        4
Ti       0.00000001       1.61871013       3.71941405        5
Al       0.00000001       3.80340081       1.23980468        6
Al       3.29383678       1.90170326       3.71941405        7
8
Lattice="6.587492732181021 -1.2280726065530797e-15 -1.2455949428444984e-45 -3.293746366090509 5.704936053314124 -1.57154364919483e-46 7.043223354781439e-46 6.935692825830237e-46 4.9594909847753295" Properties=species:S:1:pos:R:3:tags:I:1 spacegroup="P 1" unit_cell=conventional n_minim_iter=6 stress="-2.8718023277945433 1.4715901126219268e-14 -8.20189818795622e-16 1.4715901126219268e-14 -2.8718023277945592 5.905122209302064e-15 -8.20189818795622e-16 5.905122209302064e-15 -2.8778850547381882" pbc="T T T"
Ti       3.29374637       4.08529961       1.23987274        0
Ti      -1.89109511       4.89512069       3.71961824        1
Ti       1.89109512       4.89512069       3.71961824        2
Ti       1.40265126       0.80982679       1.23987274        3
Ti       5.18484149       0.80982679       1.23987274        4
Ti       0.00000001       1.61964786       3.71961824        5
Al       0.00000001       3.80329641       1.23987274        6
Al       3.29374637       1.90165106       3.71961824        7
8
Lattice="6.587439701386091 -1.2418316916786648e-15 -1.250770583863962e-45 -3.2937198506930443 5.704890127298532 -1.730107297604484e-46 6.891715599803345e-46 6.397502259542483e-46 4.959570835770532" Properties=species:S:1:pos:R:3:tags:I:1 spacegroup="P 1" unit_cell=conventional n_minim_iter=7 stress="-2.8719515208279622 2.645506714065086e-15 6.205077526833633e-15 2.645506714065086e-15 -2.8719515208279587 2.322399050977616e-15 6.205077526833633e-15 2.322399050977616e-15 -2.871693420559093" pbc="T T T"
Ti       3.29371986       4.08540467       1.23989271        0
Ti      -1.89119936       4.89515026       3.71967812        1
Ti       1.89119937       4.89515026       3.71967812        2
Ti       1.40252049       0.80975129       1.23989271        3
Ti       5.18491922       0.80975129       1.23989271        4
Ti       0.00000001       1.61949687       3.71967812        5
Al       0.00000001       3.80326579       1.23989271        6
Al       3.29371986       1.90163575       3.71967812        7
