8
Lattice="6.560290101490645 -1.1915018805748151e-15 -1.2218144519895791e-45 -3.280145050745322 5.681377884086492 -2.0703113693920967e-47 9.604560325480518e-46 5.733117333772517e-46 5.156977962555398" Properties=species:S:1:pos:R:3:tags:I:1 spacegroup="P 1" unit_cell=conventional n_minim_iter=1 energy=-10048.18947106095 free_energy=-10048.18947106095 pbc="T T T"
Ti       3.28014506       3.92214124       1.28924449        0
Ti      -1.75659650       4.80176241       3.86773347        1
Ti       1.75659651       4.80176241       3.86773347        2
Ti       1.52354855       0.87962685       1.28924449        3
Ti       5.03674156       0.87962685       1.28924449        4
Ti       0.00000001       1.75924801       3.86773347        5
Al       0.00000001       3.78759094       1.28924449        6
Al       3.28014506       1.89379831       3.86773347        7
8
Lattice="6.574962015275494 -1.1121875418250294e-15 -1.2334492505708855e-45 -3.287481007637746 5.694084134146306 -3.854719020031297e-47 9.495067418384338e-46 5.514456968300454e-46 5.1339882279107565" Properties=species:S:1:pos:R:3:tags:I:1 spacegroup="P 1" unit_cell=conventional n_minim_iter=2 stress="-4.064030237738464 -3.3940203984825837e-15 -5.428323075066661e-15 -3.3940203984825837e-15 -4.064030237738472 -9.718592868297098e-17 -5.428323075066661e-15 -9.718592868297098e-17 -4.584725402548023" pbc="T T T"
Ti       3.28748101       3.93548517       1.28349705        0
Ti      -1.76448469       4.81478750       3.85049117        1
Ti       1.76448470       4.81478750       3.85049117        2
Ti       1.52299632       0.87930803       1.28349705        3
Ti       5.05196571       0.87930803       1.28349705        4
Ti       0.00000001       1.75861036       3.85049117        5
Al       0.00000001       3.79606179       1.28349705        6
Al       3.28748101       1.89803374       3.85049117        7
8
Lattice="6.590458042238676 -1.1273860673561574e-15 -1.2371393448096916e-45 -3.295229021119337 5.707504087154151 -3.878869821192799e-47 9.429478672445508e-46 5.463287485006632e-46 5.109873700604662" Properties=species:S:1:pos:R:3:tags:I:1 spacegroup="P 1" unit_cell=conventional n_minim_iter=3 stress="-3.622286182725055 -4.4012559335991795e-15 -1.0003342572366429e-14 -4.4012559335991795e-15 -3.622286182725054 -1.6227543332533712e-15 -1.0003342572366429e-14 -1.6227543332533712e-15 -3.6822575546841994" pbc="T T T"
Ti       3.29522903       3.98494436       1.27746842        0
Ti      -1.80344359       4.84622708       3.83240527        1
Ti       1.80344360       4.84622708       3.83240527        2
Ti       1.49178543       0.86128843       1.27746842        3
Ti       5.09867262       0.86128843       1.27746842        4
Ti       0.00000001       1.72257115       3.83240527        5
Al       0.00000001       3.80500844       1.27746842        6
Al       3.29522903       1.90250707       3.83240527        7
8
Lattice="6.598252957112318 -1.1049163685370615e-15 -1.2397629111247381e-45 -3.299126478556158 5.714254681455061 -1.3174873903194927e-46 9.397545136922259e-46 5.833570579835445e-46 5.097807626942892" Properties=species:S:1:pos:R:3:tags:I:1 spacegroup="P 1" unit_cell=conventional n_minim_iter=4 stress="-3.38782019353195 3.2336023250551732e-15 -7.177906436942546e-15 3.2336023250551732e-15 -3.3878201935319665 3.599604524788961e-15 -7.177906436942546e-15 3.599604524788961e-15 -3.3714246020720475" pbc="T T T"
Ti       3.29912648       4.00448750       1.27445190        0
Ti      -1.81841971       4.85937395       3.82335572        1
Ti       1.81841972       4.85937395       3.82335572        2
Ti       1.48070677       0.85489217       1.27445190        3
Ti       5.11754620       0.85489217       1.27445190        4
Ti       0.00000001       1.70977862       3.82335572        5
Al       0.00000001       3.80950884       1.27445190        6
Al       3.29912648       1.90475728       3.82335572        7
8
Lattice="6.601795060220746 -1.1312750833324944e-15 -1.2416203887057041e-45 -3.300897530110372 5.717322232729783 -1.794848092359824e-46 9.377815999029288e-46 5.901726077217441e-46 5.0923387761321885" Properties=species:S:1:pos:R:3:tags:I:1 spacegroup="P 1" unit_cell=conventional n_minim_iter=5 stress="-3.2875186280991575 -5.371126483489549e-15 3.8528491712546104e-16 -5.371126483489549e-15 -3.287518628099179 -1.4703389632703584e-14 3.8528491712546104e-16 -1.4703389632703584e-14 -3.2817643857918943" pbc="T T T"
Ti       3.30089754       4.01184610       1.27308469        0
Ti      -1.82390691       4.86458703       3.81925408        1
Ti       1.82390692       4.86458703       3.81925408        2
Ti       1.47699062       0.85274665       1.27308469        3
Ti       5.12480445       0.85274665       1.27308469        4
Ti       0.00000001       1.70548758       3.81925408        5
Al       0.00000001       3.81155388       1.27308469        6
Al       3.30089754       1.90577980       3.81925408        7
8
Lattice="6.602199777012765 -1.1438993654940015e-15 -1.265425890600283e-45 -3.3010998885063816 5.717672727753011 -9.112888909610126e-47 9.546101817106894e-46 6.800729276195025e-46 5.091714471532395" Properties=species:S:1:pos:R:3:tags:I:1 spacegroup="P 1" unit_cell=conventional n_minim_iter=6 stress="-3.276879764824974 -1.4322965593327572e-15 2.362573872675731e-15 -1.4322965593327572e-15 -3.276879764824982 2.9841560676348904e-15 2.362573872675731e-15 2.9841560676348904e-15 -3.2763600834948927" pbc="T T T"
Ti       3.30109989       4.01255479       1.27292862        0
Ti      -1.82441947       4.86511662       3.81878585        1
Ti       1.82441949       4.86511662       3.81878585        2
Ti       1.47668041       0.85256755       1.27292862        3
Ti       5.12551937       0.85256755       1.27292862        4
Ti       0.00000001       1.70512939       3.81878585        5
Al       0.00000001       3.81178754       1.27292862        6
Al       3.30109989       1.90589663       3.81878585        7
