8
Lattice="6.970599950540233 -1.3079657925760923e-15 -2.485880611673784e-47 -3.4852999752701153 6.036716636786393 4.1190858036747724e-45 3.580701687600043e-47 -4.2218880750487796e-45 6.505564171843964" Properties=species:S:1:pos:R:3:tags:I:1 spacegroup="P 1" unit_cell=conventional n_minim_iter=4 stress="5.721649389528332 -8.965998610238491e-15 -1.1983413379397586e-15 -8.965998610238491e-15 5.721649389528327 6.228067660902968e-16 -1.1983413379397586e-15 6.228067660902968e-16 5.721348583074729" pbc="T T T"
Ti       3.48529998       3.29882459       1.62639104        0
Ti      -1.11421067       4.66777363       4.87917313        1
Ti       1.11421068       4.66777363       4.87917313        2
Ti       2.37108931       1.36895509       1.62639104        3
Ti       4.59951066       1.36895509       1.62639104        4
Ti       0.00000001       2.73790413       4.87917313        5
Al       0.00000001       4.02448380       1.62639104        6
Al       3.48529998       2.01224492       4.87917313        7
