8
Lattice="6.6058038226597615 -1.0859751721650696e-15 -1.2172186948068587e-45 -3.3029019113298794 5.720793922839708 3.2667574333803057e-47 7.673100201402659e-46 8.447483498523221e-46 5.240286094682822" Properties=species:S:1:pos:R:3:tags:I:1 spacegroup="P 1" unit_cell=conventional n_minim_iter=5 stress="-2.4580180274253123 -8.960726552635028e-15 1.2327169328296449e-16 -8.960726552635028e-15 -2.458018027425319 -4.071078812509719e-15 1.2327169328296449e-16 -4.071078812509719e-15 -2.457933638380053" pbc="T T T"
Ti       3.30290192       3.91600847       1.31007152        0
Ti      -1.73990690       4.81840406       3.93021457        1
Ti       1.73990691       4.81840406       3.93021457        2
Ti       1.56299501       0.90240131       1.31007152        3
Ti       5.04280882       0.90240131       1.31007152        4
Ti       0.00000001       1.80479690       3.93021457        5
Al       0.00000001       3.81386834       1.31007152        6
Al       3.30290192       1.90693703       3.93021457        7
