8
Lattice="6.979169183042091 -1.2684119665803754e-15 -2.2861166572590678e-47 -3.489584591521045 6.0441378098239396 4.107059935648319e-45 2.617660882086124e-47 -4.4083172441298507e-45 6.4895985271828955" Properties=species:S:1:pos:R:3:tags:I:1 spacegroup="P 1" unit_cell=conventional n_minim_iter=4 stress="5.599575075590204 -1.1737185965854161e-14 -6.213087141548584e-20 -1.1737185965854161e-14 5.599575075590225 -5.069490671167175e-20 -6.213087141548584e-20 -5.069490671167175e-20 5.5993507377748175" pbc="T T T"
Ti       3.48958460       3.30205145       1.62239963        0
Ti      -1.11486290       4.67309765       4.86719889        1
Ti       1.11486291       4.67309765       4.86719889        2
Ti       2.37472169       1.37105225       1.62239963        3
Ti       4.60444750       1.37105225       1.62239963        4
Ti       0.00000001       2.74209846       4.86719889        5
Al       0.00000001       4.02943126       1.62239963        6
Al       3.48958460       2.01471865       4.86719889        7
