8
Lattice="7.037637728142375 -1.215551701490613e-15 -2.7661740222882055e-47 -3.518818864071187 6.094773055203098 4.141183433320308e-45 -7.851340669907856e-48 -4.4338829877909085e-45 6.518007381965744" Properties=species:S:1:pos:R:3:tags:I:1 spacegroup="P 1" unit_cell=conventional n_minim_iter=3 stress="5.299016943572655 2.009217760759161e-15 4.491815161341659e-17 2.009217760759161e-15 5.299016943572647 1.1070933272156247e-15 4.491815161341659e-17 1.1070933272156247e-15 5.298876810676174" pbc="T T T"
Ti       3.51881887       3.32922947       1.62950184        0
Ti      -1.12378257       4.71200431       4.88850553        1
Ti       1.12378258       4.71200431       4.88850553        2
Ti       2.39503629       1.38278094       1.62950184        3
Ti       4.64260145       1.38278094       1.62950184        4
Ti       0.00000001       2.76555579       4.88850553        5
Al       0.00000001       4.06318814       1.62950184        6
Al       3.51881887       2.03159712       4.88850553        7
