8
Lattice="6.742929427503257 -1.0653595923022303e-15 -4.786592656499292e-47 -3.3714647137516294 5.839548180143479 4.178012212453894e-45 -8.224247126247742e-46 -3.3935694040026876e-45 6.36060830484324" Properties=species:S:1:pos:R:3:tags:I:1 spacegroup="P 1" unit_cell=conventional n_minim_iter=4 stress="2.9351595833350816 -7.24648011216188e-14 -6.8854974536637864e-15 -7.24648011216188e-14 2.935159583335006 3.6993569427037805e-15 -6.8854974536637864e-15 3.6993569427037805e-15 2.9347148221757107" pbc="T T T"
Ti       3.37146472       3.21035617       1.59015207        0
Ti      -1.09451258       4.52495510       4.77045623        1
Ti       1.09451259       4.52495510       4.77045623        2
Ti       2.27695214       1.31460477       1.59015207        3
Ti       4.46597730       1.31460477       1.59015207        4
Ti       0.00000001       2.62920370       4.77045623        5
Al       0.00000001       3.89303796       1.59015207        6
Al       3.37146472       1.94652190       4.77045623        7
