8
Lattice="6.703665004203711 -1.0660564440221368e-15 -7.407891542820381e-46 -3.3518325021018542 5.805544192101128 -4.4644463262714824e-46 4.487220467431315e-46 3.732992917302436e-46 5.8367007151738175" Properties=species:S:1:pos:R:3:tags:I:1 spacegroup="P 1" unit_cell=conventional n_minim_iter=6 stress="-1.3345750490259478 -1.4505986241834808e-14 2.7943489038489458e-15 -1.4505986241834808e-14 -1.3345750490259851 1.2919557166969072e-15 2.7943489038489458e-15 1.2919557166969072e-15 -1.3344576814232778" pbc="T T T"
Ti       3.35183251       3.60502714       1.45917518        0
Ti      -1.44612379       4.70528857       4.37752553        1
Ti       1.44612380       4.70528857       4.37752553        2
Ti       1.90570871       1.10026724       1.45917518        3
Ti       4.79795631       1.10026724       1.45917518        4
Ti       0.00000001       2.20052868       4.37752553        5
Al       0.00000001       3.87036861       1.45917518        6
Al       3.35183251       1.93518721       4.37752553        7
