8
Lattice="6.6902481392602375 -1.0570361304644693e-15 -4.749195873669202e-47 -3.3451240696301197 5.793924846220935 4.1453701585790046e-45 -8.159992570702126e-46 -3.367056059933602e-45 6.310914022393592" Properties=species:S:1:pos:R:3:tags:I:1 spacegroup="P 1" unit_cell=conventional n_minim_iter=4 stress="2.9351595833350816 -7.24648011216188e-14 -6.8854974536637864e-15 -7.24648011216188e-14 2.935159583335006 3.6993569427037805e-15 -6.8854974536637864e-15 3.6993569427037805e-15 2.9347148221757107" pbc="T T T"
Ti       3.34512408       3.18527424       1.57772850        0
Ti      -1.08596135       4.48960244       4.73318551        1
Ti       1.08596136       4.48960244       4.73318551        2
Ti       2.25916272       1.30433400       1.57772850        3
Ti       4.43108543       1.30433400       1.57772850        4
Ti       0.00000001       2.60866220       4.73318551        5
Al       0.00000001       3.86262236       1.57772850        6
Al       3.34512408       1.93131408       4.73318551        7
