8
Lattice="12.286435799925727 -1.700234428312931e-30 -2.838254542766839e-45 3.01136667799414e-31 2.176109526021249 4.378411642432943e-15 -4.441999896977552e-46 -1.8845639691908407e-14 9.36645053198744" Properties=species:S:1:pos:R:3 unique_starting_index=54 config_type=initial n_minim_iter=1 energy=-1299.606409359278 free_energy=-1299.606409359278 pbc="T T T"
Si       3.49107130       0.53036463       1.93428677
Si       8.79536450       1.64574490       1.93428677
Si       2.65214660       1.61841939       6.61751203
Si       9.63428920       0.55769014       6.61751203
Si       3.49107130       1.61841939      -0.36936363
Si       8.79536450       0.55769014      -0.36936363
Si       2.65214660       0.53036463       4.31386163
Si       9.63428920       1.64574490       4.31386163
