8
Lattice="5.817236293834601 0.7750587625142781 0.6122630227140804 2.491446238333196 5.31353458868504 0.6122630227140681 2.4914462383331832 1.825729042222562 5.027447592816885" Properties=species:S:1:pos:R:3 unique_starting_index=42 config_type=initial n_minim_iter=10 energy=-1302.4341903849595 free_energy=-1302.4341903849595 pbc="T T T"
Si       7.01248327       6.23131086       2.05264347
Si       8.05430207       3.11032106       4.20376295
Si       5.39212705       5.65063642       5.58683951
Si       8.35938341       7.21932132       3.86604779
Si       9.40215913       5.10288780       4.74385462
Si       7.69816502       6.33463636       6.12820155
Si       6.05774017       4.43910528       3.50670188
Si       2.04620905       1.49945973       1.18450857
