12
Lattice="3.846660889654819 0.0 0.0 0.0 5.44 0.0 0.0 0.0 -21.539982668964456" Properties=species:S:1:pos:R:3:forces:R:3 bulk_struct_test=bulk_Si_diamond n_minim_iter=0 energy=-1953.286847992713 stress="0.013139554735751891 1.2798298875269993e-09 -2.4827296421314314e-10 1.2798298875269993e-09 0.019555938352970984 1.282182185014955e-05 -2.4827296421314314e-10 1.282182185014955e-05 8.532383444280976e-06" free_energy=-1953.286847992713 pbc="T T T"
Si       0.00000000      -0.93650121      -0.92375352      -0.00000003      -0.00167060       0.00015090
Si       0.00000002       1.36084854      -1.84959648      -0.00000017      -0.00161143      -0.00130535
Si       1.92333042       2.96449753      -1.66858546       0.00000021       0.00236109      -0.00147892
Si       1.92333042       4.06570106      -3.76954643       0.00000046       0.00174810       0.00452616
Si       0.00000002       0.01774059      -3.85957538      -0.00000047      -0.00073302      -0.00016426
Si      -0.00000000       1.35716698      -5.82533472      -0.00000001       0.00463455       0.00383965
Si       1.92333044       2.72283301      -5.71464799       0.00000001      -0.00463435      -0.00383890
Si       1.92333042       4.06225941      -7.68040726       0.00000047       0.00073321       0.00016382
Si       0.00000002       0.01429896      -7.77043623      -0.00000046      -0.00174869      -0.00452634
Si       0.00000002       1.11550245      -9.87139719      -0.00000021      -0.00236086       0.00147868
Si       1.92333042       2.71915148      -9.69038620       0.00000017       0.00161134       0.00130548
Si       1.92333044       5.01650121     -10.61622915       0.00000003       0.00167065      -0.00015090
