8
Lattice="5.386599252863597 1.7534241762986604e-16 -1.3445424415040306e-48 -2.6932996264317985 4.664931792986151 -1.6723483870089091e-47 1.1098118968263067e-48 1.6580114043266465e-47 4.446205452299808" Properties=species:S:1:pos:R:3:tags:I:1 spacegroup="P 1" unit_cell=conventional n_minim_iter=1 energy=-9783.261803360543 free_energy=-9783.261803360543 pbc="T T T"
Ti       2.69329963       3.11940352       1.11155136        0
Ti      -1.35482883       3.89216999       3.33465409        1
Ti       1.35482884       3.89216999       3.33465409        2
Ti       1.33847080       0.77277114       1.11155136        3
Ti       4.04812847       0.77277114       1.11155136        4
Ti       0.00000000       1.54553761       3.33465409        5
Al       0.00000000       3.10995920       1.11155136        6
Al       2.69329963       1.55498193       3.33465409        7
8
Lattice="5.3956851596597675 1.8944152868986858e-16 8.102698649569504e-50 -2.6978425798298837 4.672800419088054 -1.9227100532237398e-47 -6.8149550158771425e-49 1.5882218069232573e-47 4.431243943692184" Properties=species:S:1:pos:R:3:tags:I:1 spacegroup="P 1" unit_cell=conventional n_minim_iter=2 stress="-0.12828991004457557 1.235733281249047e-16 -5.5402645788607277e-17 1.235733281249047e-16 -0.12828991004457602 -3.0384155305007285e-16 -5.5402645788607277e-17 -3.0384155305007285e-16 -0.13028162370712495" pbc="T T T"
Ti       2.69784258       3.12362485       1.10781098        0
Ti      -1.35621313       3.89821497       3.32343296        1
Ti       1.35621314       3.89821497       3.32343296        2
Ti       1.34162945       0.77459480       1.10781098        3
Ti       4.05405572       0.77459480       1.10781098        4
Ti       0.00000000       1.54918492       3.32343296        5
Al       0.00000000       3.11520496       1.10781098        6
Al       2.69784258       1.55760482       3.32343296        7
8
Lattice="5.393909623024095 1.8797427642493234e-16 8.00012980519209e-50 -2.6969548115120476 4.671262759256211 -1.8709994268327268e-47 -4.6954516256130476e-51 1.8630464223145194e-47 4.434161727436601" Properties=species:S:1:pos:R:3:tags:I:1 spacegroup="P 1" unit_cell=conventional n_minim_iter=3 stress="-0.12747444033845565 -8.004820541195409e-17 4.556496561714165e-17 -8.004820541195409e-17 -0.12747444033845584 -3.759529362185896e-17 4.556496561714165e-17 -3.759529362185896e-17 -0.1274567177535063" pbc="T T T"
Ti       2.69695482       3.11611113       1.10854043        0
Ti      -1.35014994       3.89368928       3.32562129        1
Ti       1.35014995       3.89368928       3.32562129        2
Ti       1.34680487       0.77758283       1.10854043        3
Ti       4.04710476       0.77758283       1.10854043        4
Ti       0.00000000       1.55516098       3.32562129        5
Al       0.00000000       3.11417985       1.10854043        6
Al       2.69695482       1.55709226       3.32562129        7
