8
Lattice="5.7689847388600395 2.841816583669066e-16 1.6998473152770344e-48 -2.88449236943002 4.99608733789753 -9.791120472124542e-48 -1.3642581538998929e-48 8.286128567237817e-48 4.630053769524096" Properties=species:S:1:pos:R:3:tags:I:1 spacegroup="P 1" unit_cell=conventional n_minim_iter=1 energy=-9783.732870369064 free_energy=-9783.732870369064 pbc="T T T"
Ti       2.88449237       3.37122250       1.15751344        0
Ti      -1.47731381       4.18365742       3.47254032        1
Ti       1.47731382       4.18365742       3.47254032        2
Ti       1.40717856       0.81243992       1.15751344        3
Ti       4.36180618       0.81243992       1.15751344        4
Ti       0.00000001       1.62487484       3.47254032        5
Al       0.00000001       3.33072989       1.15751344        6
Al       2.88449237       1.66536745       3.47254032        7
8
Lattice="5.793278223729741 2.4514029288609325e-16 1.7256865603733172e-48 -2.896639111864871 5.017126112941145 -9.80109251644533e-48 -1.3427825369648214e-48 8.257003572238106e-48 4.591303928686024" Properties=species:S:1:pos:R:3:tags:I:1 spacegroup="P 1" unit_cell=conventional n_minim_iter=2 stress="0.03335304337394248 1.5651198881395053e-16 -1.360227192080228e-17 1.5651198881395053e-16 0.03335304337394267 8.66426011437731e-17 -1.360227192080228e-17 8.66426011437731e-17 0.03334224074351309" pbc="T T T"
Ti       2.89663912       3.38556390       1.14782598        0
Ti      -1.48366043       4.20134752       3.44347794        1
Ti       1.48366044       4.20134752       3.44347794        2
Ti       1.41297868       0.81578864       1.14782598        3
Ti       4.38029956       0.81578864       1.14782598        4
Ti       0.00000001       1.63157226       3.44347794        5
Al       0.00000001       3.34475576       1.14782598        6
Al       2.89663912       1.67238039       3.44347794        7
