8
Lattice="5.979103829600538 3.2902980603777727e-16 2.5096798427440798e-48 -2.9895519148002694 5.178055808298888 -1.2269973440351127e-47 -1.9354601229433557e-48 9.809006885103191e-48 4.611073028532829" Properties=species:S:1:pos:R:3:tags:I:1 spacegroup="P 1" unit_cell=conventional n_minim_iter=1 energy=-9783.355602422365 free_energy=-9783.355602422365 pbc="T T T"
Ti       2.98955192       3.48853815       1.15276825        0
Ti      -1.52638221       4.33329957       3.45830477        1
Ti       1.52638222       4.33329957       3.45830477        2
Ti       1.46316970       0.84476660       1.15276825        3
Ti       4.51593414       0.84476660       1.15276825        4
Ti       0.00000001       1.68952802       3.45830477        5
Al       0.00000001       3.45204239       1.15276825        6
Al       2.98955192       1.72602379       3.45830477        7
8
Lattice="6.00072218364199 2.743598928439485e-16 2.5326245546018766e-48 -3.0003610918209955 5.1967778520867896 -1.2289869928993646e-47 -1.903845454935681e-48 9.745336465808783e-48 4.57790893778307" Properties=species:S:1:pos:R:3:tags:I:1 spacegroup="P 1" unit_cell=conventional n_minim_iter=2 stress="0.05215684868769012 1.8821958585304e-16 1.0550874970572594e-17 1.8821958585304e-16 0.05215684868768962 -4.661383988415399e-17 1.0550874970572594e-17 -4.661383988415399e-17 0.052128995094699815" pbc="T T T"
Ti       3.00036110       3.50115204       1.14447723        0
Ti      -1.53190155       4.34896755       3.43343170        1
Ti       1.53190156       4.34896755       3.43343170        2
Ti       1.46845954       0.84782071       1.14447723        3
Ti       4.53226266       0.84782071       1.14447723        4
Ti       0.00000001       1.69563621       3.43343170        5
Al       0.00000001       3.46452377       1.14447723        6
Al       3.00036110       1.73226449       3.43343170        7
8
Lattice="6.000837009923896 2.6479788961356635e-16 2.7317332471344106e-48 -3.0004185049619485 5.196877294563944 -1.0803769519542478e-47 -1.9028335502757543e-48 1.190598181055527e-47 4.5777337424787925" Properties=species:S:1:pos:R:3:tags:I:1 spacegroup="P 1" unit_cell=conventional n_minim_iter=3 stress="0.052095128342059656 4.649363272883553e-16 -6.343873539699876e-17 4.649363272883553e-16 0.05209512834205936 6.6827187906152606e-18 -6.343873539699876e-17 6.6827187906152606e-18 0.05222407995132749" pbc="T T T"
Ti       3.00041851       3.49956069       1.14443343        0
Ti      -1.53049470       4.34822159       3.43330030        1
Ti       1.53049471       4.34822159       3.43330030        2
Ti       1.46992381       0.84866610       1.14443343        3
Ti       4.53091321       0.84866610       1.14443343        4
Ti       0.00000001       1.69732701       3.43330030        5
Al       0.00000001       3.46459006       1.14443343        6
Al       3.00041851       1.73229763       3.43330030        7
