8
Lattice="5.750847869999999 0.0 0.0 -2.8754239349999997 4.9803803487196285 0.0 0.0 0.0 4.65528205" Properties=species:S:1:pos:R:3:tags:I:1 spacegroup="P 1" unit_cell=conventional n_minim_iter=1 energy=-9783.577154754123 free_energy=-9783.577154754123 pbc="T T T"
Ti       2.87542394       3.28996953       1.16382051        0
Ti      -1.41148090       4.13517743       3.49146154        1
Ti       1.41148091       4.13517743       3.49146154        2
Ti       1.46394303       0.84521289       1.16382051        3
Ti       4.28690485       0.84521289       1.16382051        4
Ti       0.00000000       1.69042079       3.49146154        5
Al       0.00000000       3.32025855       1.16382051        6
Al       2.87542394       1.66013177       3.49146154        7
8
Lattice="5.641159522279259 5.4695596690013626e-17 -4.893129076462683e-50 -2.8205797611396295 4.885387453094326 -3.65731584306537e-50 -3.9609630567378947e-50 -1.6009292789990584e-49 4.472745829915378" Properties=species:S:1:pos:R:3:tags:I:1 spacegroup="P 1" unit_cell=conventional n_minim_iter=2 stress="0.004851864313021114 5.543161978616264e-17 5.456828032304906e-17 5.543161978616264e-17 0.004851864313020711 -8.006497124663061e-17 5.456828032304906e-17 -8.006497124663061e-17 -0.03259711464551844" pbc="T T T"
Ti       2.82057977       3.22977748       1.11818646        0
Ti      -1.38677523       4.05758491       3.35455937        1
Ti       1.38677524       4.05758491       3.35455937        2
Ti       1.43380453       0.82781232       1.11818646        3
Ti       4.20735500       0.82781232       1.11818646        4
Ti       0.00000000       1.65561975       3.35455937        5
Al       0.00000000       3.25692986       1.11818646        6
Al       2.82057977       1.62846737       3.35455937        7
8
Lattice="5.534619791157635 1.7225707347287205e-16 5.191209127686185e-49 -2.7673098955788173 4.793121339430638 -1.614930186097242e-48 2.2851272564566367e-49 -1.8435211993056828e-48 4.567861427145348" Properties=species:S:1:pos:R:3:tags:I:1 spacegroup="P 1" unit_cell=conventional n_minim_iter=3 stress="-0.015847715632399697 7.675967247970997e-17 1.1275396159113943e-16 7.675967247970997e-17 -0.015847715632399843 -1.4262148244135841e-16 1.1275396159113943e-16 -1.4262148244135841e-16 -0.009175116535641587" pbc="T T T"
Ti       2.76730990       3.17635315       1.14196535        0
Ti      -1.36714341       3.98473964       3.42589607        1
Ti       1.36714342       3.98473964       3.42589607        2
Ti       1.40016649       0.80839129       1.14196535        3
Ti       4.13445331       0.80839129       1.14196535        4
Ti       0.00000000       1.61677779       3.42589607        5
Al       0.00000000       3.19541902       1.14196535        6
Al       2.76730990       1.59771191       3.42589607        7
8
Lattice="5.5879741220360595 1.558256620767531e-16 3.437969171711453e-48 -2.7939870610180297 4.839327545373274 -4.757844900647888e-48 5.226929776452474e-50 2.37574287481932e-49 4.599620585422234" Properties=species:S:1:pos:R:3:tags:I:1 spacegroup="P 1" unit_cell=conventional n_minim_iter=4 stress="0.004201734738766895 -1.789837586949476e-16 -7.327410567108242e-17 -1.789837586949476e-16 0.004201734738767209 -1.219658714658296e-16 -7.327410567108242e-17 -1.219658714658296e-16 0.015464465574857339" pbc="T T T"
Ti       2.79398707       3.21637723       1.14990514        0
Ti      -1.38846666       4.02785481       3.44971544        1
Ti       1.38846667       4.02785481       3.44971544        2
Ti       1.40552040       0.81148242       1.14990514        3
Ti       4.18245373       0.81148242       1.14990514        4
Ti       0.00000000       1.62296000       3.44971544        5
Al       0.00000000       3.22622321       1.14990514        6
Al       2.79398707       1.61311403       3.44971544        7
8
Lattice="5.613590144691259 8.40941900512296e-17 1.8626742127221373e-48 -2.8067950723456296 4.861511671736594 -9.057976397075901e-48 3.9077294819645955e-49 3.6998268707798135e-48 4.555240520458194" Properties=species:S:1:pos:R:3:tags:I:1 spacegroup="P 1" unit_cell=conventional n_minim_iter=5 stress="0.0031754909803228645 -1.8554195656739493e-16 -1.0069421278152345e-16 -1.8554195656739493e-16 0.0031754909803227505 4.460320305329824e-17 -1.0069421278152345e-16 4.460320305329824e-17 -0.00796188437474411" pbc="T T T"
Ti       2.80679508       3.27129548       1.13881013        0
Ti      -1.42962323       4.06640601       3.41643039        1
Ti       1.42962324       4.06640601       3.41643039        2
Ti       1.37717184       0.79511540       1.13881013        3
Ti       4.23641831       0.79511540       1.13881013        4
Ti       0.00000000       1.59022593       3.41643039        5
Al       0.00000000       3.24101265       1.13881013        6
Al       2.80679508       1.62050876       3.41643039        7
8
Lattice="5.594033910876974 1.7548920685074515e-16 -1.810789888447148e-49 -2.797016955438487 4.844575476451072 -1.6911866661210114e-47 2.5445157011152298e-48 3.4987427123675086e-48 4.580639998380139" Properties=species:S:1:pos:R:3:tags:I:1 spacegroup="P 1" unit_cell=conventional n_minim_iter=6 stress="1.8338529623571378e-05 -1.6255159524833766e-16 -6.2991204638891115e-18 -1.6255159524833766e-16 1.8338529623113476e-05 -1.079604842486717e-17 -6.2991204638891115e-18 -1.079604842486717e-17 0.0007874031566295125" pbc="T T T"
Ti       2.79701696       3.26350279       1.14516000        0
Ti      -1.42776364       4.05404156       3.43548000        1
Ti       1.42776365       4.05404156       3.43548000        2
Ti       1.36925331       0.79054362       1.14516000        3
Ti       4.22478061       0.79054362       1.14516000        4
Ti       0.00000000       1.58108238       3.43548000        5
Al       0.00000000       3.22972183       1.14516000        6
Al       2.79701696       1.61486334       3.43548000        7
