8
Lattice="5.343496303252208 1.862174046994869e-16 7.925357862339323e-50 -2.671748151626104 4.627603543644649 -1.8535124277930484e-47 -4.6515663326031244e-51 1.845633754768682e-47 4.3927185389687535" Properties=species:S:1:pos:R:3:tags:I:1 spacegroup="P 1" unit_cell=conventional n_minim_iter=3 stress="-0.12747444033845565 -8.004820541195409e-17 4.556496561714165e-17 -8.004820541195409e-17 -0.12747444033845584 -3.759529362185896e-17 4.556496561714165e-17 -3.759529362185896e-17 -0.1274567177535063" pbc="T T T"
Ti       2.67174816       3.08698689       1.09817963        0
Ti      -1.33753098       3.85729753       3.29453890        1
Ti       1.33753099       3.85729753       3.29453890        2
Ti       1.33421717       0.77031527       1.09817963        3
Ti       4.00927914       0.77031527       1.09817963        4
Ti       0.00000000       1.54062591       3.29453890        5
Al       0.00000000       3.08507366       1.09817963        6
Al       2.67174816       1.54253915       3.29453890        7
