8
Lattice="5.979103829600538 3.290298060377773e-16 2.5096798427440804e-48 -2.9895519148002694 5.17805580829889 -1.226997344035113e-47 -1.1498348450021874e-48 7.872892355287256e-48 4.61107302853283" Properties=species:S:1:pos:R:3:tags:I:1 spacegroup="P 1" unit_cell=conventional n_minim_iter=4 stress="0.04298239521076634 3.750504008879474e-16 -4.2262576419461017e-17 3.750504008879474e-16 0.042982395210766494 -5.353322757949851e-18 -4.2262576419461017e-17 -5.353322757949851e-18 0.04298630274096883" pbc="T T T"
Ti       2.98955192       3.48853815       1.15276825        0
Ti      -1.52638221       4.33329957       3.45830477        1
Ti       1.52638222       4.33329957       3.45830477        2
Ti       1.46316970       0.84476660       1.15276825        3
Ti       4.51593414       0.84476660       1.15276825        4
Ti       0.00000001       1.68952802       3.45830477        5
Al       0.00000001       3.45204239       1.15276825        6
Al       2.98955192       1.72602379       3.45830477        7
