8
Lattice="5.5380159113904055 1.7513134960339853e-16 -1.5852116665640644e-48 -2.7690079556952027 4.7960624658265205 -1.372960109851241e-47 -2.4838976797553233e-48 1.3713840181054293e-47 4.556932208419242" Properties=species:S:1:pos:R:3:tags:I:1 spacegroup="P 1" unit_cell=conventional n_minim_iter=3 stress="-0.02111187126318124 1.1547383414729368e-16 -2.4122610651627432e-17 1.1547383414729368e-16 -0.021111871263181856 1.7829843883784118e-16 -2.4122610651627432e-17 1.7829843883784118e-16 -0.021015602320776684" pbc="T T T"
Ti       2.76900796       3.22297201       1.13923305        0
Ti      -1.40666749       4.00951964       3.41769915        1
Ti       1.40666750       4.00951964       3.41769915        2
Ti       1.36234046       0.78655243       1.13923305        3
Ti       4.17567546       0.78655243       1.13923305        4
Ti       0.00000000       1.57310006       3.41769915        5
Al       0.00000000       3.19737978       1.13923305        6
Al       2.76900796       1.59869229       3.41769915        7
