8
Lattice="6.128552541249027 2.704335706210394e-16 2.789872597114976e-48 -3.064276270624514 5.3074821891493364 -1.1033705637157534e-47 -2.128252092817989e-48 8.490429374469523e-48 4.675161434018956" Properties=species:S:1:pos:R:3:tags:I:1 spacegroup="P 1" unit_cell=conventional n_minim_iter=1 stress="0.0687570477574784 5.184657671598868e-17 -6.7900313771884195e-18 5.184657671598868e-17 0.06875704775747823 4.329109467279502e-19 -6.7900313771884195e-18 4.329109467279502e-19 0.07057203641114346" pbc="T T T"
Ti       3.06427628       3.57404168       1.16879036        0
Ti      -1.56306814       4.44076459       3.50637107        1
Ti       1.56306815       4.44076459       3.50637107        2
Ti       1.50120813       0.86672822       1.16879036        3
Ti       4.62734443       0.86672822       1.16879036        4
Ti       0.00000001       1.73345114       3.50637107        5
Al       0.00000001       3.53832677       1.16879036        6
Al       3.06427628       1.76916604       3.50637107        7
