8
Lattice="5.089789426268013 1.3693659424873545e-16 5.438121816700307e-49 -2.5448947131340063 4.407886943061523 -1.5789459696183382e-47 -1.253246373192083e-48 1.389362636954995e-47 4.288233474666116" Properties=species:S:1:pos:R:3:tags:I:1 spacegroup="P 1" unit_cell=conventional n_minim_iter=3 stress="-0.554610606864717 9.557726070949899e-17 4.849319752213909e-17 9.557726070949899e-17 -0.5546106068647159 -3.263493502054335e-16 4.849319752213909e-17 -3.263493502054335e-16 -0.5546143998271293" pbc="T T T"
Ti       2.54489472       2.91630345       1.07205837        0
Ti      -1.25314169       3.66209740       3.21617510        1
Ti       1.25314170       3.66209740       3.21617510        2
Ti       1.29175302       0.74579836       1.07205837        3
Ti       3.79803642       0.74579836       1.07205837        4
Ti       0.00000000       1.49159231       3.21617510        5
Al       0.00000000       2.93859571       1.07205837        6
Al       2.54489472       1.46930006       3.21617510        7
