8
Lattice="5.867822692195996 2.7716678460019323e-16 1.9295958016818094e-48 -2.933911346097998 5.081683516344527 -1.0136765477654459e-47 -1.41532509859659e-48 8.190890292778556e-48 4.5794684470984555" Properties=species:S:1:pos:R:3:tags:I:1 spacegroup="P 1" unit_cell=conventional n_minim_iter=3 stress="0.03605017357460079 2.8288854229930627e-17 3.595472920474642e-17 2.8288854229930627e-17 0.03605017357460056 3.3105844105425025e-18 3.595472920474642e-17 3.3105844105425025e-18 0.03518561637853381" pbc="T T T"
Ti       2.93391135       3.42779389       1.14486711        0
Ti      -1.50159650       4.25474125       3.43460133        1
Ti       1.50159651       4.25474125       3.43460133        2
Ti       1.43231484       0.82695244       1.14486711        3
Ti       4.43550786       0.82695244       1.14486711        4
Ti       0.00000001       1.65389980       3.43460133        5
Al       0.00000001       3.38779410       1.14486711        6
Al       2.93391135       1.69389959       3.43460133        7
