8
Lattice="5.177764911356774 1.824935064723147e-16 4.501783058016552e-49 -2.588882455678387 4.484075948058648 -1.5397763937796585e-47 -1.1602299474369393e-48 1.4097887717452833e-47 4.277417888703688" Properties=species:S:1:pos:R:3:tags:I:1 spacegroup="P 1" unit_cell=conventional n_minim_iter=3 stress="-0.46376501526380864 -2.6139374888697476e-16 1.1152505472049425e-17 -2.6139374888697476e-16 -0.4637650152638075 3.483483303716203e-18 1.1152505472049425e-17 3.483483303716203e-18 -0.46380044660681735" pbc="T T T"
Ti       2.58888246       2.97370311       1.06935447        0
Ti      -1.28085732       3.72889177       3.20806341        1
Ti       1.28085732       3.72889177       3.20806341        2
Ti       1.30802514       0.75519315       1.06935447        3
Ti       3.86973978       0.75519315       1.06935447        4
Ti       0.00000000       1.51038182       3.20806341        5
Al       0.00000000       2.98938845       1.06935447        6
Al       2.58888246       1.49469647       3.20806341        7
