8
Lattice="5.7689847388600395 2.841816583669066e-16 1.699847315277034e-48 -2.8844923694300197 4.9960873378975315 -9.791120472124548e-48 1.854056411868126e-48 2.0791140634175036e-47 4.630053769524094" Properties=species:S:1:pos:R:3:tags:I:1 spacegroup="P 1" unit_cell=conventional n_minim_iter=3 stress="0.026249684371394747 8.61254637009687e-18 -2.2027657096812242e-17 8.61254637009687e-18 0.026249684371394556 1.458432622596026e-17 -2.2027657096812242e-17 1.458432622596026e-17 0.02623007323689456" pbc="T T T"
Ti       2.88449237       3.37122250       1.15751344        0
Ti      -1.47731381       4.18365742       3.47254032        1
Ti       1.47731382       4.18365742       3.47254032        2
Ti       1.40717856       0.81243992       1.15751344        3
Ti       4.36180618       0.81243992       1.15751344        4
Ti       0.00000001       1.62487484       3.47254032        5
Al       0.00000001       3.33072989       1.15751344        6
Al       2.88449237       1.66536745       3.47254032        7
