8
Lattice="5.485916506730896 1.7791361363853327e-16 -9.589017024678852e-49 -2.742958253365448 4.750943057869338 -1.3850098043109459e-47 1.111127258893452e-48 1.3116350391434664e-47 4.524822722443369" Properties=species:S:1:pos:R:3:tags:I:1 spacegroup="P 1" unit_cell=conventional n_minim_iter=3 stress="-0.04883895681226766 5.657505926243682e-17 1.351696251546042e-18 5.657505926243682e-17 -0.04883895681226901 -6.997080042106172e-17 1.351696251546042e-18 -6.997080042106172e-17 -0.04880288175251905" pbc="T T T"
Ti       2.74295826       3.18451366       1.13120568        0
Ti      -1.38638648       3.96773074       3.39361704        1
Ti       1.38638649       3.96773074       3.39361704        2
Ti       1.35657177       0.78322183       1.13120568        3
Ti       4.12934475       0.78322183       1.13120568        4
Ti       0.00000000       1.56643890       3.39361704        5
Al       0.00000000       3.16730013       1.13120568        6
Al       2.74295826       1.58365244       3.39361704        7
