24
Lattice="9.091377924778802 0.8692686710511954 -1.5612438357298033 -3.417968890071401 6.184209173507798 1.2678675738666412 -1.9581525257554468 0.7611092250057699 8.857544772758905" Properties=species:S:1:pos:R:3 unique_starting_index=90 config_type=initial n_minim_iter=1 energy=-3910.788529842745 free_energy=-3910.788529842745 pbc="T T T"
Si       5.00188135       1.23323086       5.62848604
Si       0.75379717       2.87559735       1.00750360
Si       5.18765897       5.67580076       1.28432511
Si       0.63511583       0.55299981       1.11359156
Si       2.66373347       3.75595335       7.08329616
Si      -2.56817613       4.10003989       7.84345417
Si       0.49474534       1.92409629       2.88604809
Si       1.37356181       5.34725183       6.50633802
Si      -2.49923774       6.41541526       7.71403065
Si       5.24000740       2.62168302       4.02286674
Si       1.88550597       3.51042158       2.69571128
Si       3.26213541       7.02109436       1.90326012
Si       4.28977270       7.08346493      -0.01788785
Si       4.77118941       3.28285882       6.19757160
Si      -0.05149541       4.35204008       2.60553424
Si      -2.71549179       6.92873853      10.11887019
Si      -1.71315006       2.19604728       3.13617727
Si       2.80757463       5.96245606       7.93736243
Si       1.30535750       2.12811057       7.35419512
Si      -1.86204683       3.28531698       5.66487826
Si       1.32795713       6.73273956       4.89686994
Si       4.51671548       1.62675867       0.19115290
Si       5.78258406       4.07042447       2.55937778
Si       2.24466816       5.52301914       3.34533922
24
Lattice="9.105043706313577 0.8662599666749502 -1.5581518223038044 -3.425750761013259 6.188450063991269 1.2642383863288336 -1.956225138057492 0.7578187721220053 8.86800073864758" Properties=species:S:1:pos:R:3 unique_starting_index=90 config_type=initial n_minim_iter=2 stress="0.002307992482774505 0.002040556063633478 0.0032175385552335807 0.002040556063633478 0.0103667864377616 -0.0012290307347398723 0.0032175385552335807 -0.0012290307347398723 0.010285376246778584" pbc="T T T"
Si       5.01310343       1.22892074       5.63852370
Si       0.75429836       2.87640149       1.00772957
Si       5.19443961       5.67568359       1.28634519
Si       0.63658703       0.55246466       1.11523039
Si       2.67081612       3.75288653       7.09275529
Si      -2.56948279       4.09942710       7.85038756
Si       0.49617128       1.92332473       2.88941263
Si       1.37707422       5.34558247       6.51303836
Si      -2.50156777       6.41629983       7.71979408
Si       5.24999217       2.61846971       4.03040437
Si       1.88930726       3.51014014       2.69885272
Si       3.26542649       7.02227620       1.90416562
Si       4.29354450       7.08529032      -0.01877158
Si       4.78139253       3.27914802       6.20728643
Si      -0.05221449       4.35317401       2.60665430
Si      -2.71682664       6.92852151      10.12727850
Si      -1.71487478       2.19621435       3.13818167
Si       2.81444416       5.96029167       7.94704670
Si       1.31112202       2.12442772       7.36394219
Si      -1.86303368       3.28501216       5.66988139
Si       1.33003726       6.73308795       4.90064049
Si       4.52341127       1.62540473       0.19326532
Si       5.79157785       4.06854018       2.56430822
Si       2.24777891       5.52290871       3.34842497
24
Lattice="9.123212708831218 0.852338699224412 -1.5564598693196552 -3.4417136713259913 6.179209030722214 1.2596844223288879 -1.9605278035788294 0.7542805617921493 8.860951180124042" Properties=species:S:1:pos:R:3 unique_starting_index=90 config_type=initial n_minim_iter=3 stress="0.007990417853671798 -0.0042535659658321165 0.004214416873113766 -0.0042535659658321165 -0.003969226960296583 -0.00022924447596443085 0.004214416873113766 -0.00022924447596443085 0.002095238818480497" pbc="T T T"
Si       5.02290191       1.21743707       5.63392353
Si       0.75196032       2.86904295       1.00574735
Si       5.19760209       5.65585520       1.28243694
Si       0.63723106       0.54997101       1.11424921
Si       2.67191918       3.73691872       7.08627480
Si      -2.58000063       4.09037469       7.84218566
Si       0.49391003       1.91709405       2.88639349
Si       1.37247257       5.32693129       6.50501147
Si      -2.51509616       6.40309470       7.71114514
Si       5.25816766       2.60306517       4.02731642
Si       1.89060715       3.49891817       2.69552026
Si       3.26276920       7.00135209       1.89920737
Si       4.29319246       7.06337076      -0.02102625
Si       4.78767482       3.26207915       6.20158159
Si      -0.05864573       4.34287783       2.60197575
Si      -2.73082313       6.91254022      10.11549751
Si      -1.72068087       2.19161715       3.13438300
Si       2.81290445       5.93969592       7.93903462
Si       1.31207365       2.11261490       7.35824794
Si      -1.87101464       3.27760582       5.66402943
Si       1.32395759       6.71378236       4.89302317
Si       4.53006966       1.61536641       0.19194610
Si       5.79796516       4.05021888       2.56111415
Si       2.24481142       5.50504738       3.34335807
24
Lattice="9.124607711656859 0.8580686984942304 -1.5698536091124575 -3.440802312532259 6.181869522760174 1.2577066660392118 -1.9721346331109062 0.7446616514265241 8.862951272361904" Properties=species:S:1:pos:R:3 unique_starting_index=90 config_type=initial n_minim_iter=4 stress="0.007409512504065367 0.0004750209806364299 -0.004228836347419115 0.0004750209806364299 0.002182592048276093 -0.004019635393125711 -0.004228836347419115 -0.004019635393125711 -0.00031253961110971006" pbc="T T T"
Si       5.01552218       1.21679161       5.62533139
Si       0.75159976       2.87192335       1.00199495
Si       5.19702139       5.66234555       1.26792802
Si       0.63568779       0.54986075       1.11287818
Si       2.66302941       3.73308620       7.07937240
Si      -2.58908270       4.08523713       7.84126190
Si       0.48824852       1.91600526       2.88397234
Si       1.36414303       5.32059268       6.49631148
Si      -2.52303050       6.40145821       7.70880547
Si       5.25339907       2.60271273       4.01864905
Si       1.89083361       3.50116195       2.68949222
Si       3.26240112       7.00625571       1.88660660
Si       4.29622788       7.06993541      -0.03214188
Si       4.77970911       3.26046894       6.19173637
Si      -0.06013359       4.34409352       2.59633924
Si      -2.74093876       6.90702075      10.11154643
Si      -1.72274991       2.18827928       3.13416032
Si       2.80348344       5.93801135       7.92974943
Si       1.30364358       2.10475916       7.35522495
Si      -1.87766547       3.27376126       5.66316556
Si       1.31960062       6.71390500       4.88223947
Si       4.52816816       1.61815129       0.18219863
Si       5.79463252       4.05307292       2.54931704
Si       2.24122626       5.50514691       3.33456337
24
Lattice="9.10326918735418 0.8551068693829768 -1.559668170523659 -3.4332876885524755 6.183147615946964 1.2589221482762432 -1.9574739939606751 0.7510854651126925 8.868793820963646" Properties=species:S:1:pos:R:3 unique_starting_index=90 config_type=initial n_minim_iter=5 stress="0.004012051911783903 0.0010136325243399924 0.0011189307493765946 0.0010136325243399924 -0.00039516022610294445 0.002395320516717536 0.0011189307493765946 0.002395320516717536 0.0013189983278601904" pbc="T T T"
Si       5.01181125       1.22089663       5.63645410
Si       0.75056892       2.87318997       1.00658363
Si       5.18662417       5.66218264       1.27869722
Si       0.63542262       0.55081896       1.11505415
Si       2.66480632       3.73676637       7.09194887
Si      -2.57516369       4.09167105       7.84765372
Si       0.48875557       1.91891678       2.88802862
Si       1.36706616       5.32145116       6.50626153
Si      -2.50988730       6.40829486       7.71754772
Si       5.24703360       2.60432183       4.03118957
Si       1.89073406       3.50319590       2.69678565
Si       3.25637041       7.00635197       1.89643569
Si       4.28606781       7.06851294      -0.02045372
Si       4.77622932       3.26428382       6.20528927
Si      -0.05666168       4.34570279       2.60058262
Si      -2.72358538       6.91461207      10.12147306
Si      -1.71489922       2.18971510       3.13624408
Si       2.80532357       5.94314531       7.94461443
Si       1.30973762       2.10795551       7.36478366
Si      -1.86775814       3.27800716       5.66823063
Si       1.32135380       6.71574547       4.89129059
Si       4.51764031       1.61739791       0.18817269
Si       5.78405735       4.05336860       2.56146559
Si       2.23875360       5.50532871       3.34416198
24
Lattice="9.08739725925196 0.8494296697879742 -1.5584036347516104 -3.4322377698408433 6.185108990272632 1.2528411881491728 -1.9525905038239297 0.7448501280605406 8.86944593046331" Properties=species:S:1:pos:R:3 unique_starting_index=90 config_type=initial n_minim_iter=6 stress="-0.0012006593105726682 -0.0027362139502593104 0.0006988654572710659 -0.0027362139502593104 -0.001555802441708699 -0.003323367737708802 0.0006988654572710659 -0.003323367737708802 0.0009742404834954011" pbc="T T T"
Si       5.00456169       1.21206023       5.63742229
Si       0.74737965       2.87259807       1.00546059
Si       5.17467882       5.65688959       1.27552988
Si       0.63414857       0.54971830       1.11503430
Si       2.65925487       3.72826763       7.09136891
Si      -2.57228121       4.08766232       7.84487543
Si       0.48618825       1.91739739       2.88654291
Si       1.36193903       5.31372403       6.50270883
Si      -2.50905158       6.40457376       7.71318712
Si       5.23788981       2.59698040       4.03167184
Si       1.88640235       3.49964562       2.69477615
Si       3.24602994       7.00239409       1.89105602
Si       4.27335470       7.06597417      -0.02514582
Si       4.76737359       3.25595733       6.20510615
Si      -0.05834436       4.34374713       2.59647590
Si      -2.72149193       6.90815490      10.11701171
Si      -1.71236443       2.18767184       3.13449941
Si       2.79725342       5.93469654       7.94173081
Si       1.30820313       2.10009156       7.36426048
Si      -1.86609933       3.27479678       5.66602238
Si       1.31526855       6.71003138       4.88603037
Si       4.50862035       1.61396300       0.18767265
Si       5.77178542       4.04680827       2.56007497
Si       2.23119173       5.50002040       3.34079378
24
Lattice="9.088015029082646 0.850462727341987 -1.5590580579978288 -3.431782486332534 6.194005776456178 1.2582378134681915 -1.95530323899235 0.7534690707439992 8.862432085220664" Properties=species:S:1:pos:R:3 unique_starting_index=90 config_type=initial n_minim_iter=7 stress="0.0017036246656581444 -0.0035253079380952583 0.0004982967058835983 -0.0035253079380952583 0.004790419282434272 0.0024068652215144494 0.0004982967058835983 0.0024068652215144494 -0.006456456507693102" pbc="T T T"
Si       5.00524337       1.21613749       5.62969611
Si       0.74738802       2.88052540       1.01214329
Si       5.17767815       5.66422047       1.27849495
Si       0.63351266       0.55347734       1.11476018
Si       2.65775031       3.73884613       7.08992317
Si      -2.57479450       4.10300213       7.84136844
Si       0.48046569       1.92902143       2.88229265
Si       1.35938090       5.32414425       6.49834254
Si      -2.51218249       6.42071251       7.71305648
Si       5.23897778       2.60564210       4.03118496
Si       1.89111481       3.50620534       2.69485744
Si       3.24594800       7.01289153       1.89258037
Si       4.27356640       7.07661170      -0.01841048
Si       4.76519828       3.26987315       6.20174102
Si      -0.05451113       4.35236038       2.59392992
Si      -2.72167952       6.92492735      10.11653768
Si      -1.70994646       2.18945618       3.13408261
Si       2.79036316       5.95166965       7.93795578
Si       1.30652787       2.10893826       7.35526236
Si      -1.86865430       3.28456770       5.66430925
Si       1.31500589       6.71931370       4.88556542
Si       4.50781560       1.61797952       0.18794828
Si       5.76950008       4.05534080       2.56002415
Si       2.22887245       5.50691952       3.34312703
24
Lattice="9.086253027681742 0.8596070253914271 -1.564103315292481 -3.423928475254928 6.179403465732609 1.2598611678139193 -1.9564755346333846 0.7483453143441168 8.874708714415261" Properties=species:S:1:pos:R:3 unique_starting_index=90 config_type=initial n_minim_iter=8 stress="0.00023850213542639642 0.0006586085164583857 0.0002647890614896133 0.0006586085164583857 -0.003540680327765698 0.0011831257444429428 0.0002647890614896133 0.0011831257444429428 -0.0032273037848112866" pbc="T T T"
Si       5.00437755       1.21653730       5.63457759
Si       0.75008718       2.87864112       1.01390998
Si       5.18310885       5.65947793       1.27762137
Si       0.63336623       0.55418895       1.11626685
Si       2.65901106       3.73386495       7.09931313
Si      -2.57194885       4.09351892       7.85152853
Si       0.47887243       1.92881613       2.88532900
Si       1.36249153       5.31470111       6.50435543
Si      -2.50734618       6.40568819       7.72305931
Si       5.23994592       2.60687905       4.03578194
Si       1.89611190       3.50113855       2.69747651
Si       3.25183392       7.00377652       1.89187152
Si       4.27983265       7.06935642      -0.02009737
Si       4.76504416       3.26998975       6.20839957
Si      -0.04787811       4.34468178       2.59442066
Si      -2.71472275       6.90790407      10.13046863
Si      -1.70643126       2.18136662       3.13859751
Si       2.79073552       5.94415866       7.94611406
Si       1.30616334       2.10517718       7.36260958
Si      -1.86656234       3.27618782       5.67201859
Si       1.32089021       6.70637187       4.89002289
Si       4.50762011       1.62092039       0.18695293
Si       5.77032225       4.05432905       2.56097802
Si       2.23227905       5.49766905       3.34661711
24
Lattice="9.074914600987992 0.8549788064559108 -1.5757983210278297 -3.4224227356772956 6.180724827909757 1.272372390403059 -1.9638166820721301 0.7583639953146579 8.891923852299577" Properties=species:S:1:pos:R:3 unique_starting_index=90 config_type=initial n_minim_iter=9 stress="-0.004170704612795141 -0.0013692794019752618 -0.0038853535813496275 -0.0013692794019752618 -0.0013148060952560168 0.0037550512611586543 -0.0038853535813496275 0.0037550512611586543 0.001672331317659154" pbc="T T T"
Si       4.99398755       1.21621721       5.63762706
Si       0.74730953       2.88698308       1.01619824
Si       5.17576681       5.65659869       1.27965585
Si       0.63043102       0.55850847       1.11904088
Si       2.64721759       3.73899941       7.11586365
Si      -2.57919879       4.10697351       7.87043143
Si       0.46767034       1.93888559       2.89442613
Si       1.35026906       5.31960968       6.51555881
Si      -2.51767623       6.41112498       7.74402448
Si       5.23017508       2.61007332       4.04262019
Si       1.89559715       3.49751767       2.70424082
Si       3.24173544       7.00189356       1.89657720
Si       4.27020700       7.06697687      -0.01601204
Si       4.74986771       3.27686238       6.21743621
Si      -0.04567044       4.34763471       2.59736771
Si      -2.71993530       6.91970611      10.15706143
Si      -1.70561651       2.18037837       3.14913844
Si       2.76850380       5.95166131       7.96050439
Si       1.29558137       2.11201655       7.37591619
Si      -1.87298398       3.28321392       5.68699489
Si       1.31216539       6.70516930       4.90391095
Si       4.49861394       1.62090022       0.18393828
Si       5.75672220       4.05263658       2.56344888
Si       2.22145737       5.49628842       3.35756284
24
Lattice="9.073099452952704 0.8741092331888753 -1.5576387540868395 -3.4084215153418858 6.174413645773741 1.255891727400558 -1.9469349230173476 0.7438794379750902 8.867535363042355" Properties=species:S:1:pos:R:3 unique_starting_index=90 config_type=initial n_minim_iter=10 stress="-0.004903724127206126 0.0028315791524177025 0.00019271704903755846 0.0028315791524177025 -0.0011079431801613545 0.001505164066914069 0.00019271704903755846 0.001505164066914069 -0.00404305007059744" pbc="T T T"
Si       5.00810715       1.21701045       5.63117553
Si       0.75454993       2.89407565       1.01060906
Si       5.19048429       5.66533570       1.27774028
Si       0.63289603       0.56176761       1.11811805
Si       2.66740598       3.73613631       7.10302671
Si      -2.55850627       4.09759680       7.84222573
Si       0.47093753       1.94326563       2.88784586
Si       1.36977062       5.31400179       6.49364252
Si      -2.49508021       6.39621771       7.71309245
Si       5.24391963       2.61595923       4.04216666
Si       1.91121185       3.49358772       2.69757968
Si       3.25661658       7.00597926       1.88741936
Si       4.28146128       7.07684705      -0.01724543
Si       4.76612062       3.27930866       6.20777381
Si      -0.02695507       4.34606822       2.58104364
Si      -2.68558512       6.90501866      10.12069333
Si      -1.69506384       2.17064596       3.13813864
Si       2.78769515       5.94859043       7.93925759
Si       1.31151100       2.10531204       7.35945863
Si      -1.85806814       3.27437743       5.66740679
Si       1.33370268       6.70028529       4.88739789
Si       4.50025732       1.63075861       0.18956606
Si       5.76795898       4.05858947       2.56224176
Si       2.23569393       5.49558897       3.34883615
24
Lattice="9.08943392710019 0.8790676766159453 -1.5625911404070503 -3.4121597849289693 6.16523182478715 1.249152326728784 -1.9528436454436051 0.7301688457720126 8.87166081820661" Properties=species:S:1:pos:R:3 unique_starting_index=90 config_type=initial n_minim_iter=11 stress="-0.004557804404274342 0.003340119334491392 0.0008449906778606538 0.003340119334491392 0.0018508112710202925 0.0008270449076497234 0.0008449906778606538 0.0008270449076497234 0.0012832302092692853" pbc="T T T"
Si       5.02022526       1.21111551       5.63057314
Si       0.75655683       2.90409098       1.00639949
Si       5.20514331       5.66266517       1.26156010
Si       0.63184374       0.57025167       1.12196428
Si       2.67223133       3.72480280       7.10951924
Si      -2.56602858       4.09253891       7.83886989
Si       0.46046178       1.95961187       2.88591610
Si       1.36816178       5.29229820       6.48315187
Si      -2.50746053       6.37292950       7.70601545
Si       5.25874312       2.61043884       4.04550968
Si       1.92444682       3.46979210       2.69541855
Si       3.25949287       6.99336870       1.87461069
Si       4.28946503       7.07063272      -0.02545721
Si       4.77386759       3.26631715       6.20470721
Si      -0.00716470       4.34022288       2.56281034
Si      -2.68152865       6.88323586      10.12025987
Si      -1.69876925       2.15544694       3.14377109
Si       2.78126211       5.92674567       7.93323205
Si       1.31108350       2.09553575       7.35622754
Si      -1.86548124       3.26489233       5.66753477
Si       1.33833328       6.68455612       4.88180920
Si       4.50602051       1.63421129       0.18836206
Si       5.78020465       4.04400715       2.55491508
Si       2.23750292       5.48083087       3.34590604
24
Lattice="9.132520178510067 0.8876472948309105 -1.5934267750742863 -3.421996442986334 6.1379670765434255 1.262075130138668 -1.9869226455460063 0.7248107977721233 8.895029869719282" Properties=species:S:1:pos:R:3 unique_starting_index=90 config_type=initial n_minim_iter=12 stress="-0.0032585438827090495 0.004525340189082527 -1.5599479962219736e-05 0.004525340189082527 0.0008351742281364047 0.00018199642891104025 -1.5599479962219736e-05 0.00018199642891104025 0.005183460020822956" pbc="T T T"
Si       5.02963326       1.21191436       5.62827194
Si       0.75830436       2.91031515       1.00455737
Si       5.24044067       5.64452557       1.24393045
Si       0.62751809       0.58599174       1.12990169
Si       2.66560244       3.71731188       7.12802501
Si      -2.59886908       4.08847085       7.85831817
Si       0.43410015       1.97964761       2.88539367
Si       1.35559031       5.26227925       6.48499154
Si      -2.54481859       6.34226790       7.72565231
Si       5.28052182       2.60921193       4.04312631
Si       1.94569482       3.44485965       2.69968084
Si       3.26726431       6.96464191       1.86567904
Si       4.31004755       7.05592881      -0.03915812
Si       4.77964564       3.25427197       6.20260104
Si       0.02566276       4.32659454       2.54829658
Si      -2.69911111       6.85701480      10.14930759
Si      -1.71601982       2.13294561       3.16575052
Si       2.76397224       5.89386637       7.94045817
Si       1.29637188       2.08784145       7.36696096
Si      -1.89170672       3.25380161       5.68626250
Si       1.33879405       6.66251223       4.88986985
Si       4.51986904       1.63820288       0.17493312
Si       5.80296994       4.02548436       2.53711068
Si       2.24013539       5.45258526       3.34839813
24
Lattice="9.143176127901858 0.8800956312245223 -1.5977555702693635 -3.432881607726387 6.136153342731978 1.254435927212529 -1.9942502901363526 0.7144443827855198 8.888193350336117" Properties=species:S:1:pos:R:3 unique_starting_index=90 config_type=initial n_minim_iter=13 stress="-0.0017267559150275823 0.0037464083267706033 0.000706491642075981 0.0037464083267706033 0.003853288176700638 -0.004018348077189996 0.000706491642075981 -0.004018348077189996 0.0030698863555387807" pbc="T T T"
Si       5.03284420       1.18992003       5.61936769
Si       0.75405644       2.92080018       0.99627549
Si       5.24803272       5.63461367       1.22495504
Si       0.62145472       0.60131174       1.13642065
Si       2.66153286       3.70090707       7.13010078
Si      -2.61385195       4.09048241       7.84419150
Si       0.40582955       1.99567617       2.87525793
Si       1.34058872       5.24334683       6.46562090
Si      -2.56945042       6.33099639       7.71020835
Si       5.29125818       2.59914813       4.03677342
Si       1.96468287       3.42456245       2.69623502
Si       3.25442605       6.94755182       1.85063104
Si       4.30636049       7.04695886      -0.04507637
Si       4.77949512       3.23634239       6.19277287
Si       0.05507987       4.32560783       2.52111022
Si      -2.69873529       6.84366951      10.13524836
Si      -1.72672527       2.11593366       3.17214472
Si       2.74821016       5.86308329       7.92905513
Si       1.29294280       2.07498652       7.35543672
Si      -1.90588313       3.24981504       5.67982295
Si       1.33330792       6.65404077       4.87851027
Si       4.51831235       1.63634297       0.17110480
Si       5.80620784       4.00480441       2.52088696
Si       2.23315589       5.43350440       3.34013781
24
Lattice="9.15280190462732 0.8659683207200827 -1.608210553999276 -3.447043811459045 6.1398976737595214 1.259574949418238 -2.009601660521883 0.7199198672423873 8.880123636554348" Properties=species:S:1:pos:R:3 unique_starting_index=90 config_type=initial n_minim_iter=14 stress="0.003158357941564174 0.0007344952810985048 -0.0006756881053655619 0.0007344952810985048 0.006235292727962895 -0.0039056032382357117 -0.0006756881053655619 -0.0039056032382357117 0.004343388180648247" pbc="T T T"
Si       5.02888873       1.17801758       5.61032435
Si       0.74883297       2.93255520       0.98906131
Si       5.25203112       5.62254064       1.21362328
Si       0.61227348       0.61879838       1.14356398
Si       2.64726261       3.69937794       7.13019889
Si      -2.63748782       4.10429356       7.83551580
Si       0.37901526       2.01387161       2.86743241
Si       1.31833192       5.23526395       6.45331644
Si      -2.60323005       6.34012503       7.70472256
Si       5.29405664       2.59038727       4.02964727
Si       1.97703032       3.40386534       2.69368865
Si       3.23599705       6.93409318       1.84370146
Si       4.29841491       7.03390476      -0.04760915
Si       4.77123947       3.22765504       6.18122800
Si       0.07944913       4.33410003       2.49993999
Si      -2.71078681       6.84844379      10.13134901
Si      -1.74140642       2.10114655       3.17990779
Si       2.72365631       5.85076528       7.92575668
Si       1.28011034       2.07318853       7.34053280
Si      -1.92625354       3.25742683       5.67764831
Si       1.32082797       6.65531730       4.86726441
Si       4.51639096       1.63250403       0.16703539
Si       5.79885061       3.99519906       2.50392758
Si       2.22083782       5.42535825       3.33846864
24
Lattice="9.182853214901812 0.847955771278649 -1.6074689882462045 -3.4707423915223243 6.1407682415941025 1.2585959989746607 -2.023061345166068 0.725460902334563 8.84709592130875" Properties=species:S:1:pos:R:3 unique_starting_index=90 config_type=initial n_minim_iter=15 stress="0.010764436898236978 -0.003833000831962739 -0.0014329032473219137 -0.003833000831962739 0.0023040783640604708 -0.004818939765827544 -0.0014329032473219137 -0.004818939765827544 -0.0033438993650934433" pbc="T T T"
Si       5.03482136       1.15942947       5.58395567
Si       0.74601480       2.95129820       0.97114446
Si       5.27718224       5.60093792       1.20204778
Si       0.59530688       0.65117871       1.15680506
Si       2.64137008       3.70035700       7.12012299
Si      -2.66682021       4.11807050       7.80032909
Si       0.35119190       2.04400067       2.84682735
Si       1.30057555       5.22212220       6.42416601
Si      -2.65179079       6.34816085       7.67198192
Si       5.31639541       2.57307108       4.01887380
Si       2.00774242       3.36991238       2.68983750
Si       3.21718255       6.90759002       1.83222008
Si       4.29931273       7.01155145      -0.03949852
Si       4.77953007       3.21083706       6.15802061
Si       0.13792272       4.35446906       2.45456202
Si      -2.71219612       6.84394904      10.10529489
Si      -1.77613077       2.06454917       3.18680391
Si       2.70601815       5.82558107       7.91472398
Si       1.27882358       2.07722168       7.30762015
Si      -1.95444232       3.26755234       5.65789615
Si       1.31750957       6.65637842       4.83947938
Si       4.52025669       1.62668899       0.16483063
Si       5.80322694       3.98185454       2.48284605
Si       2.21306786       5.40284967       3.32947235
24
Lattice="9.18609589291802 0.8367665899649811 -1.6071668122485263 -3.480701422270407 6.155103749655335 1.2597595500223424 -2.0275428998831924 0.7325128869465622 8.832732932016693" Properties=species:S:1:pos:R:3 unique_starting_index=90 config_type=initial n_minim_iter=16 stress="0.013099412725158011 -0.006837735419766903 -0.0038953260757081916 -0.006837735419766903 0.0010238201194315841 -0.005096837319111545 -0.0038953260757081916 -0.005096837319111545 -0.007466187537826926" pbc="T T T"
Si       5.02999527       1.15049345       5.57794624
Si       0.74381494       2.96261582       0.96165159
Si       5.28047921       5.60217296       1.19733334
Si       0.58455510       0.66634219       1.16265788
Si       2.63559528       3.71165873       7.11555005
Si      -2.67979233       4.13270442       7.78539929
Si       0.34127544       2.06239112       2.83671113
Si       1.29020980       5.23153311       6.41417829
Si      -2.67492048       6.37189866       7.65959761
Si       5.31967396       2.57046624       4.01082596
Si       2.01685097       3.36186379       2.68962106
Si       3.20135685       6.90724628       1.82889853
Si       4.29223443       7.01175680      -0.03463187
Si       4.77683779       3.20767674       6.14844316
Si       0.16414546       4.37903894       2.43577012
Si      -2.71232635       6.85969876      10.09420825
Si      -1.79563176       2.04914580       3.19132121
Si       2.69109528       5.82766784       7.91223638
Si       1.27113392       2.07898189       7.29336379
Si      -1.96766230       3.28125592       5.64924560
Si       1.31206566       6.67010190       4.82595754
Si       4.51832220       1.62457322       0.16653704
Si       5.79688207       3.98010163       2.47822572
Si       2.20437111       5.40087530       3.32538186
24
Lattice="9.144329133944002 0.8206675757999016 -1.5887965202141001 -3.475971986785647 6.19508171577282 1.2669716006080258 -2.011417509471061 0.7629500519186363 8.794822026080793" Properties=species:S:1:pos:R:3 unique_starting_index=90 config_type=initial n_minim_iter=17 stress="0.011222879635475845 -0.015083379372949646 -0.0010746546808782554 -0.015083379372949646 0.00403978363697772 0.004953430995078553 -0.0010746546808782554 0.004953430995078553 -0.0025547064502114097" pbc="T T T"
Si       5.00390234       1.15726743       5.57232778
Si       0.74526946       2.98134547       0.94255643
Si       5.26747812       5.62477266       1.20826537
Si       0.56118162       0.69029371       1.16970885
Si       2.62045696       3.75176810       7.10772658
Si      -2.67578424       4.17407990       7.75284794
Si       0.33008194       2.10141605       2.82090688
Si       1.28254780       5.28323673       6.40395359
Si      -2.68995760       6.44680336       7.63561133
Si       5.30365714       2.57662575       4.00601942
Si       2.02705700       3.36843559       2.69411767
Si       3.16365690       6.92606277       1.84023309
Si       4.26255159       7.02913415      -0.00992530
Si       4.76161212       3.21873196       6.13593489
Si       0.21670845       4.45533987       2.41616911
Si      -2.68170032       6.91858728      10.07347041
Si      -1.82123415       2.01960890       3.19649252
Si       2.66490502       5.86828835       7.91640342
Si       1.26756760       2.11134743       7.26334738