22
Lattice="5.380948670057301 0.2871434829580542 0.3711048614904067 2.942923265418975 6.494157539957646 0.4935078582876538 1.949963561984495 1.3566915479993695 15.746365487811184" Properties=species:S:1:pos:R:3 unique_starting_index=40 config_type=initial n_minim_iter=1 energy=-3571.6791520589745 free_energy=-3571.6791520589745 pbc="T T T"
Si       7.88627336       3.50555471      13.05862144
Si       2.10838034       2.98501349       5.32492888
Si       5.48377716       1.11342997       6.89919824
Si       4.39741828       4.84118877      13.54754664
Si       4.70248634       3.41748411      15.15744255
Si       6.81543113       6.31834297       6.86122926
Si       6.11314323       2.37395778       2.53790569
Si       5.75128569       6.17900408       9.92371866
Si       4.53388109       2.94972194       0.46158325
Si       6.21589331       6.15896146      14.74575112
Si       4.99937048       3.19323704      10.47066120
Si       4.14129481       6.04518453      11.49283717
Si       2.37938411       3.48060977       0.96516588
Si       1.73028536       0.77742587       7.90259978
Si       3.95238830       1.39900812      15.44311802
Si       7.64447566       6.33821623       8.93791453
Si       3.97630140       3.94502966       5.97211173
Si       4.98418007       7.12969264       6.14339756
Si       4.92926227       4.93298594       3.85334213
Si       5.23892743       1.86210204       8.88039687
Si       6.97375048       2.06855873      14.78099557
Si       4.39772720       1.85085382       5.18224451
22
Lattice="5.457613970649382 0.44556169928566713 0.37164214000780693 3.182115590696092 6.472825861237014 0.42269695596402806 2.026914240846829 1.2177545995671963 15.742880132951939" Properties=species:S:1:pos:R:3 unique_starting_index=40 config_type=initial n_minim_iter=2 stress="0.04752276407295436 0.005902574218672163 -0.00019961782991958197 0.005902574218672163 0.014647707260149754 -0.006727808080086448 -0.00019961782991958197 -0.006727808080086448 0.010859047697447957" pbc="T T T"
Si       8.10887933       3.55529681      13.03118369
Si       2.25151178       2.91391986       5.26091542
Si       5.58577780       1.18069990       6.89747555
Si       4.61452042       4.77003865      13.49000004
Si       4.92366471       3.31916237      15.13223946
Si       7.09010659       6.34562531       6.82637511
Si       6.24201065       2.53137191       2.50111371
Si       6.04978945       6.12324846       9.88970462
Si       4.70171287       3.01037590       0.42353570
Si       6.50322846       6.07675719      14.69476729
Si       5.17490517       3.22274869      10.47251448
Si       4.37861126       5.93287383      11.47235044
Si       2.48644276       3.49949985       0.94712023
Si       1.78757127       0.69088095       7.88392148
Si       4.01491784       1.28572529      15.44434040
Si       7.94669114       6.36399738       8.87843178
Si       4.17874122       3.92766625       5.88671985
Si       5.27874129       7.16383247       6.04625907
Si       5.14352420       4.94739870       3.79692017
Si       5.35621511       1.92265167       8.86752247
Si       7.12655625       2.10676182      14.80507712
Si       4.48315407       1.88536391       5.15921002
22
Lattice="5.40155506927555 0.5968540812138116 0.370364067009525 3.3419316632608496 6.394651241146069 0.3671709473186784 2.0532150595775707 1.1099749656787492 15.649225041286606" Properties=species:S:1:pos:R:3 unique_starting_index=40 config_type=initial n_minim_iter=3 stress="0.004031565189567399 0.010400163833490801 -0.009791600117813173 0.010400163833490801 -0.014534126449844326 -0.019876675484063945 -0.009791600117813173 -0.019876675484063945 -0.02019034748236204" pbc="T T T"
Si       8.13378219       3.60496229      12.93516290
Si       2.33930176       2.82986723       5.16935702
Si       5.54974903       1.24983811       6.85666671
Si       4.71924793       4.69358408      13.36303410
Si       5.02783233       3.23084907      15.02611647
Si       7.18882633       6.33155426       6.77164282
Si       6.21739014       2.67163326       2.45289340
Si       6.20169509       6.03707990       9.81688934
Si       4.75504026       3.04188614       0.39037052
Si       6.63047748       5.97789494      14.57376178
Si       5.22697201       3.25346364      10.42412278
Si       4.50522179       5.79495148      11.40461587
Si       2.52841631       3.48761055       0.93553489
Si       1.79813933       0.61597406       7.81848627
Si       3.97011448       1.19445156      15.35799567
Si       8.05267634       6.35384589       8.78334967
Si       4.28131964       3.89161568       5.77047129
Si       5.44725735       7.15541718       5.92897058
Si       5.22962225       4.92401168       3.73040017
Si       5.34291137       1.98795681       8.80614349
Si       7.10579532       2.16297161      14.74955819
Si       4.45380639       1.91078090       5.11011026
22
Lattice="5.374235361601378 0.6493432921121978 0.4106320354903311 3.388951894973889 6.400977167431959 0.4359279514031213 2.1558608106101222 1.2324008196725118 15.823106028897644" Properties=species:S:1:pos:R:3 unique_starting_index=40 config_type=initial n_minim_iter=4 stress="0.00573050312844171 0.00786686575598557 -0.003731912525267755 0.00786686575598557 -0.009328939550552834 -0.009889565851916781 -0.003731912525267755 -0.009889565851916781 -0.001472250569835062" pbc="T T T"
Si       8.20729258       3.76184741      13.13587591
Si       2.39944810       2.86237866       5.23167478
Si       5.56537762       1.33890737       6.96308758
Si       4.82868720       4.82362736      13.54784601
Si       5.15482636       3.35702021      15.22565117
Si       7.24914352       6.41897148       6.94378587
Si       6.20724768       2.75830320       2.52384089
Si       6.30536018       6.12647481      10.00849031
Si       4.76762872       3.06293610       0.43967305
Si       6.74940473       6.10914258      14.79966235
Si       5.30113612       3.38875700      10.59966000
Si       4.60643640       5.88330676      11.60538494
Si       2.53552522       3.51029385       0.99728681
Si       1.85131789       0.66143453       7.90089903
Si       4.03559935       1.31280361      15.54489376
Si       8.12546609       6.46188825       8.96329201
Si       4.34779251       3.95350278       5.85144148
Si       5.52699013       7.25316123       6.05667256
Si       5.26867637       4.96920890       3.82859447
Si       5.37844962       2.10741835       8.93934331
Si       7.17700571       2.33697128      14.97084295
Si       4.45909868       1.96878983       5.19618717
22
Lattice="5.332671256300788 0.6965335512012062 0.4354624459653906 3.415482644187697 6.49822961659888 0.5052048676178315 2.2402379488816435 1.41771464718094 15.463968037772588" Properties=species:S:1:pos:R:3 unique_starting_index=40 config_type=initial n_minim_iter=5 stress="0.008581502280271821 -0.009369239177449612 0.0005196463026724605 -0.009369239177449612 -0.0006549145909648942 0.0074135832803827965 0.0005196463026724605 0.0074135832803827965 -0.03674566817349057" pbc="T T T"
Si       8.24810809       3.99655020      12.89734725
Si       2.46863888       2.95930373       5.09226085
Si       5.55356253       1.44625880       6.83803504
Si       4.91289643       5.06725203      13.28460946
Si       5.27505672       3.55752277      14.92513618
Si       7.28906972       6.61086523       6.92235210
Si       6.16191286       2.90405260       2.50536868
Si       6.37642385       6.30786674       9.89859058
Si       4.76799961       3.10700667       0.47771720
Si       6.82555025       6.34344014      14.52835094
Si       5.35647979       3.62714036      10.44587405
Si       4.67280339       6.07822873      11.43898341
Si       2.51285608       3.58290137       1.03668292
Si       1.90670269       0.70660418       7.69712867
Si       4.06184482       1.48187286      15.21718405
Si       8.17786346       6.68681167       8.84111834
Si       4.41023602       4.09047953       5.71213521
Si       5.55702414       7.47945695       5.99189861
Si       5.27816194       5.07307493       3.79854302
Si       5.36983112       2.28476892       8.76966526
Si       7.22271300       2.58892916      14.70071569
Si       4.41974400       2.03231889       5.11014858
22
Lattice="5.288431079878782 0.7372497755238974 0.4353321703443558 3.4393626191491653 6.542410055635202 0.4862743530924879 2.229399413925332 1.3860973857617567 15.556452810269604" Properties=species:S:1:pos:R:3 unique_starting_index=40 config_type=initial n_minim_iter=6 stress="-0.017483644475148094 0.004595768183834917 -0.0030251891197529096 0.004595768183834917 0.0033500501834506356 0.004513296836877679 -0.0030251891197529096 0.004513296836877679 -0.02472572085140239" pbc="T T T"
Si       8.20558739       4.02915388      12.96416829
Si       2.48669660       2.97351463       5.09329552
Si       5.50783201       1.46561686       6.87198488
Si       4.91188420       5.08168204      13.35047569
Si       5.27042740       3.54876260      15.01099498
Si       7.27751970       6.66635548       6.95595505
Si       6.11931266       2.96948117       2.50512600
Si       6.37282967       6.33058946       9.95488941
Si       4.75395390       3.14265866       0.46815972
Si       6.81268844       6.35512814      14.59394804
Si       5.34064096       3.66430117      10.51336241
Si       4.67600627       6.08767104      11.49934961
Si       2.50824470       3.61062875       1.03508726
Si       1.90102909       0.67787082       7.73419079
Si       4.02101964       1.45708941      15.31306134
Si       8.16592840       6.74301839       8.87375255
Si       4.41542861       4.11888920       5.71210619
Si       5.56374102       7.53567036       6.00047357
Si       5.26885983       5.10601410       3.79882955
Si       5.32789965       2.31303298       8.81765971
Si       7.17820011       2.61165086      14.79373429
Si       4.37587680       2.03923675       5.13563269
22
Lattice="5.26541907427859 0.6417542797115453 0.44828354842720136 3.325405685568667 6.38865257144611 0.42120680281765877 2.226080519989301 1.1392818500683184 15.875060597884385" Properties=species:S:1:pos:R:3 unique_starting_index=40 config_type=initial n_minim_iter=7 stress="-0.001887679779707002 -0.01589361896665685 0.002856671811548638 -0.01589361896665685 -0.0052943428785057365 -0.011718408791295824 0.002856671811548638 -0.011718408791295824 0.012382899351653813" pbc="T T T"
Si       8.14319179       3.68499548      13.20971036
Si       2.45049396       2.85620349       5.14086467
Si       5.47009090       1.27488867       7.00247432
Si       4.84464918       4.76772329      13.59273531
Si       5.22866349       3.22073690      15.30606795
Si       7.15778911       6.38854853       7.03672822
Si       6.05208672       2.82612290       2.53183948
Si       6.26760601       6.00674915      10.11830948
Si       4.69299134       3.01885441       0.45159725
Si       6.71324678       5.96880025      14.83361602
Si       5.28911300       3.41838407      10.71624083
Si       4.58087074       5.78095630      11.67438865
Si       2.43652673       3.50357032       1.01468663
Si       1.90877719       0.52517274       7.89086916
Si       4.00224291       1.18456889      15.63400610
Si       8.06394758       6.42082208       9.00916414
Si       4.35940467       3.92417031       5.76779530
Si       5.43615738       7.25520150       6.05372415
Si       5.17551411       4.89228072       3.81587503
Si       5.28349198       2.09825298       8.99182749
Si       7.15909426       2.29090216      15.09369963
Si       4.33168472       1.85302033       5.24054367
22
Lattice="5.277244900521367 0.6688427414502867 0.44982575018495097 3.362194266154694 6.356004400812529 0.4829078850239723 2.228217095583038 1.285900819927175 15.957240078076438" Properties=species:S:1:pos:R:3 unique_starting_index=40 config_type=initial n_minim_iter=8 stress="-0.0016089771653096893 -0.003050151503908979 -0.007516503316325247 -0.003050151503908979 0.0043652843848654395 0.00500567774391772 -0.007516503316325247 0.00500567774391772 0.014561068957252614" pbc="T T T"
Si       8.16952496       3.81451817      13.29924362
Si       2.47329209       2.92134557       5.16435765
Si       5.47568403       1.36290675       7.03940490
Si       4.87611967       4.87171149      13.71435934
Si       5.24105303       3.35041339      15.40714197
Si       7.17720861       6.45222730       7.11410582
Si       6.06832770       2.87687137       2.56266445
Si       6.30238010       6.07386238      10.22717935
Si       4.71314152       3.02988222       0.48221756
Si       6.74125823       6.07628807      14.94429311
Si       5.31271993       3.52727982      10.80117672
Si       4.60970584       5.85966905      11.77052968
Si       2.45258542       3.49202253       1.04734083
Si       1.91489900       0.59006291       7.92894275
Si       4.00498859       1.34733673      15.71885912
Si       8.11003097       6.49996775       9.12218692
Si       4.39410825       3.96870040       5.80850533
Si       5.48804405       7.25439853       6.16410850
Si       5.20298433       4.90340137       3.86397813
Si       5.29701335       2.19455134       9.04658079
Si       7.19779788       2.45086328      15.17097593
Si       4.34076089       1.88411915       5.29370322
22
Lattice="5.304315376151603 0.6964653641676821 0.5492728662037889 3.4188210430024673 6.291734636971435 0.5418637110211598 2.534090933835432 1.292069359625156 15.980224892241731" Properties=species:S:1:pos:R:3 unique_starting_index=40 config_type=initial n_minim_iter=9 stress="-0.020125530567837308 -0.001959706864833409 0.014104084224243538 -0.001959706864833409 -0.0008521513822507356 0.004591505424184653 0.014104084224243538 0.004591505424184653 -0.0026686023150912334" pbc="T T T"
Si       8.45999106       3.82342395      13.43826534
Si       2.60620025       2.92237620       5.17242918
Si       5.62682535       1.39211076       7.14205861
Si       5.17746924       4.84386749      13.80411891
Si       5.56044810       3.33453955      15.48970725
Si       7.35458122       6.42743938       7.24254370
Si       6.13979778       2.90428893       2.66920840
Si       6.55181769       6.02996178      10.34240935
Si       4.75213203       3.02485473       0.57296059
Si       7.06700795       6.03702316      15.04517555
Si       5.55146030       3.53962270      10.89958912
Si       4.86977123       5.81200402      11.83501334
Si       2.49056034       3.45987466       1.09028339
Si       2.06958435       0.58138207       7.95045915
Si       4.30083871       1.36482585      15.77847458
Si       8.33846863       6.47629705       9.27832973
Si       4.55069625       3.94577178       5.85497889
Si       5.65920092       7.18627147       6.26344065
Si       5.31353639       4.86261724       3.94147801
Si       5.48963454       2.21378911       9.13092911
Si       7.53227133       2.48198540      15.28683491
Si       4.44347076       1.86976935       5.38048061
22
Lattice="5.341792568274567 0.7114489567647102 0.5447625149138484 3.461033413222435 6.205700559824397 0.5497696835108196 2.534866017733319 1.302470894022123 16.02125969045256" Properties=species:S:1:pos:R:3 unique_starting_index=40 config_type=initial n_minim_iter=10 stress="-0.009592426619851173 0.002972765362639049 0.006128253898916832 0.002972765362639049 -0.02717418007430922 0.004781113044421496 0.006128253898916832 0.004781113044421496 -0.0027752611573060144" pbc="T T T"
Si       8.51403036       3.81610718      13.46990809
Si       2.64039930       2.90629634       5.15238789
Si       5.65177512       1.41065602       7.16428834
Si       5.21905051       4.80660264      13.85935186
Si       5.59509670       3.30709264      15.53009827
Si       7.41309849       6.37904887       7.28107303
Si       6.17489219       2.91687862       2.66706130
Si       6.60975321       5.96328866      10.38650417
Si       4.79255123       3.00268343       0.57899035
Si       7.11271672       5.98207414      15.08088250
Si       5.59269996       3.54447912      10.94322749
Si       4.90199451       5.74770413      11.86727200
Si       2.50524466       3.41673914       1.09798267
Si       2.07230911       0.56907292       7.96288363
Si       4.29744840       1.37797244      15.81750162
Si       8.40047345       6.42353316       9.31941161
Si       4.60331898       3.90609767       5.83730824
Si       5.71396517       7.10895711       6.28150448
Si       5.35429451       4.80197598       3.93676342
Si       5.52401418       2.22695813       9.14579528
Si       7.59614566       2.50451043      15.32103861
Si       4.45100418       1.84372546       5.40579919
22
Lattice="5.352661706189108 0.7161501598935119 0.5312035021219842 3.472654662119963 6.209140939904439 0.5290334601659176 2.5002521791680796 1.2701173400891346 16.04716270631813" Properties=species:S:1:pos:R:3 unique_starting_index=40 config_type=initial n_minim_iter=11 stress="0.006450848623659093 0.006390146271405385 0.0027688444523712493 0.006390146271405385 -0.000253162307972236 -0.00275294172291599 0.0027688444523712493 -0.00275294172291599 0.007137131712504036" pbc="T T T"
Si       8.50280866       3.79349460      13.47056237
Si       2.64504277       2.91413741       5.11500168
Si       5.64320890       1.41027418       7.17172711
Si       5.20852781       4.78158937      13.88579861
Si       5.57365192       3.26082238      15.54405367
Si       7.41370942       6.38572058       7.28307271
Si       6.17274475       2.94369488       2.64583314
Si       6.60997577       5.93755839      10.39264420
Si       4.80168025       3.01326325       0.56940236
Si       7.09309335       5.95155168      15.07864060
Si       5.58580673       3.54662925      10.95941983
Si       4.88382617       5.72150401      11.86349168
Si       2.50162390       3.41728807       1.08721452
Si       2.04992818       0.53316010       7.96829666
Si       4.25141418       1.34430065      15.83741133
Si       8.39366306       6.41189388       9.32354911
Si       4.61806048       3.89473154       5.79846261
Si       5.71588396       7.10387084       6.26423769
Si       5.35461978       4.79021181       3.90441402
Si       5.52109121       2.22556989       9.14180964
Si       7.60228714       2.48562993      15.32711221
Si       4.43085080       1.81112704       5.41905056
22
Lattice="5.366035444802303 0.69734990604869 0.5124517619296275 3.4577694751063066 6.141811833765643 0.5490857073542905 2.434622793504196 1.3209647280535783 16.16531869635277" Properties=species:S:1:pos:R:3 unique_starting_index=40 config_type=initial n_minim_iter=12 stress="0.030494683225082694 -0.00361121910009943 0.008635703623398328 -0.00361121910009943 -0.0009467260952481517 0.0039040442686733394 0.008635703623398328 0.0039040442686733394 0.016718207467463983" pbc="T T T"
Si       8.46353891       3.78664836      13.54964576
Si       2.63330789       2.91410930       5.08341973
Si       5.64107346       1.43615323       7.22956888
Si       5.17095471       4.78494255      14.03429630
Si       5.52527949       3.24180512      15.66181265
Si       7.37010946       6.36534010       7.38125249
Si       6.14611753       2.96004284       2.63771798
Si       6.57056475       5.88057228      10.50075161
Si       4.79142381       2.98760247       0.58543378
Si       7.02288786       5.92777554      15.17753152
Si       5.55649713       3.57991153      11.05841367
Si       4.81808653       5.69192916      11.95376437
Si       2.47858458       3.38108779       1.09474862
Si       2.00368412       0.51188195       8.01068313
Si       4.15811082       1.38121649      15.94308466
Si       8.35393441       6.37127286       9.40717160
Si       4.62402661       3.84817509       5.77368087
Si       5.66799494       7.06602225       6.31767746
Si       5.32452878       4.73354649       3.89244341
Si       5.51150653       2.26604861       9.19900838
Si       7.61130693       2.51926050      15.41457966
Si       4.37789651       1.75371460       5.48912195
22
Lattice="5.328609380106034 0.6634516495734685 0.4369330252865515 3.3918991376929877 6.171481785943177 0.49081006739355115 2.1926015932327023 1.274199396698366 16.185845096857868" Properties=species:S:1:pos:R:3 unique_starting_index=40 config_type=initial n_minim_iter=13 stress="0.010741503128963121 -0.0023760149606454548 -0.011854364217308677 -0.0023760149606454548 0.006654960538963757 0.0012388005533727094 -0.011854364217308677 0.0012388005533727094 0.012578971361929092" pbc="T T T"
Si       8.21627127       3.71749214      13.46392885
Si       2.54203250       2.90267190       4.99276737
Si       5.51579746       1.41020140       7.20907058
Si       4.94836341       4.76307145      14.04487608
Si       5.27472668       3.14445119      15.64072530
Si       7.16182171       6.36978842       7.36246822
Si       6.03503423       2.98013921       2.53992437
Si       6.37037782       5.83810638      10.44953392
Si       4.71709797       2.99258306       0.53632418
Si       6.73420905       5.88485861      15.10574493
Si       5.36627385       3.57023966      11.03168706
Si       4.58371572       5.66509863      11.91187645
Si       2.42306931       3.39320698       1.04824390
Si       1.87259846       0.43696541       7.99964553
Si       3.87594706       1.31518220      15.93102129
Si       8.13045680       6.35245201       9.31946775
Si       4.51855596       3.79820444       5.65841932
Si       5.49894585       7.10655527       6.24706394
Si       5.20114357       4.72453531       3.77413383
Si       5.36340396       2.26127089       9.15301349
Si       7.41290469       2.45818520      15.35016867
Si       4.24198326       1.69875925       5.46936118
22
Lattice="5.316147349581884 0.6681461584100884 0.44107810326880753 3.391187341071101 6.22600753072963 0.4477794744570435 2.220148508935296 1.1839077320498106 15.98384432508367" Properties=species:S:1:pos:R:3 unique_starting_index=40 config_type=initial n_minim_iter=14 stress="0.00644297773688749 -0.003936227727631472 -0.0029012861665915976 -0.003936227727631472 0.015914000102839113 -0.01014739585564821 -0.0029012861665915976 -0.01014739585564821 -0.010312171010334433" pbc="T T T"
Si       8.22889722       3.66209062      13.28623445
Si       2.55339575       2.88008220       4.87151143
Si       5.49933949       1.39282171       7.12041165
Si       4.99006378       4.72721981      13.87983756
Si       5.30771527       3.03933173      15.44929037
Si       7.13454742       6.40192319       7.31287173
Si       6.00808128       3.02215406       2.48819016
Si       6.38947263       5.81137264      10.30209822
Si       4.68661941       3.02693561       0.53474363
Si       6.74706977       5.84030264      14.88252395
Si       5.38740954       3.54830406      10.89631017
Si       4.59610252       5.63199422      11.73582320
Si       2.42373652       3.41775976       1.00300065
Si       1.90142638       0.35732056       7.91278113
Si       3.88685608       1.22287155      15.73955731
Si       8.12192610       6.35820001       9.17802376
Si       4.53812350       3.77100245       5.52842682
Si       5.50926889       7.16608825       6.13886124
Si       5.18996739       4.74831784       3.66955010
Si       5.38788752       2.25663042       9.04791954
Si       7.46057688       2.39634602      15.15224172
Si       4.22923781       1.66514970       5.42317132
22
Lattice="5.331828959432731 0.6614572658492706 0.4516496774626948 3.390154815410904 6.230121627344967 0.4809313950432743 2.249983539270213 1.2495646376490799 16.006948187015876" Properties=species:S:1:pos:R:3 unique_starting_index=40 config_type=initial n_minim_iter=15 stress="0.01604613908650646 -0.003976384443897451 0.0008134492543144863 -0.003976384443897451 0.01178749176977805 -0.0015669688067911833 0.0008134492543144863 -0.0015669688067911833 0.01620897815417988" pbc="T T T"
Si       8.26672292       3.70430666      13.31942396
Si       2.55894962       2.87881409       4.91205803
Si       5.53883015       1.41245140       7.13495121
Si       5.02057928       4.78219779      13.92322375
Si       5.33646583       3.10068123      15.49108864
Si       7.15213217       6.43268992       7.36110436
Si       6.02962432       3.00381496       2.50770108
Si       6.40470397       5.86027514      10.32051959
Si       4.67411159       3.03040412       0.55352358
Si       6.77981803       5.91094327      14.93446271
Si       5.41303097       3.56086048      10.91565234
Si       4.62291491       5.68329318      11.77533076
Si       2.44827598       3.41493745       1.00143845
Si       1.90650384       0.40007906       7.94128593
Si       3.96002186       1.29327204      15.77360129
Si       8.14773022       6.39662226       9.22539092
Si       4.53974152       3.78200115       5.57752173
Si       5.52072275       7.18693587       6.20903246
Si       5.19967239       4.78242671       3.69884221
Si       5.42466178       2.28653873       9.09035499
Si       7.47784113       2.45121763      15.16403456
Si       4.25379441       1.70723797       5.42854262
22
Lattice="5.338704644288882 0.6751944596543381 0.4704278156730128 3.411113856692957 6.213739214302342 0.5095967437320975 2.307521760320159 1.2948158434585058 16.020766637685604" Properties=species:S:1:pos:R:3 unique_starting_index=40 config_type=initial n_minim_iter=16 stress="0.0025426275883353696 0.0004607938010403169 0.00897167801773023 0.0004607938010403169 0.0006154737820585911 0.006583107526041027 0.00897167801773023 0.006583107526041027 0.011835261393296971" pbc="T T T"
Si       8.32839996       3.74406814      13.34768480
Si       2.58798557       2.87635015       4.90445053
Si       5.57137388       1.44190516       7.17125524
Si       5.09659102       4.82072803      13.97158619
Si       5.41615937       3.12222370      15.52940198
Si       7.17826417       6.47147170       7.41457767
Si       6.03974105       3.02124447       2.51874883
Si       6.45114471       5.87234373      10.34839570
Si       4.65919237       3.03338982       0.57394064
Si       6.84865194       5.95124903      14.97523643
Si       5.46950561       3.58572578      10.95050486
Si       4.68015335       5.69642831      11.81272793
Si       2.47126836       3.40425992       1.00002506
Si       1.93154262       0.41083771       7.96185970
Si       4.02704521       1.34098918      15.79584541
Si       8.21815737       6.43682325       9.28951323
Si       4.57954700       3.78916859       5.58729575
Si       5.56386028       7.19739462       6.27684887
Si       5.21785312       4.80021681       3.70814344
Si       5.46972371       2.32450483       9.11728775
Si       7.54195030       2.51796444      15.18970166
Si       4.26679547       1.70482015       5.45781250
22
Lattice="5.354908415218173 0.7146415357741667 0.452287203258859 3.4664825446207415 6.202600586899353 0.5100595861942798 2.269614831786097 1.3287023785145984 16.003818606887496" Properties=species:S:1:pos:R:3 unique_starting_index=40 config_type=initial n_minim_iter=17 stress="0.008411226923832489 0.003937932334763645 -0.005756805837078097 0.003937932334763645 0.010113592784099184 0.007053364739747114 -0.005756805837078097 0.007053364739747114 -0.00990625725144883" pbc="T T T"
Si       8.33734453       3.79671941      13.29009735
Si       2.60212256       2.86443524       4.83984755
Si       5.57166704       1.48658184       7.17323453
Si       5.13056264       4.86319869      13.99209865
Si       5.43919788       3.11943118      15.52165683
Si       7.20784066       6.54138011       7.45871096
Si       6.04886207       3.06519348       2.46432319
Si       6.47132488       5.88829464      10.29043865
Si       4.62713461       3.05717823       0.55095992
Si       6.85789155       6.00124927      14.95140497
Si       5.48966821       3.60460350      10.93631006
Si       4.69680705       5.69979881      11.80617533
Si       2.51745408       3.39279859       0.95775275
Si       1.87699864       0.40745621       8.00241329
Si       4.01325189       1.39141726      15.77622118
Si       8.27474780       6.52176870       9.28150416
Si       4.61808172       3.79829487       5.53883901
Si       5.59518403       7.22366127       6.31896902
Si       5.23280543       4.85002238       3.65163464
Si       5.48991398       2.37853744       9.10360883
Si       7.54108540       2.61212260      15.14381380
Si       4.26518649       1.70130509       5.46860370
22
Lattice="5.356549062374205 0.7265746493308207 0.450759797323728 3.4838098170969833 6.159316659719008 0.5121117421540049 2.264803268446852 1.3276075983784315 16.061869042064895" Properties=species:S:1:pos:R:3 unique_starting_index=40 config_type=initial n_minim_iter=18 stress="-0.0077632936966272395 0.001386038716904932 -0.001781047599895599 0.001386038716904932 0.00846438488013185 0.00020170011078468977 -0.001781047599895599 0.00020170011078468977 -0.014810938795925566" pbc="T T T"
Si       8.34457909       3.78484861      13.31160131
Si       2.61493277       2.83433656       4.80259338
Si       5.57237730       1.50290798       7.21104330
Si       5.16262548       4.84823411      14.07734004
Si       5.47177549       3.07495283      15.59373733
Si       7.19506423       6.53383460       7.55184355
Si       6.03671841       3.07545128       2.43732393
Si       6.48514760       5.84985363      10.29268713
Si       4.58963699       3.05064182       0.53954342
Si       6.86120576       5.97495888      15.00016605
Si       5.50932989       3.58459882      10.98188895
Si       4.70575106       5.65303134      11.85665703
Si       2.52687998       3.35880654       0.92793381
Si       1.84834124       0.38446903       8.06185191
Si       4.01745612       1.40338481      15.83532086
Si       8.29818207       6.52233678       9.34937422
Si       4.63937530       3.76554717       5.51681333
Si       5.59932666       7.19954581       6.37244022
Si       5.22357611       4.84820275       3.62371387
Si       5.50756738       2.38905591       9.14088186
Si       7.56541734       2.63767844      15.18997973
Si       4.26418638       1.67632712       5.51007298