24
Lattice="7.0897099324728865 -1.9051560835814898 0.3110523269085993 0.5775934616806042 7.9931314229585855 0.24138579559817613 2.143601714984729 2.8261226687512564 9.683371166746321" Properties=species:S:1:pos:R:3 unique_starting_index=94 config_type=initial n_minim_iter=1 energy=-3921.754062212478 free_energy=-3921.754062212478 pbc="T T T"
Si       8.61133334       5.64293103       8.10394512
Si      -0.48490131       2.88095747       3.62973448
Si       2.69485178       6.73645900       1.44124923
Si       6.51328407       9.28743122       7.86036011
Si       5.31043735       1.55890136       1.85206142
Si       5.98322929       4.44037801       9.99727106
Si       4.52866213       0.66539088       3.61102850
Si       3.75931667       0.00956194       1.71623468
Si       7.09214893       0.40300806       5.93455326
Si       7.41026261       6.30533993       6.48108426
Si       4.82869310       6.16948193       9.51892351
Si       5.57749474       1.85546536       5.59306744
Si       1.31607843       5.94172557       2.85020329
Si       3.05231520       5.78528643       7.99480736
Si       7.21257086       2.91661762       4.60255084
Si       6.45045463       5.25899654       8.08661987
Si       5.36031791       2.51304518       9.28453570
Si       1.76597857       4.82459888       1.07620414
Si       7.09172101       2.50583287       2.51943447
Si       4.52744601       4.33397259       8.49303908
Si       6.35098221       4.49438981       3.42526750
Si       1.93002244       0.84782669       0.82025678
Si       4.95760555       8.63854725       9.19984936
Si       5.29902953       2.65778282       3.65938462
24
Lattice="7.09703362656911 -1.9036216561331647 0.3101003032868745 0.5805685634211403 7.99549083300382 0.2403172587942534 2.1455230771032427 2.8265202238239 9.676787932602524" Properties=species:S:1:pos:R:3 unique_starting_index=94 config_type=initial n_minim_iter=2 stress="0.005414739531530301 0.0018417138594928055 -0.00019890370983280116 0.0018417138594928055 0.0036705776662644147 0.00018102555925691914 -0.00019890370983280116 0.00018102555925691914 0.0002677478772516366" pbc="T T T"
Si       8.62152673       5.64638092       8.09697279
Si      -0.48539709       2.88120143       3.62701337
Si       2.69977321       6.73877541       1.43914934
Si       6.52221686       9.29101927       7.85356035
Si       5.31628819       1.56031678       1.85007279
Si       5.99035081       4.44242481       9.98983286
Si       4.53359966       0.66671737       3.60762646
Si       3.76336066       0.01076079       1.71504466
Si       7.09948590       0.40440934       5.93023896
Si       7.41959838       6.30825511       6.47548156
Si       4.83434347       6.17139691       9.51180430
Si       5.58364063       1.85697630       5.58854401
Si       1.31923072       5.94357940       2.84744133
Si       3.05644872       5.78715116       7.98873749
Si       7.22077945       2.91919391       4.59869586
Si       6.45803984       5.26166793       8.08023192
Si       5.36559193       2.51448602       9.27811232
Si       1.76988254       4.82667006       1.07425894
Si       7.09998323       2.50846976       2.51657176
Si       4.53271534       4.33581215       8.48679322
Si       6.35864533       4.49681100       3.42188332
Si       1.93195531       0.84841122       0.81945505
Si       4.96423720       8.64124699       9.19295641
Si       5.30530999       2.65974672       3.65605706
24
Lattice="7.096631599233283 -1.9034519650112123 0.30953283309874946 0.5796104355424583 7.991187318017133 0.2389707227044794 2.1441687303750223 2.8234200769645423 9.669774382060954" Properties=species:S:1:pos:R:3 unique_starting_index=94 config_type=initial n_minim_iter=3 stress="9.353186458547343e-06 -0.00035707503237190045 -6.700164004531981e-05 -0.00035707503237190045 -0.005587550656085724 8.348714437693312e-05 -6.700164004531981e-05 8.348714437693312e-05 -0.009704916113326235" pbc="T T T"
Si       8.61946836       5.64160332       8.08973903
Si      -0.48660732       2.87920342       3.62382550
Si       2.69887450       6.73448339       1.43683904
Si       6.51986996       9.28414644       7.84640676
Si       5.31519693       1.55811212       1.84822144
Si       5.98899103       4.43808271       9.98213109
Si       4.53322531       0.66569034       3.60408894
Si       3.76293526       0.01047594       1.71409550
Si       7.09844885       0.40225973       5.92619776
Si       7.41779240       6.30269370       6.46973871
Si       4.83200123       6.16589142       9.50431064
Si       5.58268494       1.85448445       5.58386209
Si       1.31852299       5.94002703       2.84425046
Si       3.05501884       5.78291617       7.98220200
Si       7.21926765       2.91637706       4.59503414
Si       6.45605785       5.25730027       8.07359156
Si       5.36369382       2.51143498       9.27162566
Si       1.76999052       4.82427247       1.07197533
Si       7.09879520       2.50621860       2.51371850
Si       4.53120446       4.33214583       8.48024402
Si       6.35692009       4.49264027       3.41850555
Si       1.93122957       0.84746321       0.81867566
Si       4.96177282       8.63461276       9.18572121
Si       5.30443291       2.65732045       3.65265560
24
Lattice="7.0945135383561935 -1.9052683744001824 0.30944375735885427 0.5779588842228108 7.992984887545823 0.23694531307486463 2.1416339537846603 2.8210573994063775 9.679204734648412" Properties=species:S:1:pos:R:3 unique_starting_index=94 config_type=initial n_minim_iter=4 stress="0.0006619879967237268 -0.0020654688146123632 -0.0012416374333921755 -0.0020654688146123632 -0.002870722584577523 -0.002146215115772178 -0.0012416374333921755 -0.002146215115772178 -6.264971877062745e-05" pbc="T T T"
Si       8.61450273       5.63986449       8.09521575
Si      -0.48877538       2.87892326       3.62606518
Si       2.69704946       6.73480503       1.43593752
Si       6.51476937       9.28273182       7.85149124
Si       5.31244353       1.55600623       1.84916483
Si       5.98571919       4.43548423       9.99114511
Si       4.53190723       0.66471633       3.60609299
Si       3.76141206       0.01007391       1.71651943
Si       7.09543762       0.39878221       5.93287197
Si       7.41342894       6.30005122       6.47420791
Si       4.82713483       6.16320977       9.51260273
Si       5.58015459       1.85220086       5.58813311
Si       1.31721106       5.94076587       2.84481290
Si       3.05227332       5.78221378       7.98854478
Si       7.21528510       2.91492722       4.59932482
Si       6.45151510       5.25582305       8.08007269
Si       5.35942798       2.50890117       9.28136832
Si       1.77009233       4.82581257       1.07018294
Si       7.09540788       2.50533525       2.51420424
Si       4.52794390       4.33062656       8.48774795
Si       6.35274387       4.49036250       3.42031085
Si       1.92954444       0.84681610       0.81920565
Si       4.95682381       8.63286801       9.19358335
Si       5.30205448       2.65618754       3.65490256
24
Lattice="7.0905940138032815 -1.9033881434998277 0.31048742041117156 0.5806026075072975 7.996575880911417 0.24053036261454167 2.1441970556095495 2.8271499507707856 9.680663181078048" Properties=species:S:1:pos:R:3 unique_starting_index=94 config_type=initial n_minim_iter=5 stress="-0.0015973696260145503 -0.00016493426983825161 0.0006820384397081182 -0.00016493426983825161 -0.0006290865856055491 0.0011825280892727359 0.0006820384397081182 0.0011825280892727359 -0.0016188948185548936" pbc="T T T"
Si       8.61468260       5.64902472       8.09941138
Si      -0.48687173       2.88147093       3.62685706
Si       2.69883219       6.73905288       1.43945598
Si       6.51695312       9.29213802       7.85698583
Si       5.31103842       1.55898701       1.85117466
Si       5.98726943       4.44378590       9.99431095
Si       4.53108978       0.66835653       3.60716120
Si       3.75999387       0.01247610       1.71777735
Si       7.09386060       0.40379088       5.93507432
Si       7.41396057       6.30760542       6.47871655
Si       4.82930143       6.17132324       9.51644839
Si       5.57993459       1.85721374       5.59003909
Si       1.31962164       5.94504438       2.84731110
Si       3.05522484       5.78938520       7.99143506
Si       7.21399735       2.92084590       4.60269711
Si       6.45234325       5.26402055       8.08385197
Si       5.35995173       2.51592464       9.28395208
Si       1.77167020       4.82915569       1.07243396
Si       7.09367196       2.51018510       2.51680968
Si       4.52965264       4.33773063       8.49050353
Si       6.35210607       4.49545603       3.42386979
Si       1.92897743       0.84814642       0.82007205
Si       4.95998127       8.64208834       9.19844845
Si       5.30161846       2.66072754       3.65720450
24
Lattice="7.085695646412564 -1.8966717286844879 0.3103786433636961 0.5883824429564892 7.998340934222225 0.2374298858693816 2.1450424616121695 2.826098462569776 9.678833914650326" Properties=species:S:1:pos:R:3 unique_starting_index=94 config_type=initial n_minim_iter=6 stress="-0.0024271893599021386 0.004343002410182614 -0.0007705295578841095 0.004343002410182614 -0.0023550272253859417 -0.0020003969809788674 -0.0007705295578841095 -0.0020003969809788674 -5.222885422868316e-05" pbc="T T T"
Si       8.61652887       5.65707707       8.09481305
Si      -0.48402773       2.88017085       3.62573530
Si       2.70620013       6.74218065       1.43639606
Si       6.52141532       9.29694882       7.85301070
Si       5.31199704       1.56282688       1.84913666
Si       5.98769656       4.44630675       9.99117875
Si       4.52823674       0.67217679       3.60593484
Si       3.75703656       0.01730204       1.71855778
Si       7.09055999       0.40721706       5.93479660
Si       7.41653943       6.31134868       6.47493719
Si       4.83081355       6.17199134       9.51430791
Si       5.58028754       1.86013333       5.58761993
Si       1.32492597       5.94640511       2.84272217
Si       3.05994712       5.79212923       7.98758866
Si       7.21243892       2.92742356       4.60187468
Si       6.45301595       5.26975793       8.08129440
Si       5.35767959       2.51802786       9.28344564
Si       1.77629445       4.83202644       1.07097871
Si       7.09391546       2.51841668       2.51372328
Si       4.53153491       4.33982772       8.48791960
Si       6.35292504       4.49890068       3.42150565
Si       1.92837211       0.84990391       0.81965864
Si       4.96671091       8.64603881       9.19333424
Si       5.30185632       2.66445929       3.65476687
24
Lattice="7.088753073489973 -1.9019781732269 0.3109070345737361 0.584167035168172 8.004421652908373 0.24048121835427394 2.1459218482031894 2.830808060921582 9.676942834198664" Properties=species:S:1:pos:R:3 unique_starting_index=94 config_type=initial n_minim_iter=7 stress="-3.4238810343803466e-05 -0.00031320167076123045 0.0015914189803617204 -0.00031320167076123045 0.0004619574437706184 -0.0008450097080200878 0.0015914189803617204 -0.0008450097080200878 -0.0007721849631615455" pbc="T T T"
Si       8.61819264       5.66150811       8.09477687
Si      -0.48463330       2.88424213       3.62562414
Si       2.70558088       6.74644626       1.43890793
Si       6.51813404       9.30341113       7.85577110
Si       5.31508335       1.56064946       1.84941169
Si       5.98831907       4.44943674       9.99033233
Si       4.52849446       0.67230199       3.60554956
Si       3.75695595       0.01775862       1.71996657
Si       7.09339152       0.40393966       5.93520779
Si       7.41626061       6.31229730       6.47608694
Si       4.82869286       6.17630749       9.51558430
Si       5.58330054       1.85977991       5.58670989
Si       1.32276151       5.95164934       2.84203753
Si       3.06021802       5.80013703       7.98654752
Si       7.21265229       2.92804464       4.60407713
Si       6.45228853       5.27502383       8.08240574
Si       5.35795842       2.52030331       9.28381272
Si       1.77502842       4.83618165       1.07340516
Si       7.09588623       2.51912756       2.51406281
Si       4.53248338       4.34376401       8.48745782
Si       6.35203651       4.49772592       3.42346016
Si       1.92806134       0.84991738       0.82026743
Si       4.96627062       8.65473242       9.19351408
Si       5.30261311       2.66418200       3.65480112
24
Lattice="7.088889966738296 -1.9015268532011824 0.30462645172243363 0.5843567081769072 8.004740878197111 0.24509115918747335 2.1392047710900273 2.8370214326100642 9.677622098247522" Properties=species:S:1:pos:R:3 unique_starting_index=94 config_type=initial n_minim_iter=8 stress="0.000181552721828473 0.00013141123352959874 -0.0017587531711742979 0.00013141123352959874 -0.0004842307813411647 0.002209037470454144 -0.0017587531711742979 0.002209037470454144 0.0008311196549799908" pbc="T T T"
Si       8.61384793       5.66784983       8.09224370
Si      -0.48686051       2.88674312       3.62799266
Si       2.70604357       6.74755606       1.44140667
Si       6.51254004       9.30882433       7.85758252
Si       5.31535118       1.56152193       1.84616847
Si       5.98144399       4.45542027       9.98943016
Si       4.52590615       0.67540678       3.60307878
Si       3.75505992       0.01990107       1.71783551
Si       7.08945633       0.40669941       5.93091514
Si       7.41209205       6.31585702       6.47441561
Si       4.82135829       6.18189968       9.51721357
Si       5.58032411       1.86312309       5.58403736
Si       1.32103578       5.95396964       2.84414915
Si       3.05570170       5.80634562       7.98783394
Si       7.20943796       2.93141187       4.60122151
Si       6.44649018       5.28136089       8.08176178
Si       5.35115369       2.52642177       9.28245257
Si       1.77528216       4.83745314       1.07510735
Si       7.09450052       2.52152188       2.51062486
Si       4.52686476       4.34928648       8.48721930
Si       6.34993336       4.49923585       3.42187299
Si       1.92738976       0.85063514       0.81962147
Si       4.96071938       8.66122519       9.19547285
Si       5.30027354       2.66588259       3.65241886
24
Lattice="7.086109636134178 -1.9012747222859838 0.3037908944459715 0.5869848034566778 8.014310162988107 0.2444683412500428 2.138537479566689 2.8405806732843772 9.67174987909697" Properties=species:S:1:pos:R:3 unique_starting_index=94 config_type=initial n_minim_iter=9 stress="5.205737632368495e-05 0.0002835639005010928 -0.00041483992256450224 0.0002835639005010928 0.001112191162515478 -4.566560294801019e-05 -0.00041483992256450224 -4.566560294801019e-05 -4.273588872661581e-05" pbc="T T T"
Si       8.61581905       5.67981885       8.08628354
Si      -0.48506187       2.89067785       3.62589326
Si       2.71108038       6.75595801       1.44078873
Si       6.51041206       9.32221774       7.85332518
Si       5.31869076       1.56332508       1.84348628
Si       5.97915747       4.45991059       9.98340262
Si       4.52419353       0.68036373       3.60161602
Si       3.75038456       0.02403920       1.71829176
Si       7.08639977       0.40426063       5.92760090
Si       7.41002420       6.32262766       6.46646294
Si       4.81691860       6.18813244       9.51407985
Si       5.58080943       1.86550986       5.58013184
Si       1.32217549       5.96315268       2.83961908
Si       3.05922180       5.81725547       7.98073556
Si       7.20642864       2.93713323       4.59810443
Si       6.44337168       5.29280417       8.07725022
Si       5.34806056       2.53085025       9.27734139
Si       1.77936632       4.84508957       1.07307507
Si       7.09191246       2.52808174       2.50912704
Si       4.52597088       4.35556594       8.48120829
Si       6.34897589       4.50372643       3.41867006
Si       1.92631602       0.85288719       0.81956049
Si       4.96231379       8.67352533       9.18848516
Si       5.29857934       2.66665780       3.64738770
24
Lattice="7.0877656783211975 -1.8992754449608567 0.3053519114435729 0.5889989935640084 8.013362305572253 0.24841614308860913 2.142938040091703 2.8450853376332903 9.677213255212052" Properties=species:S:1:pos:R:3 unique_starting_index=94 config_type=initial n_minim_iter=10 stress="0.0025923283817735785 0.0007765965162262793 0.0021964799907214214 0.0007765965162262793 -0.002688416965095385 0.0011366739052241952 0.0021964799907214214 0.0011366739052241952 0.002768172624291097" pbc="T T T"
Si       8.62462446       5.68636899       8.09481912
Si      -0.48234159       2.89229110       3.62839479
Si       2.71546495       6.75574418       1.44608694
Si       6.51554523       9.32668021       7.86335998
Si       5.32239153       1.56279906       1.84577020
Si       5.98470335       4.46494377       9.99093938
Si       4.52748732       0.68451516       3.60515882
Si       3.75021308       0.02700755       1.72197460
Si       7.08979440       0.40485771       5.93231561
Si       7.41426469       6.32467955       6.47175594
Si       4.82045323       6.19001436       9.52360906
Si       5.58556444       1.86827334       5.58529489
Si       1.32412241       5.96495533       2.84249563
Si       3.06643399       5.82277156       7.98599900
Si       7.21018162       2.93996535       4.60332783
Si       6.44761755       5.29943799       8.08532299
Si       5.35283212       2.53624613       9.28294359
Si       1.78210138       4.84610004       1.07651009
Si       7.09665071       2.53170887       2.51426089
Si       4.53052707       4.36042165       8.48753545
Si       6.35215106       4.50434373       3.42349675
Si       1.92667155       0.85377491       0.82144910
Si       4.96872131       8.67792280       9.19715876
Si       5.30135877       2.66807978       3.65045041
24
Lattice="7.082579777356434 -1.902316791760383 0.3010477182862581 0.588113732408648 8.02492507540208 0.24829053026536474 2.135723900399644 2.849485951750335 9.671230947720519" Properties=species:S:1:pos:R:3 unique_starting_index=94 config_type=initial n_minim_iter=11 stress="0.00041336978832028467 -9.843919536804167e-05 5.4327551236637415e-05 -9.843919536804167e-05 0.0019094194251166115 0.000629789637723467 5.4327551236637415e-05 0.000629789637723467 0.0018469929925642747" pbc="T T T"
Si       8.61607627       5.69649346       8.08609267
Si      -0.48314373       2.89702481       3.62709261
Si       2.71404256       6.76487460       1.44489606
Si       6.50475689       9.34108099       7.85679083
Si       5.31859504       1.56243215       1.84083971
Si       5.97437809       4.47136063       9.98274588
Si       4.52306010       0.68679059       3.60121787
Si       3.74479275       0.02822390       1.72117947
Si       7.08051601       0.40164615       5.92514437
Si       7.40357924       6.33177971       6.46224937
Si       4.80880158       6.19644953       9.51812980
Si       5.57919801       1.87017048       5.57998902
Si       1.32051460       5.97482070       2.83932058
Si       3.06200227       5.83356121       7.97909530
Si       7.20194891       2.94347202       4.59678466
Si       6.43674409       5.30956408       8.07838726
Si       5.34335231       2.54047173       9.27443427
Si       1.78054797       4.85384500       1.07567213
Si       7.09152923       2.53632494       2.50970122
Si       4.52171995       4.36738299       8.48062182
Si       6.34456701       4.50907354       3.41762601
Si       1.92414896       0.85516831       0.82057034
Si       4.95948512       8.69100245       9.18992892
Si       5.29492476       2.67126852       3.64441817
24
Lattice="7.078995492908889 -1.9020954257618132 0.2970797517903832 0.589444859154789 8.030661179579212 0.24903705663207046 2.1304479212551906 2.853245369913367 9.668294068707171" Properties=species:S:1:pos:R:3 unique_starting_index=94 config_type=initial n_minim_iter=12 stress="0.0013106287072775856 -0.00019626917962721143 0.0003612014789290405 -0.00019626917962721143 0.0020067275198980745 -0.0006813466044326457 0.0003612014789290405 -0.0006813466044326457 0.0038808605736591556" pbc="T T T"
Si       8.61420248       5.70896308       8.07904085
Si      -0.48027833       2.90062448       3.62713318
Si       2.71629354       6.76949498       1.44503886
Si       6.49885075       9.35194726       7.85414664
Si       5.31984451       1.56041958       1.83812538
Si       5.96718522       4.47573962       9.97783181
Si       4.52153648       0.68964575       3.59991650
Si       3.73900483       0.03188753       1.72409181
Si       7.07166708       0.39592475       5.91924894
Si       7.39549243       6.33251965       6.45475375
Si       4.79679404       6.19897335       9.51972306
Si       5.57614534       1.87177942       5.57733871
Si       1.31923169       5.98410591       2.83756645
Si       3.06363055       5.84504434       7.97280481
Si       7.19781516       2.94580441       4.59257906
Si       6.42844572       5.32179093       8.07451559
Si       5.33598058       2.54759939       9.26786499
Si       1.78092277       4.85829407       1.07659473
Si       7.08908276       2.53891608       2.50514465
Si       4.51520461       4.37167621       8.47631002
Si       6.33689035       4.51073202       3.41195896
Si       1.92289578       0.85511274       0.82038503
Si       4.95321123       8.70071302       9.18770957
Si       5.29127659       2.67653979       3.63696248
24
Lattice="7.076675095420633 -1.9006624487216537 0.291298530590924 0.5919620569502295 8.035901817623948 0.25178982161029284 2.1244453088928434 2.8597347826817945 9.661909853135626" Properties=species:S:1:pos:R:3 unique_starting_index=94 config_type=initial n_minim_iter=13 stress="0.0010349337912850419 -0.00013552041959188945 -4.053650316321159e-05 -0.00013552041959188945 0.0009546503682455086 -0.0007014288146031467 -4.053650316321159e-05 -0.0007014288146031467 0.0002562678588906487" pbc="T T T"
Si       8.61444717       5.72706662       8.06697265
Si      -0.47717363       2.90552289       3.62582613
Si       2.71983297       6.77488028       1.44461748
Si       6.49595822       9.36475346       7.85114576
Si       5.32192997       1.55842435       1.83466519
Si       5.96202875       4.48269965       9.96986461
Si       4.52300357       0.69400759       3.59921699
Si       3.73346321       0.03706012       1.72572473
Si       7.06188638       0.39076401       5.91029143
Si       7.38826018       6.33220622       6.44573192
Si       4.78273437       6.20373580       9.51996020
Si       5.57323922       1.87706628       5.56646928
Si       1.31570383       5.99364684       2.83636453
Si       3.06677515       5.86108192       7.96273778
Si       7.19673530       2.95032515       4.58637438
Si       6.41969429       5.33765611       8.06875772
Si       5.32763723       2.55675967       9.25768609
Si       1.78224220       4.86273041       1.07895891
Si       7.09025913       2.54318381       2.49873655
Si       4.50843482       4.37915426       8.46850179
Si       6.33095729       4.51689491       3.40337475
Si       1.92286388       0.85370385       0.81987852
Si       4.94664813       8.71470691       9.18506335
Si       5.28727888       2.67963461       3.62996875
24
Lattice="7.074008530778453 -1.9007115181558976 0.2869888133009567 0.5929249237725995 8.041857647361038 0.2567652722729078 2.120048637954963 2.868429626748513 9.66238834421779" Properties=species:S:1:pos:R:3 unique_starting_index=94 config_type=initial n_minim_iter=14 stress="0.0008519717800802039 -0.0003691949782763911 -0.00019608994299202115 -0.0003691949782763911 0.0011973341962120785 -0.0007743477826170771 -0.00019608994299202115 -0.0007743477826170771 -0.0009189049110459996" pbc="T T T"
Si       8.61552654       5.74698315       8.06295628
Si      -0.47251800       2.91131044       3.62632249
Si       2.72007066       6.78047399       1.44763800
Si       6.49379775       9.37846892       7.85315574
Si       5.32318714       1.55651358       1.83466898
Si       5.95802504       4.49259645       9.96986215
Si       4.52369796       0.69515934       3.60253736
Si       3.72960917       0.04178990       1.72900895
Si       7.05065717       0.38715879       5.90762152
Si       7.38032486       6.33193591       6.44303499
Si       4.77001159       6.20813357       9.52760588
Si       5.57164136       1.88124087       5.56341495
Si       1.31023555       6.00253201       2.83789566
Si       3.06985775       5.88024258       7.95863457
Si       7.19637310       2.95758686       4.58352811
Si       6.40911252       5.35244810       8.07336502
Si       5.32037407       2.56440140       9.25643190
Si       1.78424279       4.86895260       1.08402964
Si       7.08727906       2.54723344       2.49885340
Si       4.50247125       4.39077133       8.46792968
Si       6.32464112       4.52398498       3.39934157
Si       1.92397324       0.85253946       0.81985235
Si       4.93972722       8.73192838       9.19063370
Si       5.28577961       2.68427873       3.62557962
24
Lattice="7.0723646665825415 -1.8970904283374657 0.284174390417859 0.596256256640662 8.040260217869083 0.2588660881179666 2.117818713293227 2.8713785513985677 9.665231702708317" Properties=species:S:1:pos:R:3 unique_starting_index=94 config_type=initial n_minim_iter=15 stress="0.0006960255677054192 -0.00032927735163951416 -0.00027178672979103174 -0.00032927735163951416 0.0006679684399943763 -0.0010134951686420442 -0.00027178672979103174 -0.0010134951686420442 -0.0006833650494539753" pbc="T T T"
Si       8.62058051       5.75941280       8.06170646
Si      -0.46867396       2.91142633       3.62853052
Si       2.72127766       6.78014452       1.45106261
Si       6.49598467       9.38185741       7.85457268
Si       5.32276643       1.55414990       1.83565840
Si       5.95763062       4.49406909       9.97460474
Si       4.52649192       0.69583719       3.60437217
Si       3.72846904       0.04582323       1.73213433
Si       7.04178343       0.38483966       5.90778173
Si       7.37632216       6.32788254       6.44076346
Si       4.76245577       6.20901065       9.53683488
Si       5.57230322       1.88311748       5.56276587
Si       1.30910876       6.00359588       2.83753562
Si       3.07402584       5.89046089       7.95609571
Si       7.19795080       2.96442627       4.58139367
Si       6.40342265       5.35928131       8.07757203
Si       5.31746746       2.56835631       9.25770380
Si       1.78771461       4.86930330       1.08800432
Si       7.08715086       2.55110280       2.49771343
Si       4.49932523       4.39366670       8.46881067
Si       6.32112512       4.52773617       3.39662319
Si       1.92639797       0.85251599       0.81879444
Si       4.93780792       8.73777881       9.19343965
Si       5.28664262       2.68612088       3.62372741
24
Lattice="7.072339775961279 -1.8955233629655426 0.27908492561249315 0.597361185097187 8.03894468292559 0.26189752868132754 2.112595296707053 2.875299087727186 9.663926226963799" Properties=species:S:1:pos:R:3 unique_starting_index=94 config_type=initial n_minim_iter=16 stress="0.0005396978382249592 -0.0002224909871908396 -0.0005016003989229252 -0.0002224909871908396 -0.0005014816437538042 0.0001775487829160602 -0.0005016003989229252 0.0001775487829160602 -0.002018842766482415" pbc="T T T"
Si       8.62441323       5.77261532       8.05535335
Si      -0.46660250       2.91165368       3.63169359
Si       2.72077471       6.78098661       1.45567359
Si       6.49399509       9.38503250       7.85351974
Si       5.32381790       1.55135426       1.83592464
Si       5.95295974       4.49782183       9.97224572
Si       4.52980129       0.69469158       3.60374476
Si       3.72747408       0.04546492       1.73443681
Si       7.03187641       0.37959901       5.90438823
Si       7.36909236       6.32213672       6.43538097
Si       4.75299881       6.20730772       9.54176360
Si       5.57148408       1.88585258       5.55723810
Si       1.30695458       6.00581928       2.83665063
Si       3.07540672       5.90199815       7.94957015
Si       7.19787432       2.97221154       4.57490530
Si       6.39515542       5.36493724       8.07704762
Si       5.31408734       2.57205391       9.25383118
Si       1.79022828       4.87058598       1.09168920
Si       7.08524424       2.55239227       2.49064007
Si       4.49240385       4.39759016       8.46642589
Si       6.31560464       4.53137282       3.39161925
Si       1.92867476       0.85337455       0.81596430
Si       4.93047908       8.74277124       9.19155766
Si       5.28707090       2.68630528       3.62191573
24
Lattice="7.0721230927687175 -1.8937929658587975 0.28062074186965846 0.5985464581276096 8.036211940530125 0.2633999065947245 2.1154987942750103 2.876216322403135 9.665405819060942" Properties=species:S:1:pos:R:3 unique_starting_index=94 config_type=initial n_minim_iter=17 stress="-0.0003157674698443362 -0.0004244144156431894 0.0011484873188295755 -0.0004244144156431894 -0.0007544785335523945 0.001637344858191897 0.0011484873188295755 0.001637344858191897 3.789711748144142e-05" pbc="T T T"
Si       8.63345046       5.78245440       8.05608557
Si      -0.46087049       2.91151465       3.63450629
Si       2.72262239       6.78156806       1.45912130
Si       6.49711241       9.38425252       7.85747797
Si       5.32514046       1.54895781       1.83748008
Si       5.95817292       4.49706762       9.97663820
Si       4.53403383       0.69134403       3.60891289
Si       3.72788326       0.04317920       1.73801980
Si       7.02777476       0.37312519       5.90917777
Si       7.36731723       6.31398026       6.43787972
Si       4.75260474       6.20419569       9.55011677
Si       5.57471936       1.88743134       5.55929770
Si       1.30511806       6.00580182       2.83717840
Si       3.08323002       5.90842894       7.94649184
Si       7.19963540       2.97809990       4.57337758
Si       6.39488529       5.36653526       8.08020240
Si       5.31880464       2.57280962       9.25616616