14
Lattice="5.844226262106265 -0.3009265969442493 1.5213384252112565 2.2480755564441632 6.584739760953058 -0.08587088790647797 2.2631536439753326 1.2459529980940032 8.77927820651874" Properties=species:S:1:pos:R:3 unique_starting_index=86 config_type=initial n_minim_iter=1 energy=-2273.54997800909 free_energy=-2273.54997800909 pbc="T T T"
Si       6.89827495       3.77937270       7.47190649
Si       6.53894683       1.15795744       5.38033724
Si       4.33257429       3.11784247       4.01390602
Si       6.85984870       2.73789541       3.79207900
Si       5.54342365       4.65597430       8.84576266
Si       2.19515645       1.74268632       0.92872365
Si       2.78347559       4.35931890       2.97412431
Si       8.21232339       2.44981453       8.57621603
Si       4.07778079       2.50030276       1.84537426
Si       6.27600896       5.99840688       7.35488824
Si       3.68274104       1.45571288       8.34871532
Si       6.53806436       4.87507588       3.67607621
Si       5.19106652       2.89270924       6.09138630
Si       3.86474207       6.41926545       2.10629932
14
Lattice="5.182424623408173 -0.2775803241750629 1.725643358873512 1.9899619493794052 6.783268201746796 0.056518210307263866 2.1926300683007476 1.4154826791362383 9.297342517469579" Properties=species:S:1:pos:R:3 unique_starting_index=86 config_type=initial n_minim_iter=2 stress="-0.009025314965453769 -0.003314481854292719 -0.005877741962741681 -0.003314481854292719 0.0039841244026747056 0.010765215339843693 -0.005877741962741681 0.010765215339843693 0.0040303637700087915" pbc="T T T"
Si       6.26120643       4.00313858       7.97835439
Si       5.85729966       1.24671405       5.78965025
Si       4.00730897       3.30714628       4.34959613
Si       6.09118182       2.87633879       4.19376888
Si       5.06524274       4.95686183       9.52258085
Si       1.90025782       1.78224202       1.05470753
Si       2.57045027       4.56010641       3.24542554
Si       7.44863456       2.68269828       9.25321319
Si       3.67485902       2.61425951       2.06652376
Si       5.71686740       6.32014464       7.98856355
Si       3.44733831       1.62801693       8.92130170
Si       5.77558440       5.06288629       4.08395078
Si       4.71007617       3.02892349       6.57198658
Si       3.46480468       6.67626586       2.37896248
14
Lattice="5.16138193668782 -0.2749132846308414 1.7532635852577123 1.9888296619434722 6.7893054352342315 0.04095201333178926 2.21929643816228 1.386666362837988 9.31947429874982" Properties=species:S:1:pos:R:3 unique_starting_index=86 config_type=initial n_minim_iter=3 stress="-0.04090859303977924 0.0036373882334088292 -0.00199889583550209 0.0036373882334088292 0.0030070521252010198 0.007570314312219386 -0.00199889583550209 0.007570314312219386 0.005043442558200567" pbc="T T T"
Si       6.26345946       3.98862908       8.00117767
Si       5.84836259       1.23405862       5.81924599
Si       4.01641578       3.30299023       4.36197005
Si       6.07538290       2.87019998       4.22053757
Si       5.08139339       4.93574607       9.54278946
Si       1.89120599       1.77979913       1.06005442
Si       2.57991669       4.55655826       3.24621223
Si       7.45124951       2.66516761       9.29628873
Si       3.67090440       2.61529028       2.07923621
Si       5.72747563       6.30530543       8.00997068
Si       3.46754348       1.60196806       8.95124492
Si       5.76149666       5.05933344       4.09931232
Si       4.71367703       3.01035103       6.59563886
Si       3.46478528       6.67893234       2.37296871
14
Lattice="5.242767217594794 -0.28688343188159793 1.8095940845685918 2.0205934692149405 6.7835895375700535 -0.016926059482951502 2.3250722963803585 1.2833465269269135 9.329034659419602" Properties=species:S:1:pos:R:3 unique_starting_index=86 config_type=initial n_minim_iter=4 stress="-0.011224129283764267 0.0038581950814056327 0.012928810551705212 0.0038581950814056327 0.007898739969099162 -0.0038564683789526176 0.012928810551705212 -0.0038564683789526176 0.013724619100809746" pbc="T T T"
Si       6.40859180       3.90836782       8.01188535
Si       5.96829455       1.17110544       5.85940830
Si       4.12000594       3.26411590       4.36192944
Si       6.18851761       2.81841475       4.25553926
Si       5.22829837       4.83391498       9.53024043
Si       1.91447707       1.76322022       1.06300130
Si       2.65252676       4.52139707       3.22084478
Si       7.63131039       2.57102510       9.34865405
Si       3.74633252       2.59649573       2.09239272
Si       5.87455495       6.21716272       8.00685358
Si       3.58971503       1.50156165       8.97815735
Si       5.86151846       5.01441045       4.10092552
Si       4.82782531       2.92993759       6.61359310
Si       3.53442272       6.65396195       2.32776670
14
Lattice="5.261319960630182 -0.2934225531401061 1.735489422142138 2.030994337256757 6.7018561715062 -0.06975308271620854 2.2654108041953456 1.218927583922732 9.140085713779483" Properties=species:S:1:pos:R:3 unique_starting_index=86 config_type=initial n_minim_iter=5 stress="-0.016285163335757028 0.006025135147228362 0.021152016507026125 0.006025135147228362 -0.01528972033391283 -0.015120800836711763 0.021152016507026125 -0.015120800836711763 -0.016267083898018703" pbc="T T T"
Si       6.37812143       3.82445987       7.78848000
Si       5.95432722       1.12325934       5.69213516
Si       4.12081017       3.21214048       4.22724126
Si       6.19154817       2.74982587       4.12373863
Si       5.18355007       4.72937571       9.28137633
Si       1.90815976       1.73246181       1.02496392
Si       2.65166270       4.45244700       3.11864802
Si       7.60985821       2.49439491       9.11289734
Si       3.75992843       2.55635995       2.01419001
Si       5.84768719       6.09953520       7.79558900
Si       3.54297533       1.43171590       8.79008712
Si       5.85219428       4.93094125       3.95284229
Si       4.80017677       2.84989836       6.44505598
Si       3.53537681       6.56630388       2.21559849
14
Lattice="5.306494146629186 -0.3036088593800011 1.595348745225848 2.054306472316358 6.6697513392554875 -0.1350822535559158 2.104715483981113 1.186814340140418 9.001186018016531" Properties=species:S:1:pos:R:3 unique_starting_index=86 config_type=initial n_minim_iter=6 stress="0.008169492281756242 -0.010934737577747057 0.0066394300266931165 -0.010934737577747057 -0.013737139876848268 -0.007672808804824041 0.0066394300266931165 -0.007672808804824041 -0.010865313587806086" pbc="T T T"
Si       6.29684572       3.78790307       7.53403379
Si       5.91493041       1.09028331       5.47794924
Si       4.11906133       3.20184830       4.06838808
Si       6.18676472       2.69838994       3.95467370
Si       5.05652487       4.68609896       9.04294276
Si       1.89549680       1.70896115       0.97796199
Si       2.64023336       4.42647477       3.01578886
Si       7.54244635       2.45751091       8.85311728
Si       3.78770992       2.53951803       1.90719273
Si       5.76847538       6.04704551       7.59047585
Si       3.41335173       1.38732524       8.63603516
Si       5.82683858       4.88887221       3.76440561
Si       4.72353662       2.79396288       6.27086573
Si       3.53332397       6.53815300       2.08078591
14
Lattice="5.352530440709143 -0.21465292533433766 1.4501335323400253 2.1883708325719047 6.729597257097797 -0.17700502562433953 1.961892219997517 1.2352768157377108 8.862763486411929" Properties=species:S:1:pos:R:3 unique_starting_index=86 config_type=initial n_minim_iter=7 stress="0.01904616972288489 0.0020921354805521412 -0.005805942178845229 0.0020921354805521412 -0.0001300135269447379 -0.009382468078299917 -0.005805942178845229 -0.009382468078299917 -0.0007683852192416394" pbc="T T T"
Si       6.27838512       3.92786054       7.29743119
Si       5.89765466       1.19554533       5.26087191
Si       4.17220792       3.31133456       3.91692641
Si       6.23433775       2.79193819       3.79179289
Si       5.01048614       4.79498451       8.81556621
Si       1.91613849       1.74709195       0.94950748
Si       2.70350326       4.49541046       2.92550883
Si       7.52059411       2.61164599       8.59346037
Si       3.85827667       2.61787472       1.80258502
Si       5.79325245       6.18199411       7.39710136
Si       3.30287899       1.43776395       8.47536545
Si       5.88544465       5.00434873       3.59125396
Si       4.69153418       2.86650542       6.09846662
Si       3.64207555       6.63851746       1.96481697
14
Lattice="5.394690336841471 -0.19029094455149279 1.3930110985788493 2.214748406488378 6.731128058228165 -0.10706316628640127 1.9245080716062903 1.3495943871318925 8.782016881524719" Properties=species:S:1:pos:R:3 unique_starting_index=86 config_type=initial n_minim_iter=8 stress="0.007993766589873141 0.0008005217807642561 -0.007756678204154749 0.0008005217807642561 -0.007675454387085163 0.017558760569039218 -0.007756678204154749 0.017558760569039218 -0.009880239767483376" pbc="T T T"
Si       6.28086900       4.04073957       7.22295141
Si       5.91089266       1.26828701       5.16116134
Si       4.22066579       3.38871827       3.88468363
Si       6.26559904       2.82730803       3.76946417
Si       5.00554672       4.91075414       8.73454431
Si       1.92218430       1.76137987       0.97418112
Si       2.72931697       4.54528997       2.92981802
Si       7.55175448       2.74056169       8.49654578
Si       3.89572607       2.64596311       1.78986566
Si       5.81070506       6.28776127       7.37952800
Si       3.28165123       1.52583144       8.39541063
Si       5.89573750       5.05012579       3.57915944
Si       4.68507840       2.92571197       6.04016887
Si       3.67046507       6.68453340       1.98680678
14
Lattice="5.399680657145531 -0.2606162356783841 1.3482995318669677 2.1548324961523364 6.7543628114659136 -0.1667879508734281 1.8514979822385413 1.27814859566363 8.74016170643081" Properties=species:S:1:pos:R:3 unique_starting_index=86 config_type=initial n_minim_iter=9 stress="0.02086172955170203 -0.009407387296144312 -0.003548075475868717 -0.009407387296144312 0.0017278793730479552 0.009772988301693732 -0.003548075475868717 0.009772988301693732 0.0035747025733390207" pbc="T T T"
Si       6.18967276       3.96095879       7.12644143
Si       5.86074787       1.16879277       5.08240905
Si       4.20231877       3.35750116       3.82671422
Si       6.22958890       2.74515716       3.70948014
Si       4.90171724       4.81972382       8.63268756
Si       1.90281864       1.74713068       0.97631470
Si       2.67566323       4.54460398       2.86113873
Si       7.49324987       2.63276760       8.40561214
Si       3.87058346       2.60564361       1.73323346
Si       5.71723883       6.22624903       7.28804917
Si       3.21471787       1.41852863       8.34719533
Si       5.80827069       4.98362988       3.49809161
Si       4.60939234       2.82914214       5.96487749
Si       3.60211395       6.69768954       1.89424941
14
Lattice="5.332186876197869 -0.3076150113390067 1.3300125253283075 2.0920811747647754 6.781411407335274 -0.22250398402797467 1.7841873954144107 1.2104044436604158 8.740910062211185" Properties=species:S:1:pos:R:3 unique_starting_index=86 config_type=initial n_minim_iter=10 stress="0.023280401449284303 -0.009772368184973478 -0.0035737884922125034 -0.009772368184973478 -0.005266874843111481 0.005714452951403357 -0.0035737884922125034 0.005714452951403357 0.011643768550207509" pbc="T T T"
Si       6.05152740       3.89897583       7.08126315
Si       5.74211314       1.08417146       5.05164189
Si       4.13062071       3.35848487       3.80033340
Si       6.14472638       2.69815754       3.67981738
Si       4.76966862       4.74047385       8.58973670
Si       1.87849782       1.73104962       0.99474127
Si       2.62046432       4.54534157       2.81422682
Si       7.36828949       2.55596100       8.37172212
Si       3.80001464       2.57569455       1.69821879
Si       5.59550987       6.17771125       7.23861055
Si       3.13519479       1.32217142       8.34913337
Si       5.66819647       4.93175697       3.45662978
Si       4.49548829       2.74357279       5.91973543
Si       3.51674004       6.73031122       1.81784535
14
Lattice="5.28903433567245 -0.32921438128554154 1.3325600722291293 2.060534584540689 6.846325273868186 -0.2458751427126919 1.7687801259807485 1.185777013203718 8.728043440324088" Properties=species:S:1:pos:R:3 unique_starting_index=86 config_type=initial n_minim_iter=11 stress="0.009807418188427298 -0.0048544110841912125 -0.006728931321843313 -0.0048544110841912125 0.02004889374374602 -0.007300653666357245 -0.006728931321843313 -0.007300653666357245 0.01798009824068105" pbc="T T T"
Si       5.99246995       3.89699996       7.06339009
Si       5.68712475       1.05860139       5.04355843
Si       4.08810554       3.37935363       3.79115427
Si       6.09865258       2.70054902       3.67064805
Si       4.71962742       4.74222671       8.56495902
Si       1.87118680       1.74546474       0.99417669
Si       2.59225930       4.57801291       2.79218717
Si       7.30752292       2.53769989       8.35463915
Si       3.75875453       2.58303801       1.68787411
Si       5.54098865       6.19633070       7.21101144
Si       3.10873853       1.29203992       8.33963276
Si       5.60603704       4.94935772       3.44220174
Si       4.44858318       2.73113276       5.89636789
Si       3.47228895       6.78491145       1.79347457
14
Lattice="5.2814696345778325 -0.29409788810788207 1.3434772802257213 2.0942975820000362 6.850617104318816 -0.23452828646286605 1.808992225929347 1.198661777119433 8.656624342991137" Properties=species:S:1:pos:R:3 unique_starting_index=86 config_type=initial n_minim_iter=12 stress="-0.02102916580660151 0.004181062726374978 0.006363831699486585 0.004181062726374978 0.0004053924984499801 -0.008946606437434968 0.006363831699486585 -0.008946606437434968 -0.0039663900955850505" pbc="T T T"
Si       6.02888708       3.92682759       7.01993001
Si       5.68486142       1.08781148       5.01279933
Si       4.12654095       3.42553763       3.78205116
Si       6.12857644       2.74630380       3.67192898
Si       4.76506403       4.77002551       8.51263068
Si       1.90702036       1.75721597       1.01071798
Si       2.63317607       4.60096850       2.76370155
Si       7.35208089       2.59876326       8.30156103
Si       3.76289265       2.60427146       1.69462641
Si       5.60424255       6.21310002       7.17249698
Si       3.14605267       1.30740964       8.28857313
Si       5.62106299       4.96660624       3.44714810
Si       4.46424408       2.73850015       5.83318907
Si       3.50407662       6.80762032       1.79227123
14
Lattice="5.29951172843409 -0.25215122607635804 1.3168791732805627 2.1496825933189556 6.826580736385014 -0.2423265996601092 1.7942106495081471 1.207357820632616 8.622829868260967" Properties=species:S:1:pos:R:3 unique_starting_index=86 config_type=initial n_minim_iter=13 stress="-0.026897254746454366 0.003755175621283156 0.005140137873494782 0.003755175621283156 -0.003438680253554041 -0.004991771392347245 0.005140137873494782 -0.004991771392347245 -0.011104604681112852" pbc="T T T"
Si       6.04706485       3.94683832       6.97537789
Si       5.68338045       1.12319088       4.96083866
Si       4.16654595       3.46138869       3.76058811
Si       6.16796896       2.78299477       3.64794833
Si       4.78414139       4.78008102       8.46388011
Si       1.95272298       1.76042692       1.00859763
Si       2.67654368       4.60416537       2.73004488
Si       7.38420370       2.65345508       8.23523633
Si       3.78362349       2.62127879       1.68523317
Si       5.65338475       6.20479431       7.12992973
Si       3.14093607       1.32064408       8.26057334
Si       5.65330469       4.96952790       3.42527531
Si       4.46817476       2.74136287       5.76479007
Si       3.54863755       6.79785808       1.77599362
14
Lattice="5.335572160060969 -0.1772050643000727 1.3096761742434828 2.244878793788112 6.760508951916672 -0.24301337511663432 1.8046224289897874 1.2235823404750719 8.659498996753161" Properties=species:S:1:pos:R:3 unique_starting_index=86 config_type=initial n_minim_iter=14 stress="-0.013308454414864775 0.01510302811522425 0.006637739524785631 0.01510302811522425 -0.01706790256246711 -0.001801114715803632 0.006637739524785631 -0.001801114715803632 -0.025610598420715083" pbc="T T T"
Si       6.11653376       3.96504529       6.99426696
Si       5.71311632       1.19317517       4.95206448
Si       4.24068151       3.48936364       3.77796922
Si       6.24853184       2.82145774       3.66197596
Si       4.85209337       4.79276215       8.49989142
Si       2.01094324       1.76253501       1.01508011
Si       2.75591065       4.58937947       2.72180917
Si       7.46762271       2.73400174       8.24320140
Si       3.83554928       2.64883233       1.70841160
Si       5.76006563       6.17912116       7.15621983
Si       3.16533539       1.35397742       8.30707294
Si       5.73755925       4.97604450       3.44487996
Si       4.51223061       2.75692760       5.74741212
Si       3.63581002       6.75133509       1.79026546
14
Lattice="5.323950855426361 -0.1815531414154937 1.3222630272636693 2.2342842217804546 6.715272995586183 -0.24796493468009756 1.7883998138543782 1.2117758553666205 8.771269613974392" Properties=species:S:1:pos:R:3 unique_starting_index=86 config_type=initial n_minim_iter=15 stress="-0.006138220775722104 -0.00065057800009408 0.006599549640618791 -0.00065057800009408 -0.020954709055451482 0.0038004811120032197 0.006599549640618791 0.0038004811120032197 -0.002847880308621356" pbc="T T T"
Si       6.08044560       3.92198060       7.08621133
Si       5.68937403       1.17871034       4.99163966
Si       4.22326206       3.47054326       3.81295297
Si       6.23580483       2.78194650       3.71194110
Si       4.82711829       4.75651978       8.60630161
Si       2.02014226       1.74443030       1.03195849
Si       2.74943309       4.56268336       2.74250096
Si       7.44801609       2.71220524       8.33343123
Si       3.81843721       2.63866785       1.74581472
Si       5.73621075       6.11718659       7.24575676
Si       3.14651902       1.34267242       8.42373376
Si       5.71619780       4.94528507       3.49345948
Si       4.48539535       2.73205607       5.81487662
Si       3.61056115       6.70858118       1.81456570
14
Lattice="5.3252881097213605 -0.1673005161357966 1.2971295549805772 2.2519198126115687 6.797412107034248 -0.2343809940458085 1.762701450528681 1.2599625407847737 8.748144235258325" Properties=species:S:1:pos:R:3 unique_starting_index=86 config_type=initial n_minim_iter=16 stress="0.024834615528943275 -0.010169595423721917 0.0013193734602252101 -0.010169595423721917 0.006849095174206944 0.017085140084068133 0.0013193734602252101 0.017085140084068133 -0.00042055729429800687" pbc="T T T"
Si       6.05110241       3.98474942       7.06968899
Si       5.67640650       1.20917711       4.93440363
Si       4.22001400       3.52106288       3.79318634
Si       6.24361365       2.82793528       3.68970005
Si       4.81601456       4.85192057       8.58461826
Si       2.04519062       1.75273933       1.03156955
Si       2.75618046       4.64121420       2.71846122
Si       7.44683215       2.79170518       8.27145950
Si       3.81271602       2.70679137       1.76677611
Si       5.73183113       6.20437971       7.22599540
Si       3.12243276       1.40138949       8.41354351
Si       5.73336251       5.05565782       3.48963746
Si       4.46540902       2.80909206       5.78630384
Si       3.60968755       6.81477434       1.82063287
14
Lattice="5.307532072329076 -0.15014511720010704 1.251413154682316 2.280920579811965 6.7952314527768705 -0.29562353474760683 1.6888786966717741 1.2130433296549483 8.746271424799968" Properties=species:S:1:pos:R:3 unique_starting_index=86 config_type=initial n_minim_iter=17 stress="0.0024324122812460643 -0.010535514850712854 -0.01436609543910941 -0.010535514850712854 0.017455465054323934 0.0008184677273694798 -0.01436609543910941 0.0008184677273694798 0.007436292279731084" pbc="T T T"
Si       5.97634772       3.93964787       7.00615607
Si       5.61165086       1.18870680       4.85943080
Si       4.21215279       3.52059562       3.73448034
Si       6.23063712       2.82015800       3.62985247
Si       4.75283478       4.81235770       8.53850491
Si       2.07248909       1.74320494       1.02038844
Si       2.76136958       4.64533758       2.64608118
Si       7.39972771       2.77914082       8.18242245
Si       3.79074450       2.72914871       1.74788077
Si       5.69284250       6.15530842       7.16038993
Si       3.04938127       1.35859280       8.41801472
Si       5.71082989       5.06303174       3.43346152
Si       4.40835619       2.78522455       5.72799325
Si       3.60366471       6.82020945       1.75268824
14
Lattice="5.312074135304902 -0.11175584584630509 1.2370617277723797 2.332802629670688 6.794630523092736 -0.3213670783218048 1.6746578567493935 1.2013936077342877 8.753974864998755" Properties=species:S:1:pos:R:3 unique_starting_index=86 config_type=initial n_minim_iter=18 stress="0.006554774312039631 0.0004562322755153421 -0.014815445182405578 0.0004562322755153421 0.02343801208528302 -0.007935023044140496 -0.014815445182405578 -0.007935023044140496 0.013888533487596087" pbc="T T T"
Si       5.97110270       3.93353180       6.98609414
Si       5.59607587       1.20283088       4.82190771
Si       4.24946997       3.54532381       3.70649609
Si       6.26229986       2.84502371       3.61457220
Si       4.76677145       4.81342654       8.53756748
Si       2.10725889       1.73981669       1.01659681
Si       2.80199184       4.66503655       2.60449534
Si       7.42998943       2.81488089       8.14249911
Si       3.80381332       2.77398908       1.75996667
Si       5.72703290       6.14649139       7.14546294
Si       3.03781200       1.35734846       8.44020732
Si       5.73749904       5.09401119       3.42694007
Si       4.40927973       2.79460702       5.70888135
Si       3.63662869       6.83297655       1.73034929
14
Lattice="5.2979421416625305 -0.06723204076471824 1.2599062514260881 2.3728316584086446 6.756536082702228 -0.3121358191296471 1.7001739555914788 1.2122099243514395 8.8053659199193" Properties=species:S:1:pos:R:3 unique_starting_index=86 config_type=initial n_minim_iter=19 stress="-0.013383555085206588 -0.005789968402930539 -0.015348908627859545 -0.005789968402930539 0.012226013557640034 -0.015236837687489164 -0.015348908627859545 -0.015236837687489164 -0.002556914266716827" pbc="T T T"
Si       5.94637952       3.90062983       7.03521083
Si       5.55433777       1.21458456       4.81261558
Si       4.30339053       3.58155010       3.73616015
Si       6.30382668       2.85962777       3.65812874
Si       4.79933055       4.80575951       8.63842952
Si       2.16841399       1.72495589       1.04731300
Si       2.85585046       4.69118750       2.57403896
Si       7.49902767       2.86665634       8.15194756
Si       3.79038064       2.83715989       1.83388344
Si       5.77834251       6.11085217       7.20919063
Si       3.05358024       1.37794385       8.53155029
Si       5.74905180       5.11695035       3.51036163
Si       4.41505053       2.80966366       5.72059329
Si       3.64613950       6.82337060       1.76507200
14
Lattice="5.293022088602145 -0.012524927236259953 1.321577069029164 2.4169633391645635 6.698681387669195 -0.2670766912744409 1.7700810687474766 1.254376767490778 8.938530938106473" Properties=species:S:1:pos:R:3 unique_starting_index=86 config_type=initial n_minim_iter=20 stress="-0.008062749054598722 0.01282404671830539 0.00036484512137653375 0.01282404671830539 0.02145083546257168 -0.015050619333996004 0.00036484512137653375 -0.015050619333996004 0.012137441073743326" pbc="T T T"
Si       5.98695298       3.91133437       7.19271258
Si       5.56400407       1.25991325       4.90955596
Si       4.35390356       3.60216672       3.84329822
Si       6.35386919       2.90184955       3.76324055
Si       4.88663544       4.82546993       8.84145535
Si       2.21151034       1.71988698       1.08460886
Si       2.90871638       4.69442894       2.62638637
Si       7.58508746       2.93544121       8.30113347
Si       3.79636270       2.87361590       1.91563556
Si       5.86297931       6.10506094       7.37749125
Si       3.11555432       1.43788812       8.68845627
Si       5.80811518       5.14252860       3.64885436
Si       4.46987420       2.85210470       5.83519935
Si       3.68662866       6.78749373       1.85799810
14
Lattice="5.301623110002601 0.012140158134168374 1.3605483303845536 2.4289013125075276 6.586590426106551 -0.2178417233530742 1.8181259189829162 1.2875529292479937 9.018417916195041" Properties=species:S:1:pos:R:3 unique_starting_index=86 config_type=initial n_minim_iter=21 stress="-0.02205951070705033 0.016316092994541932 0.010304699270314183 0.016316092994541932 -0.004880729128306665 -0.01964722672374336 0.010304699270314183 -0.01964722672374336 0.008341959570007626" pbc="T T T"
Si       6.01007251       3.88289729       7.29919393
Si       5.57648591       1.28639150       4.98736490
Si       4.38418727       3.56669328       3.92028515
Si       6.38780191       2.89298096       3.82577475
Si       4.94456972       4.78880970       8.99546275
Si       2.23370623       1.69964976       1.10689244
Si       2.92921633       4.64726565       2.67412035
Si       7.65156135       2.93719255       8.39013235
Si       3.78517355       2.86381716       1.96481634
Si       5.90842617       6.04466614       7.49156382
Si       3.15822938       1.48370102       8.77746407
Si       5.86471328       5.11332301       3.75305093
Si       4.52070939       2.86637977       5.92690473
Si       3.70679736       6.67620918       1.92507566
