22
Lattice="5.361781341607597 0.5044343408607118 0.9214284646060376 3.237720016628705 6.198218913749145 1.0109165103545232 3.572392968487671 1.830974570075191 15.83894013712777" Properties=species:S:1:pos:R:3 unique_starting_index=40 config_type=initial n_minim_iter=1 energy=-3585.6928906566277 free_energy=-3585.6928906566277 pbc="T T T"
Si       9.69859828       4.16771580      13.26571781
Si       3.15226534       2.61941187       4.85419363
Si       5.97716410       1.55766260       7.65654945
Si       6.29519184       5.28234476      14.59803927
Si       6.91629408       3.42120662      15.45449323
Si       7.38131198       6.65500522       8.66936108
Si       5.80538508       3.14771632       2.86200559
Si       6.70038792       5.78019753      10.51546662
Si       4.53143188       2.95783271       0.72241538
Si       7.35376731       6.64248542      15.84202191
Si       6.16824038       3.85674149      11.25005471
Si       6.07295278       6.01420140      12.53031798
Si       2.42012054       3.13114128       0.83408394
Si       2.09083612       0.57606493       8.21299970
Si       5.41279223       1.87275826      15.72137750
Si       8.62999005       6.68485022      10.40496903
Si       5.14159221       3.65549547       5.33205666
Si       5.91398920       7.19821813       7.21167117
Si       5.25381075       5.25249787       3.94717884
Si       5.97527819       2.56494717       9.54297521
Si       8.99666420       2.96994558      15.25381501
Si       4.69044558       1.67964775       5.96851377
22
Lattice="5.36486286555877 0.491879555714996 0.9187536825631222 3.22764440178894 6.187321145690463 0.9989527772798249 3.564289554861838 1.7942594003301562 15.847214609024737" Properties=species:S:1:pos:R:3 unique_starting_index=40 config_type=initial n_minim_iter=2 stress="0.006043996511033412 -0.0034821457548236817 -0.0008911201640567931 -0.0034821457548236817 0.004686182274035238 -0.00706687323294076 -0.0008911201640567931 -0.00706687323294076 0.006007804590999303" pbc="T T T"
Si       9.69225318       4.12257117      13.26449597
Si       3.14724972       2.60304641       4.85197751
Si       5.97557004       1.53112816       7.65794563
Si       6.28371787       5.24109092      14.59757458
Si       6.90750866       3.37763535      15.45749964
Si       7.37073723       6.62185537       8.66110328
Si       5.80290991       3.12965704       2.85557661
Si       6.69003867       5.74496554      10.51086336
Si       4.52992233       2.94604016       0.71592562
Si       7.33898499       6.59641540      15.83928885
Si       6.16031381       3.82245331      11.24926086
Si       6.05989327       5.97631370      12.52654087
Si       2.41462784       3.12359376       0.82885074
Si       2.08636400       0.55693634       8.21753727
Si       5.40634067       1.83286510      15.72870764
Si       8.61904405       6.64605393      10.39768228
Si       5.13607163       3.63344945       5.32773296
Si       5.90180456       7.17055515       7.20156675
Si       5.24601116       5.23336394       3.93801625
Si       5.97097454       2.53461787       9.54398718
Si       8.99105391       2.92308352      15.25687179
Si       4.68811114       1.65834501       5.96842077
22
Lattice="5.359800222250652 0.48682817071469153 0.9171349875554777 3.2195853929087197 6.175011704734081 0.9990423892795055 3.556893701515708 1.7922484255307778 15.83386167994761" Properties=species:S:1:pos:R:3 unique_starting_index=40 config_type=initial n_minim_iter=3 stress="-0.009672735762324665 -0.009224345756469566 -0.0031875293747664923 -0.009224345756469566 -0.01250048239873876 -0.004662696994380075 -0.0031875293747664923 -0.004662696994380075 -0.008206829561865215" pbc="T T T"
Si       9.67837267       4.11122385      13.25234375
Si       3.14155494       2.59693900       4.84820859
Si       5.96819724       1.52535679       7.65202031
Si       6.27215790       5.23055336      14.58533433
Si       6.89496496       3.36963412      15.44307410
Si       7.35801018       6.60746504       8.65432481
Si       5.79534189       3.12055094       2.85227181
Si       6.67824481       5.73235672      10.50260777
Si       4.52499096       2.93798936       0.71615008
Si       7.32405578       6.58388885      15.82592148
Si       6.14958682       3.81418343      11.23933124
Si       6.04700218       5.96391219      12.51555968
Si       2.40860257       3.11699041       0.82974870
Si       2.08080428       0.55666315       8.20989681
Si       5.39785467       1.83001263      15.71548863
Si       8.60439973       6.63110767      10.38935877
Si       5.12768872       3.62410534       5.32335873
Si       5.89045861       7.15636931       7.19605965
Si       5.23663384       5.22241015       3.93470479
Si       5.96266319       2.52777725       9.53639912
Si       8.97800454       2.91463431      15.24316302
Si       4.68120180       1.65268246       5.96319752
22
Lattice="5.365057112339391 0.48771126196783 0.9196122720140043 3.2229262354714305 6.174880207375179 1.006803950457134 3.564410757025919 1.808030085144354 15.846199627440258" Properties=species:S:1:pos:R:3 unique_starting_index=40 config_type=initial n_minim_iter=4 stress="0.006293709343648326 -0.004761595478524179 0.003204410133129669 -0.004761595478524179 -0.007144302170487061 0.0025900461223333756 0.003204410133129669 0.0025900461223333756 0.0018094203895013899" pbc="T T T"
Si       9.69123077       4.12430252      13.26613814
Si       3.14580117       2.60021379       4.85503847
Si       5.97670786       1.53258184       7.66230845
Si       6.28351039       5.24293993      14.60016366
Si       6.90275410       3.38320217      15.45466029
Si       7.36836244       6.61548837       8.66860670
Si       5.80260373       3.12300421       2.85712314
Si       6.68855589       5.74132445      10.51692471
Si       4.53300633       2.93902019       0.72319207
Si       7.33434184       6.59952896      15.84314046
Si       6.15748200       3.82526469      11.25087021
Si       6.05466477       5.97345126      12.52861272
Si       2.40818741       3.11772095       0.83714433
Si       2.08078816       0.56571183       8.21467444
Si       5.40837084       1.84785117      15.72937073
Si       8.61534574       6.64119228      10.40552420
Si       5.13380319       3.62767768       5.33181379
Si       5.89997897       7.16333086       7.20878718
Si       5.24290081       5.22751343       3.94288453
Si       5.97209477       2.53688861       9.54833756
Si       8.98968504       2.92982693      15.25737620
Si       4.68609225       1.65704392       5.97013139
22
Lattice="5.356662202583605 0.49188272094842017 0.9140993782168987 3.221883852597495 6.185373455576689 0.9996390399824351 3.5461447944405267 1.8034269711580762 15.835986778240462" Properties=species:S:1:pos:R:3 unique_starting_index=40 config_type=initial n_minim_iter=5 stress="-0.0051210000965784715 -0.0013772278293790923 -0.0007400534675275073 -0.0013772278293790923 0.0008502407132305187 -0.0017488141889959567 -0.0007400534675275073 -0.0017488141889959567 0.00045328310524708987" pbc="T T T"
Si       9.66817484       4.12941472      13.24921621
Si       3.13875589       2.60255524       4.84895502
Si       5.96267926       1.53453154       7.65411355
Si       6.26580399       5.24496391      14.58538748
Si       6.88012195       3.38323555      15.43918388
Si       7.35477872       6.62514265       8.65501135
Si       5.79445250       3.13007539       2.84781897
Si       6.67410337       5.74817476      10.50296773
Si       4.52900278       2.94625000       0.71801569
Si       7.31385549       6.60497308      15.82612068
Si       6.14036219       3.82802791      11.23850652
Si       6.03790481       5.97726345      12.51347888
Si       2.40501920       3.12365345       0.83421271
Si       2.06916405       0.56311428       8.20877038
Si       5.38809959       1.84593678      15.71814835
Si       8.59802431       6.65083907      10.39048585
Si       5.12409234       3.63291000       5.32282428
Si       5.89100221       7.17380530       7.19618984
Si       5.23569037       5.23758418       3.93291589
Si       5.95723718       2.53915577       9.53914173
Si       8.96409238       2.93155351      15.24150913
Si       4.67468214       1.65822565       5.96299859
22
Lattice="5.364014370823264 0.49393235299310084 0.9074950999573725 3.228740795590045 6.183029942059474 0.9933972924422909 3.5374717533593323 1.799925453917067 15.807424740759933" Properties=species:S:1:pos:R:3 unique_starting_index=40 config_type=initial n_minim_iter=6 stress="0.0030245203826233294 0.0013571743939826176 -0.004073951725545074 0.0013571743939826176 -0.0015040641602218094 -0.001659931841198047 -0.004073951725545074 -0.001659931841198047 -0.00769507321621043" pbc="T T T"
Si       9.67247229       4.12864990      13.21705292
Si       3.13969583       2.60035539       4.83756426
Si       5.96575445       1.53501267       7.63684792
Si       6.26524931       5.23859292      14.55525257
Si       6.87716390       3.38159665      15.40629634
Si       7.36022781       6.62253550       8.63399949
Si       5.80323857       3.13042960       2.83503033
Si       6.67756336       5.74558633      10.47700245
Si       4.53593083       2.94595339       0.71252098
Si       7.31357634       6.60156017      15.79287067
Si       6.13961794       3.82586796      11.21387455
Si       6.03596965       5.97050635      12.48464540
Si       2.40850136       3.12323800       0.83142011
Si       2.06501641       0.56071109       8.19331399
Si       5.38281312       1.84504235      15.68909483
Si       8.60397746       6.64872762      10.36651869
Si       5.12852662       3.63199380       5.30744379
Si       5.89705877       7.17100357       7.17748011
Si       5.24265584       5.23709215       3.92060657
Si       5.95912356       2.53882007       9.52066144
Si       8.96322280       2.93074531      15.20795839
Si       4.67788123       1.65629549       5.94969175
22
Lattice="5.359519526574932 0.4905643832561976 0.911559766350917 3.222837255444795 6.17535456863061 0.9979617170784769 3.541360665597181 1.8001358601113948 15.830430712883222" Properties=species:S:1:pos:R:3 unique_starting_index=40 config_type=initial n_minim_iter=7 stress="-0.004117279403126036 0.0008425536434240958 -0.0008334261809220593 0.0008425536434240958 -0.004351170665756246 0.001988638154366401 -0.0008334261809220593 0.001988638154366401 -0.0001490941131050307" pbc="T T T"
Si       9.66917225       4.12350846      13.23736812
Si       3.13678017       2.59514829       4.84568654
Si       5.96487443       1.53305950       7.65154330
Si       6.26662563       5.22818790      14.57863888
Si       6.87686464       3.38037724      15.42820257
Si       7.35279440       6.61414160       8.65361859
Si       5.80088417       3.12508334       2.83772131
Si       6.67526763       5.73902861      10.49123979
Si       4.52807637       2.93931160       0.71782393
Si       7.31283511       6.59733245      15.81972037
Si       6.13493531       3.82250712      11.23270219
Si       6.02841113       5.95755667      12.50156063
Si       2.40397598       3.12012025       0.83792917
Si       2.06830894       0.55871283       8.20437856
Si       5.38610997       1.84801938      15.71538258
Si       8.59721271       6.64081732      10.39154362
Si       5.12464223       3.62704634       5.31484959
Si       5.89217777       7.16351762       7.19168280
Si       5.23777273       5.23224131       3.93034301
Si       5.95889204       2.53666037       9.54276565
Si       8.95796082       2.92813111      15.23198775
Si       4.67816269       1.64993568       5.96192534
22
Lattice="5.36238657691429 0.4860011397795292 0.9165518243271742 3.2193841547443096 6.183214940447854 0.9986074617336096 3.561535001705656 1.7960299221309477 15.803143464207812" Properties=species:S:1:pos:R:3 unique_starting_index=40 config_type=initial n_minim_iter=8 stress="-0.003970332876232906 -0.0016079961573079932 0.006881902546319665 -0.0016079961573079932 0.002484666033394998 0.00040836710421364106 0.006881902546319665 0.00040836710421364106 -0.00896281619248088" pbc="T T T"
Si       9.68665164       4.11952661      13.21987598
Si       3.14223763       2.59307156       4.83974474
Si       5.97619022       1.52886339       7.64595126
Si       6.28487436       5.22725445      14.55745559
Si       6.89699045       3.37508734      15.40452218
Si       7.36007803       6.61763913       8.64634800
Si       5.80669328       3.12482982       2.83430890
Si       6.68618141       5.73922577      10.47527093
Si       4.52408533       2.93996687       0.72261927
Si       7.33076348       6.59827839      15.79618843
Si       6.14621080       3.82360658      11.21872226
Si       6.03629623       5.95247689      12.47864351
Si       2.40356630       3.12455945       0.83987824
Si       2.08002171       0.55405279       8.19015319
Si       5.40742657       1.84565334      15.69307237
Si       8.60804897       6.64405132      10.38450243
Si       5.12983096       3.62683840       5.30693922
Si       5.89660666       7.16958528       7.18368379
Si       5.24059254       5.23762889       3.92871735
Si       5.97296488       2.53201209       9.53400313
Si       8.97560219       2.92260418      15.21123640
Si       4.68770572       1.64544171       5.95561719
22
Lattice="5.369893435895537 0.48173792096911217 0.8962021784815193 3.2159444919944846 6.187805860605152 0.9914835803622517 3.502613644979482 1.8066964710512914 15.810998268428138" Properties=species:S:1:pos:R:3 unique_starting_index=40 config_type=initial n_minim_iter=9 stress="-0.006157508139976051 0.0015520394363308947 -0.0028835724495694486 0.0015520394363308947 -0.002323243190826484 0.004097156802888604 -0.0028835724495694486 0.004097156802888604 0.0032663277461446923" pbc="T T T"
Si       9.64995541       4.12980748      13.19052185
Si       3.13090175       2.58498641       4.83763350
Si       5.95742460       1.53312298       7.64212550
Si       6.24169398       5.23760212      14.55975803
Si       6.84837700       3.37887727      15.39544729
Si       7.33379929       6.62862111       8.64000432
Si       5.81654117       3.12654502       2.79788387
Si       6.65268272       5.74071886      10.45498576
Si       4.51049428       2.94049524       0.71158745
Si       7.27978354       6.61062997      15.79273889
Si       6.10291065       3.84438763      11.21767983
Si       5.97035368       5.93327405      12.45968987
Si       2.40547782       3.13195103       0.83803023
Si       2.05234550       0.55273811       8.19284061
Si       5.35362271       1.86725081      15.70265590
Si       8.57932203       6.66038778      10.38516016
Si       5.11434720       3.62638649       5.28278260
Si       5.87139026       7.17923588       7.17628228
Si       5.23360942       5.24911992       3.91962186
Si       5.95257830       2.52925701       9.53526970
Si       8.91930081       2.93406634      15.19152399
Si       4.67726403       1.64401374       5.94308562
22
Lattice="5.3801112487126135 0.47980298114259806 0.8962626404837163 3.2222224926140868 6.1877542478096474 0.9779341044046791 3.5158994637656513 1.7722667011485849 15.789345772680276" Properties=species:S:1:pos:R:3 unique_starting_index=40 config_type=initial n_minim_iter=10 stress="-0.0014874729993251947 0.003941332951262192 0.002775827069161609 0.003941332951262192 0.003018553623038448 -2.2671697757853172e-05 0.002775827069161609 -2.2671697757853172e-05 0.006243395467624397" pbc="T T T"
Si       9.67047734       4.10774786      13.16180695
Si       3.14432949       2.56479734       4.82820548
Si       5.96896473       1.51742032       7.63711192
Si       6.26221909       5.20587090      14.53749565
Si       6.86703226       3.33923695      15.36864913
Si       7.35415028       6.62077831       8.62081409
Si       5.83924103       3.12405446       2.77308876
Si       6.67591141       5.71828959      10.42436310
Si       4.51024178       2.94375571       0.71101168
Si       7.31147840       6.59239055      15.76847431
Si       6.11427218       3.82625257      11.20424286
Si       5.96474842       5.87719259      12.42077335
Si       2.40784337       3.13782359       0.82992834
Si       2.06118885       0.53210176       8.18508065
Si       5.36277582       1.83782521      15.68741107
Si       8.59756708       6.64818921      10.37425505
Si       5.12433553       3.60931540       5.25695993
Si       5.88263781       7.16633234       7.15897106
Si       5.24789822       5.24782287       3.90891950
Si       5.97870409       2.50120800       9.53095671
Si       8.93966541       2.89970869      15.16609031
Si       4.69231356       1.63117599       5.93216442
22
Lattice="5.38107335088103 0.46701605595096446 0.8862202403268093 3.203124143345133 6.208902019613184 0.9838383480864308 3.4825711476228034 1.8027884615356027 15.772270564134143" Properties=species:S:1:pos:R:3 unique_starting_index=40 config_type=initial n_minim_iter=11 stress="0.012738836932144296 -0.004581514489362676 -0.0018802186195395682 -0.004581514489362676 0.0147726355278527 0.006108153769561313 -0.0018802186195395682 0.006108153769561313 0.0025275132921854246" pbc="T T T"
Si       9.63058382       4.13086221      13.13722264
Si       3.13252499       2.56939146       4.82061711
Si       5.95240260       1.52006966       7.62229463
Si       6.22733052       5.24482064      14.53179396
Si       6.83101418       3.36351208      15.34700582
Si       7.32409694       6.65997954       8.61179556
Si       5.83786365       3.12980286       2.75149228
Si       6.65348227       5.74546791      10.41017206
Si       4.50044576       2.94931984       0.70994994
Si       7.26922797       6.63830267      15.75427936
Si       6.08671181       3.85034982      11.19300721
Si       5.90463425       5.88058591      12.40090572
Si       2.38902061       3.15468843       0.82796128
Si       2.04988092       0.54303018       8.17808692
Si       5.32596367       1.87076188      15.67579096
Si       8.55665962       6.67990745      10.37027209
Si       5.10539842       3.61442282       5.23447717
Si       5.84936185       7.19720392       7.16365543
Si       5.23056008       5.26674970       3.91110404
Si       5.96815555       2.51304576       9.52907482
Si       8.91130448       2.91228833      15.13758135
Si       4.68240116       1.63457088       5.92367399
22
Lattice="5.384418284671184 0.4820086081962061 0.9007024294420373 3.22875108760165 6.197025636322629 0.96971044514119 3.534060371359222 1.7473966469915765 15.794681962774279" Properties=species:S:1:pos:R:3 unique_starting_index=40 config_type=initial n_minim_iter=12 stress="0.018790294341556716 0.0019361483494546349 0.0031165801930072906 0.0019361483494546349 0.004796368243332658 -0.006339126829197906 0.0031165801930072906 -0.006339126829197906 0.005025541438146364" pbc="T T T"
Si       9.67296322       4.10837027      13.16236270
Si       3.15731987       2.54696695       4.82104942
Si       5.98147486       1.50615126       7.64538471
Si       6.29390280       5.19733124      14.55304576
Si       6.88758860       3.31986947      15.37131512
Si       7.37242919       6.64386267       8.61543572
Si       5.86461146       3.13470638       2.74623272
Si       6.71261537       5.70710354      10.42026235
Si       4.50912014       2.95775159       0.71166268
Si       7.33873407       6.58261545      15.76641303
Si       6.13456815       3.81687046      11.20983516
Si       5.94003830       5.80226256      12.40012059
Si       2.39361584       3.15763782       0.82255061
Si       2.07701626       0.51573480       8.19601057
Si       5.37270523       1.83104140      15.71289782
Si       8.60602201       6.65598566      10.38622092
Si       5.13198197       3.59231254       5.22603231
Si       5.89441830       7.16859551       7.16715356
Si       5.26355961       5.25614297       3.91391095
Si       6.01601326       2.48820873       9.55974543
Si       8.96830067       2.87003155      15.16663563
Si       4.70724037       1.62153149       5.93979734
22
Lattice="5.38043504471635 0.48286224401904215 0.8957695826845778 3.2240156890805807 6.218274176850366 0.9719671451665877 3.517216252062917 1.7673795429849655 15.783217858683615" Properties=species:S:1:pos:R:3 unique_starting_index=40 config_type=initial n_minim_iter=13 stress="0.018443645425212533 0.0018936145040615992 -0.0008400260270913863 0.0018936145040615992 0.006323361485850651 -0.004494660502601012 -0.0008400260270913863 -0.004494660502601012 0.00934535595484949" pbc="T T T"
Si       9.64776166       4.14038317      13.14665089
Si       3.15089400       2.55203057       4.81254726
Si       5.97706585       1.51631125       7.64676223
Si       6.28040784       5.22829610      14.53746568
Si       6.87229242       3.35252902      15.35988879
Si       7.35719726       6.68198486       8.61185105
Si       5.86343374       3.15099209       2.73191710
Si       6.70172059       5.72801938      10.41735938
Si       4.49925982       2.96805098       0.70686868
Si       7.32165756       6.62253238      15.75754928
Si       6.12030267       3.84090146      11.20481681
Si       5.90353921       5.79866854      12.38392620
Si       2.38190249       3.17525827       0.82891394
Si       2.06863279       0.52147056       8.19373908
Si       5.34814311       1.85684074      15.70871700
Si       8.58960314       6.69598261      10.37539396
Si       5.12232416       3.59647400       5.20662810
Si       5.88410665       7.20210178       7.16594135
Si       5.25811517       5.27872347       3.91437417
Si       6.01219648       2.50458725       9.55762133
Si       8.95403574       2.88623441      15.14807076
Si       4.69966900       1.63026643       5.93546913
22
Lattice="5.374083974400405 0.4777729708369205 0.8940370880942844 3.2121355578362696 6.240168476668134 0.9706600498563799 3.512828713884527 1.7727936465501186 15.74126802999109" Properties=species:S:1:pos:R:3 unique_starting_index=40 config_type=initial n_minim_iter=14 stress="0.0007126130192636423 -0.0006637926302073805 0.003286190246018665 -0.0006637926302073805 0.0037541439704090428 0.0007143158744335242 0.003286190246018665 0.0007143158744335242 0.0012822308231683673" pbc="T T T"
Si       9.62890618       4.16577405      13.10422077
Si       3.14524452       2.54228232       4.79014296
Si       5.97887630       1.52360637       7.64061476
Si       6.28142217       5.24747196      14.50123172
Si       6.86079508       3.36823998      15.31239880
Si       7.34047982       6.71141213       8.60640012
Si       5.85845992       3.16663059       2.70957012
Si       6.69560619       5.73450524      10.38827695
Si       4.48202458       2.98747267       0.70838606
Si       7.31148156       6.64547929      15.71711586
Si       6.10196003       3.85177139      11.18996530
Si       5.84985823       5.74846821      12.34505995
Si       2.37196375       3.20176162       0.82992738
Si       2.06810529       0.51081737       8.18741849
Si       5.32806344       1.87022695      15.68179718
Si       8.57281937       6.73172645      10.34631821
Si       5.11158995       3.57989795       5.16353863
Si       5.87549270       7.23811354       7.14106185
Si       5.25106109       5.29892387       3.90888529
Si       6.01883952       2.51177560       9.54345437
Si       8.94766447       2.88377761      15.10092994
Si       4.69744941       1.63220271       5.92552365
22
Lattice="5.366318806119224 0.4725129195865429 0.8816290368628268 3.1994106372194704 6.269535832486974 0.9523476628809673 3.481146234841249 1.7534994111137923 15.68234383188054" Properties=species:S:1:pos:R:3 unique_starting_index=40 config_type=initial n_minim_iter=15 stress="-0.014497444931283436 -0.0009049753614540507 0.0013440418227564706 -0.0009049753614540507 0.00557448227216254 0.0015565459749672008 0.0013440418227564706 0.0015565459749672008 -0.0006088390927068457" pbc="T T T"
Si       9.57576528       4.18332148      13.03266864
Si       3.13690821       2.52034205       4.74958250
Si       5.96980280       1.52823478       7.61182720
Si       6.25949334       5.25052746      14.43259492
Si       6.82826332       3.35697373      15.23718236
Si       7.30777235       6.74318701       8.57154680
Si       5.84840653       3.18713580       2.66402661
Si       6.67557571       5.72086819      10.33897733
Si       4.46211535       3.01338496       0.69964222
Si       7.27993732       6.65936900      15.64761454
Si       6.07178959       3.85915610      11.15370435
Si       5.75948320       5.64850607      12.27233470
Si       2.36367001       3.24150111       0.82098386
Si       2.05239031       0.48553184       8.17047384
Si       5.27746197       1.86471377      15.64049518
Si       8.53804856       6.76210878      10.29803289
Si       5.09361118       3.55650489       5.08258276
Si       5.85569208       7.27238101       7.09878492
Si       5.23987550       5.31660107       3.88840959
Si       6.01729998       2.50684576       9.51471354
Si       8.90748642       2.86321178      15.02244624
Si       4.68619564       1.62586307       5.90634215
22
Lattice="5.367534202420335 0.469901170605595 0.8797324883130646 3.197092604817657 6.27367855135575 0.9481896862512175 3.4791488738995677 1.7466972801768268 15.664611743848642" Properties=species:S:1:pos:R:3 unique_starting_index=40 config_type=initial n_minim_iter=16 stress="-0.016496855483881037 -0.00022025155344213877 0.0020436546155711845 -0.00022025155344213877 -0.00190740129586746 -0.0029159462928779706 0.0020436546155711845 -0.0029159462928779706 -0.0033586667851515126" pbc="T T T"
Si       9.56970168       4.18567289      13.01337584
Si       3.13956830       2.51078992       4.73768858
Si       5.97289863       1.52808904       7.60554485
Si       6.26140137       5.24762035      14.41263158
Si       6.82916230       3.35253140      15.21690237
Si       7.30512294       6.74850307       8.56304244
Si       5.84848582       3.19089418       2.65240784
Si       6.67804301       5.71486933      10.32408852
Si       4.46024759       3.01710783       0.69762250
Si       7.27897924       6.65854904      15.62746213
Si       6.06897660       3.85712561      11.14651201
Si       5.73812463       5.61029556      12.25283262
Si       2.36122138       3.25264194       0.81877618
Si       2.05183077       0.47776732       8.16484593
Si       5.27146657       1.86289820      15.62970283
Si       8.53587746       6.76607639      10.28715666
Si       5.09288420       3.54521689       5.05821179
Si       5.85416890       7.27635474       7.08964441
Si       5.24057306       5.31730651       3.88416238
Si       6.02429599       2.50251059       9.50725885
Si       8.90495661       2.85471834      15.00075141
Si       4.68641402       1.62399687       5.90043352
22
Lattice="5.3694584120471065 0.4569207284825135 0.8819264236654405 3.1808425386467394 6.275178069604548 0.9637798370513192 3.4846162614218246 1.7797355966555841 15.634089772079303" Properties=species:S:1:pos:R:3 unique_starting_index=40 config_type=initial n_minim_iter=17 stress="-0.009017092441931211 -0.002310802673660877 -0.002821902935339461 -0.002310802673660877 -0.010703767458056093 -0.0020256293058476898 -0.002821902935339461 -0.0020256293058476898 -0.012388500386649988" pbc="T T T"
Si       9.56053515       4.20855683      13.00649901
Si       3.14810835       2.51070696       4.71854540
Si       5.97875807       1.54864994       7.58985346
Si       6.25810514       5.27786271      14.38173842
Si       6.84400876       3.38513185      15.19701882
Si       7.29366516       6.75885473       8.56805062
Si       5.81698454       3.19255904       2.67360351
Si       6.67062464       5.72821299      10.32855018
Si       4.46850048       3.00971895       0.70155163
Si       7.26777831       6.68754653      15.60774249
Si       6.07500383       3.85304790      11.13671270
Si       5.72080571       5.60268206      12.26581886
Si       2.36465201       3.27100033       0.82029945
Si       2.04886152       0.49469363       8.14819201
Si       5.27456746       1.88885699      15.60386670
Si       8.53474983       6.77538352      10.28929743
Si       5.09284407       3.53255196       5.03366223
Si       5.83911217       7.28570802       7.10239910
Si       5.23050684       5.30555192       3.89285787
Si       6.02984207       2.51687498       9.48309146
Si       8.89865473       2.87699004      14.97777425
Si       4.67996595       1.64234618       5.89366833
22
Lattice="5.361085524306827 0.45294082371977473 0.8863303613002183 3.1664812640535676 6.28366701766492 0.9913397880056439 3.4807029613409672 1.8425709028013606 15.657793541630456" Properties=species:S:1:pos:R:3 unique_starting_index=40 config_type=initial n_minim_iter=18 stress="-0.015606277529788274 -0.0008263336799980386 -0.004295730219489502 -0.0008263336799980386 0.0017732236685201823 0.0009456494472829718 -0.004295730219489502 0.0009456494472829718 -0.004019185420377941" pbc="T T T"
Si       9.54340237       4.26704610      13.04234223
Si       3.15214482       2.52339431       4.70931873
Si       5.95387266       1.58204445       7.59999331
Si       6.25192139       5.34002188      14.40725260
Si       6.82870893       3.45730489      15.23272016
Si       7.28174633       6.80397033       8.60540567
Si       5.77759450       3.21010287       2.70454680
Si       6.64269746       5.76927015      10.38151661
Si       4.46316803       3.01814896       0.71174077
Si       7.24302141       6.75621048      15.64248234
Si       6.06503673       3.87783113      11.16844368
Si       5.69498312       5.61938179      12.32018323
Si       2.37342370       3.29672231       0.83383006
Si       2.05406873       0.52646808       8.15583393
Si       5.26482181       1.94637801      15.63265098
Si       8.51779449       6.81275424      10.34056531
Si       5.09020431       3.52567470       5.02730717
Si       5.81474255       7.30704380       7.15952063
Si       5.21733112       5.32587935       3.91110319
Si       6.02703944       2.55354787       9.49876106