12
Lattice="8.640309113650169 -1.1005462267613997 0.1738772502526995 2.1682417848094793 6.747769012909501 -0.4513408444641156 4.699665351367466 -2.0620039799145613 4.743670003720305" Properties=species:S:1:pos:R:3 unique_starting_index=78 config_type=initial n_minim_iter=1 energy=-1958.8962464258493 free_energy=-1958.8962464258493 pbc="T T T"
Si       5.10727482       1.76343281       1.33780556
Si       8.48191063       1.62124387       1.81486846
Si      12.15371519       3.31843089       2.82459349
Si       6.76098787       0.42454503       1.37042199
Si       5.04549429       3.00116921       3.06341314
Si       8.70702189       4.62608329       4.21185881
Si       8.70892075      -0.20380964       0.76475257
Si       8.60187851       2.53961512       3.72848424
Si       6.99779433      -0.76754091      -0.37498720
Si      10.08569478       1.15484930      -0.10598509
Si       6.73587493       1.70047608       3.06821419
Si       6.81222617       3.62628643       4.06037496
12
Lattice="8.639643333869191 -1.1001101794372743 0.17383822108625638 2.1684087759487776 6.747701279431965 -0.45134664365674493 4.699213144691118 -2.061725614025757 4.743671988012704" Properties=species:S:1:pos:R:3 unique_starting_index=78 config_type=initial n_minim_iter=2 stress="-0.00026415747485188687 2.7616508882941954e-05 4.4000466361330906e-05 2.7616508882941954e-05 -0.00041284640199884944 -0.0001628885368084193 4.4000466361330906e-05 -0.0001628885368084193 -0.00024661611232988016" pbc="T T T"
Si       5.10698509       1.76363794       1.33780690
Si       8.48136824       1.62157333       1.81481020
Si      12.15300835       3.31890590       2.82455506
Si       6.76053305       0.42486058       1.37041415
Si       5.04526321       3.00133908       3.06339174
Si       8.70661008       4.62638954       4.21185616
Si       8.70829229      -0.20339507       0.76471187
Si       8.60136695       2.53997600       3.72849304
Si       6.99726414      -0.76718912      -0.37503284
Si      10.08503194       1.15529372      -0.10602629
Si       6.73546301       1.70075201       3.06819835
Si       6.81188607       3.62653845       4.06037030
12
Lattice="8.639409573542334 -1.0997515912087874 0.17366608445094145 2.168706776150643 6.748265387190305 -0.451136571738698 4.698938642134103 -2.0614442005711338 4.743826869714015" Properties=species:S:1:pos:R:3 unique_starting_index=78 config_type=initial n_minim_iter=3 stress="7.340454267247043e-06 0.0003659294253386192 -3.849665781626382e-05 0.0003659294253386192 0.0003694371312406992 0.000211494689395806 -3.849665781626382e-05 0.000211494689395806 0.00042450817626842144" pbc="T T T"
Si       5.10692016       1.76409955       1.33793201
Si       8.48122135       1.62209333       1.81476747
Si      12.15289574       3.31981004       2.82466812
Si       6.76042797       0.42529044       1.37046069
Si       5.04525512       3.00193454       3.06358475
Si       8.70663296       4.62733721       4.21221090
Si       8.70809830      -0.20295635       0.76459709
Si       8.60125516       2.54077126       3.72878233
Si       6.99708687      -0.76689159      -0.37523696
Si      10.08487884       1.15586430      -0.10613806
Si       6.73536780       1.70131044       3.06835891
Si       6.81182790       3.62734982       4.06068402
12
Lattice="8.63915218375375 -1.1001374677156752 0.17343676875806652 2.1683693302529083 6.748404780153761 -0.45107528727867646 4.698745084937933 -2.06162924405174 4.743636966491577" Properties=species:S:1:pos:R:3 unique_starting_index=78 config_type=initial n_minim_iter=4 stress="-0.00013889801654929062 -0.00015748487653345923 -5.137421045948351e-06 -0.00015748487653345923 -3.8024932820660295e-05 0.00018826735700551886 -5.137421045948351e-06 0.00018826735700551886 0.0001833847354897865" pbc="T T T"
Si       5.10653377       1.76410143       1.33800772
Si       8.48072470       1.62151522       1.81426251
Si      12.15230849       3.31933189       2.82434655
Si       6.76026838       0.42508888       1.37047441
Si       5.04488567       3.00190518       3.06329770
Si       8.70618897       4.62725396       4.21212534
Si       8.70783811      -0.20329880       0.76429338
Si       8.60075230       2.54069460       3.72882634
Si       6.99685937      -0.76712645      -0.37553431
Si      10.08443217       1.15544755      -0.10631591
Si       6.73504621       1.70103929       3.06817651
Si       6.81123270       3.62745262       4.06056578
12
Lattice="8.63939379948828 -1.0999444365979814 0.17343888633466348 2.168613397836504 6.748625810468501 -0.4513059690429246 4.698822229713432 -2.06172178815306 4.743516901786498" Properties=species:S:1:pos:R:3 unique_starting_index=78 config_type=initial n_minim_iter=5 stress="0.00019919868203302228 8.13855474104825e-05 -8.971654200880023e-05 8.13855474104825e-05 2.0664903982164976e-05 -0.0001773283279339122 -8.971654200880023e-05 -0.0001773283279339122 6.044522887293065e-05" pbc="T T T"
Si       5.10671246       1.76424463       1.33792066
Si       8.48100176       1.62165254       1.81406204
Si      12.15275072       3.31958176       2.82405152
Si       6.76050341       0.42522077       1.37041660
Si       5.04513565       3.00199979       3.06302150
Si       8.70661043       4.62743954       4.21180116
Si       8.70810014      -0.20315417       0.76421672
Si       8.60105661       2.54086674       3.72861153
Si       6.99705060      -0.76691228      -0.37554039
Si      10.08478935       1.15575424      -0.10639460
Si       6.73530956       1.70113170       3.06799391
Si       6.81150025       3.62760423       4.06026206
12
Lattice="8.639066966511324 -1.099921561891955 0.17386391046197622 2.1685798923082062 6.749111350765174 -0.4508589454704979 4.698893153381611 -2.0616340523162235 4.743038148982331" Properties=species:S:1:pos:R:3 unique_starting_index=78 config_type=initial n_minim_iter=6 stress="-2.45724952771541e-05 2.6522784705770938e-05 0.00015649742742452312 2.6522784705770938e-05 0.00010213255762756674 8.236749319251242e-05 0.00015649742742452312 8.236749319251242e-05 -0.0001558247232118232" pbc="T T T"
Si       5.10655128       1.76448743       1.33820873
Si       8.48070399       1.62181917       1.81427912
Si      12.15239303       3.31991446       2.82433532
Si       6.76035721       0.42531574       1.37068503
Si       5.04531156       3.00245352       3.06291755
Si       8.70675132       4.62804085       4.21200313
Si       8.70786758      -0.20326274       0.76441996
Si       8.60086103       2.54137226       3.72880215
Si       6.99670133      -0.76673915      -0.37521053
Si      10.08442290       1.15599012      -0.10577921
Si       6.73533686       1.70146377       3.06818250
Si       6.81143844       3.62821554       4.06019929
12
Lattice="8.638979725876473 -1.1000065144108389 0.17321160798565102 2.1685373280261295 6.749146247470226 -0.45121444926636817 4.6984920790248 -2.0618229587545778 4.74262618655178" Properties=species:S:1:pos:R:3 unique_starting_index=78 config_type=initial n_minim_iter=7 stress="-0.00011069748618780607 -0.00010489561267192038 -0.00023235611168991586 -0.00010489561267192038 -5.19092503797449e-05 -4.591090231847156e-06 -0.00023235611168991586 -4.591090231847156e-06 9.299799593745974e-05" pbc="T T T"
Si       5.10632503       1.76431056       1.33781157
Si       8.48037210       1.62150158       1.81342471
Si      12.15191781       3.31951748       2.82302233
Si       6.76014422       0.42513074       1.37019288
Si       5.04526622       3.00258716       3.06236847
Si       8.70662911       4.62780881       4.21126421
Si       8.70777462      -0.20355148       0.76350297
Si       8.60028231       2.54134411       3.72812718
Si       6.99650081      -0.76658668      -0.37595731
Si      10.08429239       1.15590936      -0.10655941
Si       6.73514345       1.70149357       3.06781862
Si       6.81092254       3.62819973       4.05940250
12
Lattice="8.639402180901726 -1.0995127420464716 0.17393678009223562 2.1690358046245217 6.749509990132328 -0.4511346779053111 4.699016885048554 -2.0616937461739577 4.742712063121659" Properties=species:S:1:pos:R:3 unique_starting_index=78 config_type=initial n_minim_iter=8 stress="0.00017401787260449072 5.6142714369792954e-05 0.0001373566627439476 5.6142714369792954e-05 -0.0002990975545497085 9.73266404883992e-06 0.0001373566627439476 9.73266404883992e-06 0.00019899971157364552" pbc="T T T"
Si       5.10680354       1.76451131       1.33813828
Si       8.48103466       1.62186051       1.81391917
Si      12.15292490       3.32011056       2.82358017
Si       6.76060624       0.42549101       1.37075537
Si       5.04618432       3.00318413       3.06252858
Si       8.70801785       4.62834272       4.21174001
Si       8.70836298      -0.20302755       0.76403086
Si       8.60111578       2.54198689       3.72861885
Si       6.99664596      -0.76600001      -0.37555059
Si      10.08484392       1.15652138      -0.10566730
Si       6.73594887       1.70198144       3.06828268
Si       6.81181351       3.62875655       4.05953238
12
Lattice="8.638758697372737 -1.0994652036602164 0.17391086379962412 2.169103348407199 6.7509886449225105 -0.45124408816654255 4.698607280426893 -2.0621047729986435 4.7418012861099115" Properties=species:S:1:pos:R:3 unique_starting_index=78 config_type=initial n_minim_iter=9 stress="-0.0001453324129515 -6.938590493779639e-06 3.271476224897818e-05 -6.938590493779639e-06 0.00014231913436581458 -8.890992529841846e-05 3.271476224897818e-05 -8.890992529841846e-05 -1.8489558607457137e-05" pbc="T T T"
Si       5.10647886       1.76481553       1.33783062
Si       8.48044087       1.62225039       1.81350399
Si      12.15210703       3.32088260       2.82270925
Si       6.76010520       0.42572882       1.37060770
Si       5.04611803       3.00417074       3.06183471
Si       8.70781460       4.62934791       4.21090812
Si       8.70771855      -0.20276373       0.76372064
Si       8.60051804       2.54276123       3.72783453
Si       6.99592627      -0.76573574      -0.37574597
Si      10.08412709       1.15706886      -0.10564871
Si       6.73556905       1.70246771       3.06773553
Si       6.81142951       3.62975023       4.05850979
12
Lattice="8.638921181404532 -1.0991829391680537 0.17363350650429454 2.1694098084102653 6.751272180571324 -0.45097793565061817 4.698529461633309 -2.0618250624737353 4.740916244394464" Properties=species:S:1:pos:R:3 unique_starting_index=78 config_type=initial n_minim_iter=10 stress="4.864924978425059e-05 4.862326903002047e-05 -6.107675580795792e-05 4.862326903002047e-05 -0.00012774542829900484 0.00012936134935234147 -6.107675580795792e-05 0.00012936134935234147 -0.00016513258490501065" pbc="T T T"
Si       5.10660550       1.76495192       1.33760470
Si       8.48067805       1.62254013       1.81313251
Si      12.15238180       3.32134227       2.82196899
Si       6.76023465       0.42598052       1.37038220
Si       5.04641917       3.00479647       3.06136817
Si       8.70823573       4.62981709       4.21041310
Si       8.70782792      -0.20237832       0.76326920
Si       8.60075677       2.54336843       3.72721927
Si       6.99596206      -0.76539011      -0.37612608
Si      10.08441515       1.15751563      -0.10583823
Si       6.73563081       1.70283458       3.06737221
Si       6.81165162       3.63048430       4.05782816
12
Lattice="8.638204821509703 -1.0992751970229846 0.1741096424405982 2.169347435400377 6.752846272345803 -0.4516645861372452 4.698303873079132 -2.062757939169589 4.74094325746734" Properties=species:S:1:pos:R:3 unique_starting_index=78 config_type=initial n_minim_iter=11 stress="-6.699599832312324e-05 -2.086672709564094e-05 5.3598527563327114e-05 -2.086672709564094e-05 1.531624359077594e-06 -2.941469290976159e-05 5.3598527563327114e-05 -2.941469290976159e-05 2.9956983758092778e-05" pbc="T T T"
Si       5.10616885       1.76495423       1.33760625
Si       8.48017645       1.62254165       1.81332585
Si      12.15132147       3.32154490       2.82141781
Si       6.75979351       0.42580688       1.37073477
Si       5.04655085       3.00558117       3.06082348
Si       8.70789663       4.63008348       4.21029602
Si       8.70703366      -0.20221149       0.76319633
Si       8.60042453       2.54379388       3.72702158
Si       6.99522042      -0.76505397      -0.37625107
Si      10.08356908       1.15797866      -0.10544763
Si       6.73500190       1.70301661       3.06760170
Si       6.81150510       3.63155136       4.05715021
12
Lattice="8.638530727539045 -1.098817268690715 0.17336155598434835 2.1699329408601016 6.753641040649607 -0.45195208348119714 4.697981347665223 -2.062759152178962 4.739931671696541" Properties=species:S:1:pos:R:3 unique_starting_index=78 config_type=initial n_minim_iter=12 stress="2.774393363081035e-05 2.3631553582526524e-05 -2.8278262411148328e-05 2.3631553582526524e-05 9.569134240777417e-06 -9.68811027976306e-07 -2.8278262411148328e-05 -9.68811027976306e-07 -4.294235164097758e-05" pbc="T T T"
Si       5.10630532       1.76522158       1.33709778
Si       8.48055262       1.62302114       1.81262559
Si      12.15173267       3.32229156       2.81961431
Si       6.75995933       0.42610751       1.37021806
Si       5.04675838       3.00640796       3.05962431
Si       8.70819250       4.63082941       4.20930980
Si       8.70747119      -0.20148412       0.76195584
Si       8.60076995       2.54450270       3.72573099
Si       6.99555733      -0.76450765      -0.37723192
Si      10.08413195       1.15875440      -0.10623886
Si       6.73520807       1.70364188       3.06688214
Si       6.81178603       3.63253302       4.05561567
12
Lattice="8.63844232090218 -1.0987192027115236 0.17307657212903219 2.170071299281657 6.754151040906902 -0.4521563437076084 4.697741760849204 -2.0629107487536227 4.739550377986472" Properties=species:S:1:pos:R:3 unique_starting_index=78 config_type=initial n_minim_iter=13 stress="-5.354947601244256e-06 -1.2807428063125854e-05 1.6596402921135474e-05 -1.2807428063125854e-05 5.078855744641623e-05 -3.2723358335719694e-06 1.6596402921135474e-05 -3.2723358335719694e-06 5.00653252108691e-06" pbc="T T T"
Si       5.10612464       1.76512408       1.33689763
Si       8.48036359       1.62292450       1.81255978
Si      12.15138193       3.32253177       2.81866550
Si       6.75993307       0.42604282       1.37017466
Si       5.04676110       3.00681486       3.05894704
Si       8.70804177       4.63105944       4.20922585
Si       8.70724755      -0.20097906       0.76129907
Si       8.60067697       2.54479758       3.72533074
Si       6.99555929      -0.76421259      -0.37790256
Si      10.08424371       1.15921657      -0.10660872
Si       6.73523426       1.70392298       3.06679892
Si       6.81177403       3.63294959       4.05458081
12
Lattice="8.639269113648863 -1.098144051141887 0.17194231804343613 2.1707974735406053 6.754184941577444 -0.45245223690665604 4.697490009307899 -2.0626093837406403 4.738549870910316" Properties=species:S:1:pos:R:3 unique_starting_index=78 config_type=initial n_minim_iter=14 stress="3.255654502063502e-05 -3.517107461209924e-05 4.421434952206586e-06 -3.517107461209924e-05 2.5427714643352422e-05 1.2874964723354193e-05 4.421434952206586e-06 1.2874964723354193e-05 0.00012256118954771653" pbc="T T T"
Si       5.10642510       1.76455895       1.33602969
Si       8.48084674       1.62298998       1.81213136
Si      12.15216872       3.32325583       2.81643388
Si       6.76056255       0.42615247       1.36982274
Si       5.04737500       3.00716139       3.05764473
Si       8.70868660       4.63131877       4.20893595
Si       8.70788338      -0.20002127       0.75908017
Si       8.60152265       2.54547256       3.72460068
Si       6.99622811      -0.76333713      -0.37966588
Si      10.08568625       1.16007270      -0.10775329
Si       6.73578624       1.70436988       3.06580179
Si       6.81231883       3.63372205       4.05225085
12
Lattice="8.640881062111243 -1.0969303921618005 0.17033041289942022 2.1722975941964715 6.754646053797053 -0.4526933711725223 4.6973208026764475 -2.0619829126474687 4.736123795084612" Properties=species:S:1:pos:R:3 unique_starting_index=78 config_type=initial n_minim_iter=15 stress="0.00013838379815644082 0.00010259819284241617 -3.620905027840681e-05 0.00010259819284241617 0.00017921678350152597 3.55083615061157e-05 -3.620905027840681e-05 3.55083615061157e-05 -2.256897825190576e-05" pbc="T T T"
Si       5.10723464       1.76420803       1.33453507
Si       8.48231916       1.62368747       1.81097627
Si      12.15448184       3.32507209       2.81302528
Si       6.76205242       0.42621179       1.36841925
Si       5.04839113       3.00806178       3.05513414
Si       8.71052483       4.63259219       4.20764973
Si       8.70917429      -0.19806124       0.75590087
Si       8.60328219       2.54687067       3.72292770
Si       6.99733197      -0.76164821      -0.38173100
Si      10.08826663       1.16170223      -0.10916391
Si       6.73699831       1.70557752       3.06387098
Si       6.81370080       3.63544309       4.04823098
12
Lattice="8.641466846097142 -1.0970409305591304 0.1702901699827142 2.172297552974805 6.754102857446715 -0.45301002853217365 4.697622172170052 -2.0621249383470266 4.736295115773539" Properties=species:S:1:pos:R:3 unique_starting_index=78 config_type=initial n_minim_iter=16 stress="5.141437169283596e-05 2.831300146659634e-05 3.2893956398780306e-05 2.831300146659634e-05 6.145781793994634e-05 -2.572928003771481e-05 3.2893956398780306e-05 -2.572928003771481e-05 6.845021272934243e-05" pbc="T T T"
Si       5.10753415       1.76330993       1.33428437
Si       8.48284700       1.62320625       1.81121706
Si      12.15511831       3.32447366       2.81286071
Si       6.76254413       0.42564693       1.36838812
Si       5.04831101       3.00763308       3.05480358
Si       8.71094235       4.63201913       4.20824881
Si       8.70955055      -0.19803760       0.75532701
Si       8.60363140       2.54616811       3.72344908
Si       6.99770587      -0.76156294      -0.38206007
Si      10.08917779       1.16158336      -0.10918076
Si       6.73754050       1.70511042       3.06379561
Si       6.81423566       3.63531191       4.04743300
12
Lattice="8.642618146485743 -1.0973943659341936 0.1687791365820962 2.172257099765509 6.753034681411884 -0.453197864739159 4.697542764109193 -2.062020778585738 4.7349862079238365" Properties=species:S:1:pos:R:3 unique_starting_index=78 config_type=initial n_minim_iter=17 stress="-0.00020119511993411444 -0.0001674981314628242 -6.209402192953512e-05 -0.0001674981314628242 -0.0003022766800712535 -3.0337804356394405e-05 -6.209402192953512e-05 -3.0337804356394405e-05 -0.00010440779750655418" pbc="T T T"
Si       5.10812469       1.76160143       1.33312084
Si       8.48399055       1.62262362       1.81008325
Si      12.15555601       3.32350550       2.81069850
Si       6.76320232       0.42477127       1.36711520
Si       5.04787371       3.00627610       3.05307713
Si       8.71124502       4.63142937       4.20801527
Si       8.71029259      -0.19767283       0.75297056
Si       8.60329174       2.54464060       3.72313059
Si       6.99865184      -0.76181785      -0.38362732
Si      10.09109864       1.16120213      -0.11043517
Si       6.73760488       1.70468793       3.06212761
Si       6.81464369       3.63544305       4.04417554
12
Lattice="8.643598371771194 -1.0973073002515017 0.1681222630014656 2.1726719685931504 6.753552519633083 -0.45322864275829955 4.697720795817237 -2.0620823027982285 4.733291048243655" Properties=species:S:1:pos:R:3 unique_starting_index=78 config_type=initial n_minim_iter=18 stress="-9.565594793086612e-05 -5.0048332934165344e-05 -1.2321137188105991e-05 -5.0048332934165344e-05 -0.00019023818714207068 -3.771758588291327e-05 -1.2321137188105991e-05 -3.771758588291327e-05 -2.502997982020044e-05" pbc="T T T"
Si       5.10851281       1.76100703       1.33236547
Si       8.48488501       1.62296056       1.80962176
Si      12.15625008       3.32320657       2.80878093
Si       6.76446137       0.42445734       1.36655476
Si       5.04832103       3.00688779       3.05138288
Si       8.71233451       4.63152353       4.20760476
Si       8.71125052      -0.19697782       0.75142161
Si       8.60360399       2.54481237       3.72274912
Si       6.99922796      -0.76176080      -0.38489624
Si      10.09291885       1.16184867      -0.11070825
Si       6.73805201       1.70529212       3.06066894
Si       6.81542855       3.63680767       4.04082470
12
Lattice="8.645333327387538 -1.0978854551548654 0.16621018163716847 2.172957293254536 6.755113310890912 -0.4533668000189169 4.697752713250539 -2.0627511484576364 4.729056529005202" Properties=species:S:1:pos:R:3 unique_starting_index=78 config_type=initial n_minim_iter=19 stress="2.8421057366252063e-05 -1.63410015554867e-05 3.145167651660999e-05 -1.63410015554867e-05 -2.179686724054973e-05 -4.34000369981653e-05 3.145167651660999e-05 -4.34000369981653e-05 0.00011194846632963526" pbc="T T T"
Si       5.10940309       1.75936847       1.33024961
Si       8.48601877       1.62275480       1.80760930
Si      12.15675514       3.32201998       2.80400073
Si       6.76619865       0.42373578       1.36437540
Si       5.04842092       3.00781402       3.04751843
Si       8.71299983       4.63143923       4.20565718
Si       8.71340907      -0.19629926       0.74791652
Si       8.60387241       2.54475631       3.72105934
Si       7.00005067      -0.76168071      -0.38745698
Si      10.09638554       1.16271851      -0.11206437
Si       6.73831645       1.70634479       3.05695950
Si       6.81612749       3.63924842       4.03330908
12
Lattice="8.647256598030388 -1.0979775307519317 0.16412482454102578 2.1735918903983475 6.756067591333706 -0.4530382234021819 4.697774650559537 -2.0626712049653544 4.72465560320183" Properties=species:S:1:pos:R:3 unique_starting_index=78 config_type=initial n_minim_iter=20 stress="0.0001244108487757472 1.593732138953409e-05 8.261951591637109e-06 1.593732138953409e-05 6.86685506945482e-05 8.105746387564973e-06 8.261951591637109e-06 8.105746387564973e-06 0.00014706726479673938" pbc="T T T"
Si       5.11063293       1.75793757       1.32823911
Si       8.48744570       1.62282863       1.80573410
Si      12.15766826       3.32155961       2.79945962
Si       6.76811664       0.42344284       1.36209296
Si       5.04862796       3.00870079       3.04386617
Si       8.71436191       4.63174081       4.20374525
Si       8.71519649      -0.19517998       0.74412124
Si       8.60445780       2.54490611       3.71920946
Si       7.00147741      -0.76132089      -0.38998314
Si      10.09993006       1.16359645      -0.11335200
Si       6.73903728       1.70777913       3.05326125
Si       6.81697996       3.64200017       4.02633971
12
Lattice="8.651505839389438 -1.0978626896697485 0.1614047216283736 2.1751177380038094 6.7579557771355 -0.45240422385688656 4.698730613400014 -2.062542534273485 4.71724654091968" Properties=species:S:1:pos:R:3 unique_starting_index=78 config_type=initial n_minim_iter=21 stress="0.00025175979980397717 3.247649319534952e-05 1.919454349403592e-05 3.247649319534952e-05 0.00019773086607224974 4.6511606007668975e-05 1.919454349403592e-05 4.6511606007668975e-05 0.00020292050479133356" pbc="T T T"
Si       5.11356327       1.75566138       1.32525911
Si       8.49139560       1.62297282       1.80328686
Si      12.16113968       3.32162546       2.79305752
Si       6.77247233       0.42308615       1.35874723
Si       5.04989241       3.01013483       3.03765477
Si       8.71812692       4.63277136       4.20122818
Si       8.71935851      -0.19295449       0.73792997
Si       8.60657782       2.54539786       3.71681011
Si       7.00399460      -0.76065002      -0.39447416
Si      10.10732646       1.16561489      -0.11464213
Si       6.74115874       1.71055720       3.04763125
Si       6.82023653       3.64686513       4.01437019
