8
Lattice="7.27825592992757 1.9987796207807499e-16 -2.2543190722510455e-51 -3.6391279649637847 6.303154530562008 6.43333434065232e-50 1.82329362571126e-51 -5.902964438074149e-50 5.8866545586561445" Properties=species:S:1:pos:R:3 unique_starting_index=80 config_type=initial n_minim_iter=1 energy=-1301.348369100864 free_energy=-1301.348369100864 pbc="T T T"
Si       3.64026242       4.11916207       4.19944800
Si       1.89082537       1.08904822       4.19944800
Si       5.38969946       1.08904822       4.19944800
Si       1.75057150       5.21017563       4.19944800
Si       0.00113445       2.18006178       4.19944800
Si      -1.74830259       5.21017563       4.19944800
Si       3.64026242       2.09908617       3.39288734
Si       0.00113445       4.20013768       3.39288734
8
Lattice="7.27188347533816 1.9982648012834402e-16 -5.081543290213855e-50 -3.6359417376690795 6.297635823003118 -1.1146092350129493e-49 -1.9496855146603048e-50 7.388878044599619e-50 5.884638936786569" Properties=species:S:1:pos:R:3 unique_starting_index=80 config_type=initial n_minim_iter=2 stress="-0.00021251016313767056 2.4129129691049463e-16 2.511570769047154e-17 2.4129129691049463e-16 -0.00021251016313668185 -5.913866482457478e-17 2.511570769047154e-17 -5.913866482457478e-17 0.00038245587085277837" pbc="T T T"
Si       3.63707520       4.11564639       4.19804228
Si       1.88909119       1.08804928       4.19804228
Si       5.38505921       1.08804928       4.19804228
Si       1.74911747       5.20565930       4.19804228
Si       0.00113346       2.17806218       4.19804228
Si      -1.74685055       5.20565930       4.19804228
Si       3.63707520       2.09724832       3.39162900
Si       0.00113346       4.19646026       3.39162900
8
Lattice="7.2729140142120805 1.9566944611509592e-16 -5.077569528329013e-50 -3.63645700710604 6.298528295847521 1.1284228543443025e-48 -1.9538635460291775e-50 7.374990460099161e-50 5.8744439705879925" Properties=species:S:1:pos:R:3 unique_starting_index=80 config_type=initial n_minim_iter=3 stress="0.0001937019725410815 2.275718552391634e-17 7.687651489358217e-17 2.275718552391634e-17 0.00019370197254273177 -2.269673960755994e-16 7.687651489358217e-17 -2.269673960755994e-16 -0.0012929461105439374" pbc="T T T"
Si       3.63759063       4.11743918       4.19114869
Si       1.88831142       1.08759871       4.19114869
Si       5.38686984       1.08759871       4.19114869
Si       1.75041283       5.20700179       4.19114869
Si       0.00113362       2.17716131       4.19114869
Si      -1.74814559       5.20700179       4.19114869
Si       3.63759063       2.09754553       3.38461491
Si       0.00113362       4.19705496       3.38461491
8
Lattice="7.2708136461427415 1.9828006010717534e-16 3.6695815087110544e-48 -3.6354068230713703 6.296709323742176 -2.5892594948558776e-48 -1.8754143733062029e-50 7.404597835465263e-50 5.884537787293772" Properties=species:S:1:pos:R:3 unique_starting_index=80 config_type=initial n_minim_iter=4 stress="-0.00010473406151833078 4.842648253785863e-17 4.035347463102172e-17 4.842648253785863e-17 -0.00010473406151662964 -1.7774330839551995e-16 4.035347463102172e-17 -1.7774330839551995e-16 0.000267590959762729" pbc="T T T"
Si       3.63654012       4.11867603       4.19890611
Si       1.88566516       1.08607164       4.19890611
Si       5.38741508       1.08607164       4.19890611
Si       1.75200825       5.20671101       4.19890611
Si       0.00113329       2.17410662       4.19890611
Si      -1.74974167       5.20671101       4.19890611
Si       3.63654012       2.09693977       3.38876275
Si       0.00113329       4.19584288       3.38876275
8
Lattice="7.271355249279702 2.0282412994951752e-16 3.979715302763114e-48 -3.6356776246398503 6.297178365817552 -3.208812532080928e-48 -5.191137805030172e-49 3.637356753158719e-49 5.8827835507128805" Properties=species:S:1:pos:R:3 unique_starting_index=80 config_type=initial n_minim_iter=5 stress="7.562231836436696e-06 1.7314840744057334e-16 5.713167621673408e-17 1.7314840744057334e-16 7.5622318380721484e-06 -1.6150559997760953e-16 5.713167621673408e-17 -1.6150559997760953e-16 -4.863061623769385e-06" pbc="T T T"
Si       3.63681100       4.11841011       4.19752912
Si       1.88630161       1.08643891       4.19752912
Si       5.38732039       1.08643891       4.19752912
Si       1.75164277       5.20681250       4.19752912
Si       0.00113338       2.17484129       4.19752912
Si      -1.74937601       5.20681250       4.19752912
Si       3.63681100       2.09709597       3.38812829
Si       0.00113338       4.19615543       3.38812829
