14
Lattice="7.883361640098634 -1.1617991130152803 1.8978177279977202 -1.5122628433287593 7.159760008937835 -0.9724957374238011 -1.8744230186675905 -0.18368275975700915 5.64677867088387" Properties=species:S:1:pos:R:3 unique_starting_index=20 config_type=initial n_minim_iter=1 energy=-2285.1688888725294 free_energy=-2285.1688888725294 pbc="T T T"
Si       3.24009969       3.43087616       5.99083457
Si       5.21504780       1.67569785       1.51424022
Si       1.25657609       2.38340198       0.58126610
Si      -0.71837203       4.13858028       5.05786044
Si       4.64632759       3.37195444       4.34474044
Si       5.64013087       1.64927639       3.60279088
Si      -0.14965181       2.44232370       2.22736022
Si      -1.14345509       4.16500174       2.96930978
Si       0.73764614       4.24561223       1.50703532
Si       0.30946985       2.43922711       4.31748480
Si       3.75902964       1.56866591       5.06506534
Si       4.18720593       3.37505103       2.25461586
Si       2.73035971       3.89852722       0.78594765
Si       1.76631607       1.91575091       5.78615301
14
Lattice="7.883031931404757 -1.1623138938825712 1.897246810545191 -1.5124677602474743 7.161220484377925 -0.9721372589639671 -1.8744021664963573 -0.1835608091391589 5.645443464869122" Properties=species:S:1:pos:R:3 unique_starting_index=20 config_type=initial n_minim_iter=2 stress="1.157261242124091e-05 -4.976932190881468e-05 -0.0006276275835245183 -4.976932190881468e-05 -0.000534368561699738 0.0006289406425533105 -0.0006276275835245183 0.0006289406425533105 -0.0003316683817715277" pbc="T T T"
Si       3.23972653       3.43151672       5.98941047
Si       5.21471785       1.67581414       1.51383820
Si       1.25643548       2.38382906       0.58114255
Si      -0.71855585       4.13953165       5.05671481
Si       4.64592959       3.37249221       4.34364142
Si       5.63979386       1.64942394       3.60192101
Si      -0.14976759       2.44285357       2.22691160
Si      -1.14363185       4.16592184       2.96863201
Si       0.73741971       4.24647907       1.50669340
Si       0.30933162       2.43974296       4.31645702
Si       3.75874230       1.56886671       5.06385962
Si       4.18683038       3.37560282       2.25409599
Si       2.73005844       3.89920099       0.78577520
Si       1.76610356       1.91614479       5.78477781
14
Lattice="7.883197810101702 -1.1635023177590529 1.8996695504473013 -1.5127845682557093 7.164747212353603 -0.9745194290543728 -1.8726947027558158 -0.1852148912763203 5.64449805101112" Properties=species:S:1:pos:R:3 unique_starting_index=20 config_type=initial n_minim_iter=3 stress="0.0006805998955475652 0.000276783795453785 0.0009833898923501461 0.000276783795453785 0.0008547101619323156 -3.5142607825162066e-05 0.0009833898923501461 -3.5142607825162066e-05 0.0005026698209163858" pbc="T T T"
Si       3.24112402       3.43131477       5.98884969
Si       5.21475801       1.67593293       1.51475873
Si       1.25659452       2.38471524       0.58079848
Si      -0.71703947       4.14009708       5.05488944
Si       4.64692158       3.37258333       4.34344333
Si       5.64064801       1.64905414       3.60311422
Si      -0.14920304       2.44344668       2.22620484
Si      -1.14292947       4.16697587       2.96653395
Si       0.73768233       4.24813107       1.50542141
Si       0.31062519       2.43959241       4.31541414
Si       3.76003621       1.56789893       5.06422676
Si       4.18709335       3.37643759       2.25423403
Si       2.73004096       3.90059448       0.78528907
Si       1.76767758       1.91543553       5.78435910
14
Lattice="7.88180954555211 -1.164371600534841 1.8994593281042167 -1.5129195659302241 7.165221250022405 -0.9757339939522497 -1.8725468613116112 -0.18616837924088703 5.644130017354718" Properties=species:S:1:pos:R:3 unique_starting_index=20 config_type=initial n_minim_iter=4 stress="-0.0014589973797016524 0.000540836800485211 0.0007532408203476392 0.000540836800485211 -0.0012170068718001129 -0.0007429998633641585 0.0007532408203476392 -0.0007429998633641585 -0.0008251494194785934" pbc="T T T"
Si       3.24001927       3.43006805       5.98755715
Si       5.21353452       1.67528447       1.51420841
Si       1.25632384       2.38461322       0.58029820
Si      -0.71719141       4.13939680       5.05364695
Si       4.64576316       3.37141242       4.34212264
Si       5.63955876       1.64805822       3.60262832
Si      -0.14942005       2.44326885       2.22573271
Si      -1.14321564       4.16662305       2.96522704
Si       0.73712887       4.24804687       1.50436325
Si       0.31043453       2.43882381       4.31456388
Si       3.75921425       1.56663441       5.06349210
Si       4.18590859       3.37585746       2.25329147
Si       2.72928173       3.90024032       0.78430669
Si       1.76706139       1.91444095       5.78354866
14
Lattice="7.882007297079416 -1.1657881724833317 1.89879846660984 -1.5137713636751413 7.166848647780079 -0.9763625809502626 -1.8732475219609785 -0.186541572469499 5.644787497230064" Properties=species:S:1:pos:R:3 unique_starting_index=20 config_type=initial n_minim_iter=5 stress="-0.0003132383041167737 -0.0006552167991999941 -0.00046460812818418054 -0.0006552167991999941 0.0005304170868401448 -0.0003176897761489749 -0.00046460812818418054 -0.0003176897761489749 0.0012334762254123611" pbc="T T T"
Si       3.23887148       3.42968720       5.98722277
Si       5.21314101       1.67466173       1.51365268
Si       1.25611693       2.38483170       0.58000062
Si      -0.71815259       4.13985717       5.05357071
Si       4.64498252       3.37080923       4.34139709
Si       5.63928609       1.64721234       3.60242418
Si      -0.14999411       2.44370967       2.22582630
Si      -1.14429768       4.16730657       2.96479920
Si       0.73627128       4.24872912       1.50384310
Si       0.30984399       2.43879204       4.31459546
Si       3.75871713       1.56578978       5.06338028
Si       4.18514442       3.37572686       2.25262792
Si       2.72879930       3.90040294       0.78355174
Si       1.76618911       1.91411596       5.78367165
14
Lattice="7.886582615940845 -1.1651207889674098 1.8986238145261083 -1.5137488003880095 7.168285131375269 -0.9766154501662766 -1.8739527644642762 -0.18729021939289367 5.6421555336545675" Properties=species:S:1:pos:R:3 unique_starting_index=20 config_type=initial n_minim_iter=6 stress="0.0018604060260209569 0.0010125258850678912 -0.0008511476259371068 0.0010125258850678912 0.000289654944447708 -0.0007519152057207735 -0.0008511476259371068 -0.0007519152057207735 -0.0005352695320477063" pbc="T T T"
Si       3.24137462       3.43058326       5.98430518
Si       5.21561648       1.67531655       1.51399347
Si       1.25750643       2.38529086       0.57985872
Si      -0.71673543       4.14055757       5.05017042
Si       4.64827258       3.37086634       4.33912915
Si       5.64366918       1.64760167       3.60235095
Si      -0.14939153       2.44500779       2.22503475
Si      -1.14478813       4.16827245       2.96181295
Si       0.73658994       4.25000590       1.50243029
Si       0.31153416       2.43920204       4.31280175
Si       3.76229111       1.56586822       5.06173361
Si       4.18734689       3.37667208       2.25136215
Si       2.73120894       3.90125392       0.78275455
Si       1.76767211       1.91462020       5.78140934
14
Lattice="7.888000000421878 -1.1672275275416182 1.9016169460151464 -1.5162908387002747 7.170491734947653 -0.9753163637142067 -1.8712087346363908 -0.18542293116585756 5.639609967187345" Properties=species:S:1:pos:R:3 unique_starting_index=20 config_type=initial n_minim_iter=7 stress="0.0009352878472455464 -0.0014947134646918008 0.0009316274033802372 -0.0014947134646918008 -0.0004149454931173437 0.00042298779914480317 0.0009316274033802372 0.00042298779914480317 -0.000804289328637514" pbc="T T T"
Si       3.24293342       3.43223431       5.98464631
Si       5.21468032       1.67429494       1.51760438
Si       1.25756700       2.38560697       0.58126424
Si      -0.71417990       4.14354633       5.04830617
Si       4.64912446       3.37028680       4.34067706
Si       5.64589594       1.64652298       3.60600065
Si      -0.14862403       2.44755448       2.22523349
Si      -1.14539551       4.17131829       2.95990990
Si       0.73513024       4.25172620       1.50270152
Si       0.31410540       2.44116410       4.31286630
Si       3.76537019       1.56611508       5.06320903
Si       4.18639503       3.37667718       2.25304425
Si       2.73041195       3.90156914       0.78438548
Si       1.77008847       1.91627214       5.78152507
14
Lattice="7.885108443654078 -1.1648230395503443 1.9022680532645204 -1.5130920318019712 7.17512640836388 -0.9747249688462417 -1.8700949217602483 -0.18571050120827723 5.639367745707361" Properties=species:S:1:pos:R:3 unique_starting_index=20 config_type=initial n_minim_iter=8 stress="-0.0017359252286330749 0.0004904319954545398 -0.00018225491405591813 0.0004904319954545398 0.001351291573710455 0.0007059009197962285 -0.00018225491405591813 0.0007059009197962285 -2.1361381041740726e-05" pbc="T T T"
Si       3.24336639       3.43679063       5.98467908
Si       5.21211595       1.67732878       1.51974266
Si       1.25855510       2.38780224       0.58223175
Si      -0.71019446       4.14726408       5.04716817
Si       4.64892152       3.37375447       4.34110525
Si       5.64591516       1.64916892       3.60821202
Si      -0.14700003       2.45083840       2.22580558
Si      -1.14399367       4.17542395       2.95869881
Si       0.73578849       4.25578720       1.50212866
Si       0.31678171       2.44400554       4.31369806
Si       3.76613300       1.56880567       5.06478217
Si       4.18513978       3.38058732       2.25321277
Si       2.73059850       3.90564697       0.78453457
Si       1.77132299       1.91894590       5.78237626
14
Lattice="7.894579348963993 -1.1652173975738107 1.9038162800623637 -1.5140318923357254 7.180227345314298 -0.9775261474725022 -1.8705256782940398 -0.188526295136981 5.634723922796994" Properties=species:S:1:pos:R:3 unique_starting_index=20 config_type=initial n_minim_iter=9 stress="-0.00010261690579654656 -0.0005982006804223842 -0.0006067580293723658 -0.0005982006804223842 0.0008880604145953475 -0.0006379291088963591 -0.0006067580293723658 -0.0006379291088963591 -0.0013961354138476356" pbc="T T T"
Si       3.24816384       3.43685081       5.97792251
Si       5.21506247       1.67721262       1.52393943
Si       1.26185793       2.38963284       0.58309155
Si      -0.70504069       4.14927103       5.03707462
Si       4.65509359       3.37186880       4.33673335
Si       5.65573823       1.64621757       3.60945739
Si      -0.14507181       2.45461485       2.22428070
Si      -1.14571645       4.18026608       2.95155667
Si       0.73593585       4.25917867       1.49600389
Si       0.32236114       2.44507413       4.31029912
Si       3.77408593       1.56730498       5.06501016
Si       4.18766064       3.38140952       2.25071493
Si       2.73240607       3.90831546       0.78145459
Si       1.77761571       1.91816819       5.77955946
14
Lattice="7.905092344079651 -1.1524119759017297 1.9102503798904948 -1.5067357587224426 7.181926060019734 -0.9701578398488548 -1.8670001516631056 -0.18456202470135044 5.630027311023809" Properties=species:S:1:pos:R:3 unique_starting_index=20 config_type=initial n_minim_iter=10 stress="-0.0007055823590497429 -1.615896068916346e-05 -0.0007052844674711111 -1.615896068916346e-05 0.0016327190599458982 -0.00026654679042537174 -0.0007052844674711111 -0.00026654679042537174 -0.0013566244447311819" pbc="T T T"
Si       3.26134811       3.45051359       5.98000800
Si       5.22104333       1.68289633       1.53807816
Si       1.27000833       2.39443847       0.59011186
Si      -0.68968690       4.16205573       5.03204169
Si       4.66957585       3.38052633       4.34166152
Si       5.67202895       1.65347978       3.62051012
Si      -0.13821941       2.46442573       2.22845833
Si      -1.14067252       4.19147228       2.94960973
Si       0.74235233       4.26648552       1.49383100
Si       0.33872014       2.45263308       4.31328432
Si       3.78900410       1.57846654       5.07628885
Si       4.19263630       3.39231898       2.25683553
Si       2.73951005       3.91429936       0.78594158
Si       1.79184638       1.93065270       5.78417827
14
Lattice="7.912396721431083 -1.1423445899868425 1.9117677274207636 -1.5028875555782462 7.173189774792156 -0.9601085454195017 -1.8666470224812772 -0.17745214502728102 5.629238949882566" Properties=species:S:1:pos:R:3 unique_starting_index=20 config_type=initial n_minim_iter=11 stress="0.00032260414241666027 0.0005536544991077477 -0.0008168500377502045 0.0005536544991077477 0.0003507553196221277 0.0002453665542846029 -0.0008168500377502045 0.0002453665542846029 -0.0010258106415052654" pbc="T T T"
Si       3.26789925       3.45914362       5.98645211
Si       5.22606576       1.68552807       1.54551203
Si       1.27496289       2.39424942       0.59444602
Si      -0.68320362       4.16786497       5.03538610
Si       4.67863729       3.38557979       4.34644842
Si       5.68159433       1.65917776       3.62794512
Si      -0.13577515       2.46781325       2.23444971
Si      -1.13873219       4.19421528       2.95295301
Si       0.74609647       4.26675776       1.49673517
Si       0.34515090       2.45777945       4.31794446
Si       3.79676567       1.58663528       5.08416297
Si       4.19771125       3.39561359       2.26295367
Si       2.74371251       3.91499377       0.79138312
Si       1.79914963       1.93839927       5.78951501
14
Lattice="7.912650393444484 -1.1352510773280073 1.9148594569824198 -1.5002080331310212 7.164447226749289 -0.9516162616748803 -1.8637817240324746 -0.1705466754379706 5.62982617828218" Properties=species:S:1:pos:R:3 unique_starting_index=20 config_type=initial n_minim_iter=12 stress="0.00012160960019806506 0.00018206091194422334 -2.0249266585360187e-05 0.00018206091194422334 -0.0004957631718219284 -0.00011255753690605746 -2.0249266585360187e-05 -0.00011255753690605746 -0.0003484935747245535" pbc="T T T"
Si       3.27086751       3.46555275       5.99449773
Si       5.22671350       1.68541576       1.55530464
Si       1.27779313       2.39309673       0.59857164
Si      -0.67805286       4.17323371       5.03776473
Si       4.68219979       3.38978848       4.35216746
Si       5.68638818       1.66125243       3.63641740
Si      -0.13353915       2.46886100       2.24090191
Si      -1.13772755       4.19739704       2.95665198
Si       0.74760819       4.26704239       1.49902779
Si       0.35007094       2.46267820       4.32404251
Si       3.80105244       1.59160708       5.09404159
Si       4.19858970       3.39597127       2.26902687
Si       2.74550022       3.91395287       0.79645890
Si       1.80316042       1.94469661       5.79661047
14
Lattice="7.905476076772701 -1.121530698191805 1.9180872059686873 -1.494858167086301 7.139713477413027 -0.9331558347688027 -1.8584870938248386 -0.15526507617900498 5.63254959847653" Properties=species:S:1:pos:R:3 unique_starting_index=20 config_type=initial n_minim_iter=13 stress="-0.0008239483327536418 -0.00040116459627185944 0.0014186126396108112 -0.00040116459627185944 -0.002104191489021933 -0.00030194105482219785 0.0014186126396108112 -0.00030194105482219785 0.0009581139900133296" pbc="T T T"
Si       3.27398593       3.47523468       6.00753181
Si       5.22412159       1.68018028       1.57264175
Si       1.27814489       2.38768302       0.60994916
Si      -0.67199077       4.18273742       5.04483922
Si       4.68079528       3.39370251       4.36335365
Si       5.68842137       1.66453482       3.65318154
Si      -0.12866446       2.46921520       2.25412732
Si      -1.13629056       4.19838288       2.96429943
Si       0.74744878       4.26307791       1.50362766
Si       0.35695045       2.47049826       4.33495815
Si       3.80468203       1.59983979       5.11385331
Si       4.19518037       3.39241944       2.28252282
Si       2.74595231       3.91042565       0.80450282
Si       1.80617851       1.95249205       5.81297814
14
Lattice="7.908883858262252 -1.1056138203725077 1.916977847116241 -1.4897734865886827 7.114161290501703 -0.9120181212567071 -1.8579317313494674 -0.13924878941022614 5.631840363089505" Properties=species:S:1:pos:R:3 unique_starting_index=20 config_type=initial n_minim_iter=14 stress="0.0005715344177830172 -0.0010463711095497444 0.002089764669086796 -0.0010463711095497444 -0.0016383964055424703 -0.0008293180931869467 0.002089764669086796 -0.0008293180931869467 0.0020698715978508565" pbc="T T T"
Si       3.27915812       3.48520616       6.01500001
Si       5.22876429       1.67420724       1.58742382
Si       1.28202052       2.38409252       0.62180008
Si      -0.66758565       4.19509145       5.04937627
Si       4.68426028       3.40022377       4.37154979
Si       5.69593162       1.67049484       3.66741413
Si      -0.12308164       2.46907491       2.26525030
Si      -1.13475298       4.19880385       2.96938596
Si       0.74822783       4.26310010       1.50467172
Si       0.36369479       2.48035224       4.34845821
Si       3.81295081       1.60619859       5.13212837
Si       4.19748385       3.38894644       2.28834188
Si       2.74969419       3.90780169       0.80769485
Si       1.81148445       1.96149699       5.82910524
14
Lattice="7.902235847333694 -1.0710758206242306 1.9157030515572782 -1.4726315068771392 7.08137896431581 -0.8670432227161229 -1.8542678076857522 -0.10603348728793384 5.636384600601958" Properties=species:S:1:pos:R:3 unique_starting_index=20 config_type=initial n_minim_iter=15 stress="-0.00020477388049024576 -0.0012861187188378293 0.0013874477666951915 -0.0012861187188378293 -0.0010605367603276352 -0.0007854631049191812 0.0013874477666951915 -0.0007854631049191812 0.0022373219693977656" pbc="T T T"
Si       3.28454729       3.51878281       6.03931081
Si       5.23223365       1.67579126       1.61902914
Si       1.29078924       2.38548685       0.64573362
Si      -0.65689712       4.22847840       5.06601529
Si       4.68412835       3.42652714       4.39168234
Si       5.69695703       1.69720148       3.69694666
Si      -0.10879182       2.47774252       2.29336209
Si      -1.12162050       4.20706817       2.98809777
Si       0.75300279       4.27313198       1.51974171
Si       0.37514849       2.50857853       4.37812742
Si       3.82233374       1.63113767       5.16530272
Si       4.20018804       3.39569112       2.30691701
Si       2.75524847       3.91232604       0.82201219
Si       1.82008806       1.99194362       5.86303224
14
Lattice="7.90483956605914 -1.054952987683582 1.9134011580873769 -1.4639688803818374 7.071825366980533 -0.848945219840764 -1.8552536588348476 -0.09391888882175281 5.636914847083466" Properties=species:S:1:pos:R:3 unique_starting_index=20 config_type=initial n_minim_iter=16 stress="0.00010576286425457614 1.8322250523387434e-05 0.0007003642701425127 1.8322250523387434e-05 -0.0011074769206121063 0.0002308856825821963 0.0007003642701425127 0.0002308856825821963 0.0015441990187695799" pbc="T T T"
Si       3.28982132       3.53411176       6.04652486
Si       5.23801095       1.68267126       1.62606940
Si       1.29579571       2.38884173       0.65484592
Si      -0.65239392       4.24028224       5.07530139
Si       4.68732037       3.44191814       4.39840193
Si       5.70272513       1.71114261       3.70641137
Si      -0.10170335       2.48103535       2.30296886
Si      -1.11710810       4.21181088       2.99495941
Si       0.75881073       4.27666163       1.52714715
Si       0.37913644       2.52101552       4.38693406
Si       3.82680630       1.64629186       5.17422363
Si       4.20648058       3.40193797       2.31443673
Si       2.76130827       3.91516955       0.82895893
Si       1.82430876       2.00778394       5.87241185
14
Lattice="7.908162302222863 -1.0568243323108972 1.9094376514086149 -1.4635628304763568 7.079893174171057 -0.853369565973164 -1.8592641951532713 -0.09872878368921922 5.635736046944266" Properties=species:S:1:pos:R:3 unique_starting_index=20 config_type=initial n_minim_iter=17 stress="0.000753128049852055 0.0005418739138651187 -0.00044812791622042677 0.0005418739138651187 0.001104679716090157 -6.558173279804227e-05 -0.00044812791622042677 -6.558173279804227e-05 -0.0002253959156582207" pbc="T T T"
Si       3.28856687       3.53164958       6.03921567
Si       5.24269034       1.68632592       1.61939351
Si       1.29676841       2.39269048       0.65258846
Si      -0.65735506       4.23801414       5.07241062
Si       4.68746665       3.44297018       4.39230627
Si       5.70454595       1.71272785       3.70094123
Si      -0.10213137       2.48136988       2.29949787
Si      -1.11921068       4.21161221       2.99086290
Si       0.76113684       4.27714327       1.52524147
Si       0.37626700       2.52037290       4.38340290
Si       3.82419844       1.64719679       5.16656266
Si       4.20906827       3.40396716       2.30840124
Si       2.76317245       3.91836448       0.82708525
Si       1.82216282       2.00597557       5.86471889
14
Lattice="7.906622585735421 -1.0480293800498397 1.9063884043950934 -1.4566889084692645 7.0827860938035085 -0.8441827186940228 -1.8605463188765634 -0.09362119061608486 5.635785376236269" Properties=species:S:1:pos:R:3 unique_starting_index=20 config_type=initial n_minim_iter=18 stress="-5.4074823808940475e-05 0.0008890282437800625 -0.0007062097278332012 0.0008890282437800625 0.001011769393268599 0.00029059693736905234 -0.0007062097278332012 0.00029059693736905234 -0.000755779120996976" pbc="T T T"
Si       3.28937554       3.54364698       6.04099188
Si       5.24727789       1.69438575       1.62212539
Si       1.30001182       2.39748855       0.65699918
Si      -0.65789054       4.24674977       5.07586568
Si       4.68894944       3.45408771       4.39483964
Si       5.70767123       1.72476648       3.70349389
Si      -0.09956208       2.48704782       2.30315142
Si      -1.11828387       4.21636904       2.99449717
Si       0.76593628       4.28157759       1.53105757
Si       0.37684768       2.52932347       4.38693034
Si       3.82345108       1.65955793       5.16693349
Si       4.21253967       3.41181205       2.31106072
Si       2.76579619       3.92412976       0.82862117
Si       1.82359117       2.01700576       5.86936989
14
Lattice="7.905999735874758 -1.0405527809212665 1.9053678040171065 -1.4531703575829102 7.075385886562257 -0.8341029654675468 -1.8603869516978264 -0.08627541975134416 5.6364751254469825" Properties=species:S:1:pos:R:3 unique_starting_index=20 config_type=initial n_minim_iter=19 stress="-0.0003040718512311364 1.042065525495037e-06 -0.00014451186327489268 1.042065525495037e-06 -0.0006712369754262285 4.281438096408899e-05 -0.00014451186327489268 4.281438096408899e-05 -0.00014634314899463147" pbc="T T T"
Si       3.28970663       3.55092782       6.04408382
Si       5.25151844       1.69578835       1.62824259
Si       1.30273579       2.39762986       0.66365614
Si      -0.65907602       4.25276934       5.07949737
Si       4.68869709       3.45896514       4.39791129
Si       5.71019129       1.73043904       3.70977544
Si      -0.09625467       2.48959255       2.30982867
Si      -1.11774886       4.21811865       2.99796453
Si       0.76837695       4.28272995       1.53506365
Si       0.37924718       2.53631722       4.39383637
Si       3.82406548       1.66582773       5.17267631
Si       4.21319525       3.41224047       2.31390360
Si       2.76732676       3.92534475       0.83057527
Si       1.82511566       2.02321294       5.87716470
14
Lattice="7.904555911462098 -1.0385415640456022 1.9047836810431482 -1.4510616561384633 7.078809961507401 -0.8317287857137646 -1.8603074973415865 -0.08503671001822712 5.6363967528743935" Properties=species:S:1:pos:R:3 unique_starting_index=20 config_type=initial n_minim_iter=20 stress="5.1576007018767446e-05 -0.0009788125530241917 0.0002932230503951582 -0.0009788125530241917 -0.0003850739265222867 -8.243359616743409e-05 0.0002932230503951582 -8.243359616743409e-05 -0.00019251924992935238" pbc="T T T"
Si       3.28775113       3.55613734       6.04171452
Si       5.25657945       1.69994993       1.62883354
Si       1.30543562       2.39909435       0.66773713
Si      -0.66339269       4.25528176       5.08061811
Si       4.68662312       3.46165349       4.39614725
Si       5.71100868       1.73359765       3.71096758
Si      -0.09343636       2.49357820       2.31330440
Si      -1.11782192       4.22163404       2.99848407
Si       0.77111764       4.28611893       1.53821569
Si       0.38043206       2.54130954       4.39728747
Si       3.82206912       1.66911275       5.17123596
Si       4.21275469       3.41392215       2.31216417
Si       2.76764323       3.92923683       0.82752386
Si       1.82554353       2.02599486       5.88192779
14
Lattice="7.907815656034153 -1.0265635489960525 1.9084344852296693 -1.4445277412294841 7.0728082654192885 -0.8218238557450549 -1.8574004024553712 -0.07837289602471172 5.634884131830431" Properties=species:S:1:pos:R:3 unique_starting_index=20 config_type=initial n_minim_iter=21 stress="0.0007843020244013703 -0.0005542905449920639 0.0005181161634329722 -0.0005542905449920639 -2.1997485769776762e-05 -7.014464364210508e-05 0.0005181161634329722 -7.014464364210508e-05 0.0006374798339863267" pbc="T T T"
Si       3.29202908       3.56845921       6.04153526
Si       5.26813695       1.70628394       1.63879935
Si       1.31385843       2.39941261       0.67995950
Si      -0.66224943       4.26158788       5.08269541
Si       4.69078701       3.46726785       4.39617738
Si       5.72212870       1.73906376       3.72142448
Si      -0.08489950       2.50060397       2.32531738
Si      -1.11624118       4.22880806       3.00007028
Si       0.77885987       4.29058535       1.54336129
Si       0.39274538       2.55105539       4.40872183
Si       3.82702764       1.67728647       5.17813347
Si       4.21314214       3.41681643       2.31277293
Si       2.77225572       3.93495714       0.82551845
Si       1.83363180       2.03291468       5.89597631
