8
Lattice="6.217516999700649 0.9257314858776993 0.7312879812188429 2.755700903311882 5.649832648583316 0.7312879812188309 2.7557009033118987 2.019374567849981 5.327055229974034" Properties=species:S:1:pos:R:3 unique_starting_index=42 config_type=initial n_minim_iter=1 energy=-1301.284624728219 free_energy=-1301.284624728219 pbc="T T T"
Si       7.71553983       6.49338978       2.48736240
Si       8.51599641       3.67015273       4.67850633
Si       6.06503473       6.17536001       5.74116016
Si       8.68473362       7.41487376       4.28258738
Si       9.68663661       5.56629508       4.89192558
Si       8.22574241       6.50916585       6.22201153
Si       7.61847886       5.58281287       4.41018159
Si       2.15624239       1.58009204       1.24820462
8
Lattice="6.231673456031394 0.940309435692344 0.7428039333635993 2.773866184492798 5.658940032195581 0.7428039333635864 2.7738661844928134 2.0326860657670807 5.333249228138733" Properties=species:S:1:pos:R:3 unique_starting_index=42 config_type=initial n_minim_iter=2 stress="0.015663369474921675 0.004586069616920229 0.0036227973694845394 0.004586069616920229 0.012765743968346165 0.0026547818972715983 0.0036227973694845394 0.0026547818972715983 0.011502240531842718" pbc="T T T"
Si       7.74743416       6.51439379       2.50599452
Si       8.54563263       3.69385455       4.69762414
Si       6.09656320       6.19884771       5.75728019
Si       8.72452995       7.44155156       4.30417090
Si       9.72406346       5.59421680       4.91602763
Si       8.26364162       6.53892788       6.24296796
Si       7.65189109       5.60729731       4.42952324
Si       2.16718635       1.58811176       1.25453985
8
Lattice="6.243877792403979 0.9734707227661757 0.7689999211298013 2.8091635113213775 5.660587911270269 0.7689999211297909 2.8091635113213935 2.0585519077476264 5.328787894355081" Properties=species:S:1:pos:R:3 unique_starting_index=42 config_type=initial n_minim_iter=3 stress="-0.006009098875086909 0.014833581824205586 0.011717890416336283 0.014833581824205586 -0.015381430443957138 0.008586857110344952 0.011717890416336283 0.008586857110344952 -0.01946821568190203" pbc="T T T"
Si       7.79881543       6.54129605       2.54095159
Si       8.58676338       3.73732824       4.72931110
Si       6.15040773       6.23572167       5.77535897
Si       8.79273283       7.47870605       4.34051673
Si       9.78003757       5.64203991       4.95999306
Si       8.32610495       6.59072009       6.27069896
Si       7.71142580       5.65092428       4.46398667
Si       2.18881782       1.60396328       1.26706187
8
Lattice="6.385132888555135 1.1468063157455868 0.905927570018289 3.0169991584416453 5.7430656280687655 0.9059275700182895 3.016999158441671 2.2108536396166025 5.37732589254343" Properties=species:S:1:pos:R:3 unique_starting_index=42 config_type=initial n_minim_iter=4 stress="-0.0039028535172414536 -0.017698608689909058 -0.013981138177400886 -0.017698608689909058 0.007279693686492176 -0.010245362561343927 -0.013981138177400886 -0.010245362561343927 0.012155819600197132" pbc="T T T"
Si       8.15046498       6.74330356       2.70909481
Si       8.88531852       3.96444242       4.95739126
Si       6.45690906       6.50767311       5.93295314
Si       9.25232173       7.74818483       4.55018735
Si      10.17544557       5.92867555       5.25881585
Si       8.71853892       6.94872164       6.48431778
Si       8.13224219       5.95929807       4.70758867
Si       2.34962709       1.72180413       1.36015106
8
Lattice="6.458699528595161 1.2767481328134533 1.008576005908281 3.1630662136370917 5.774071139453128 1.0085760059082918 3.163066213637126 2.3178914157801604 5.383725705105334" Properties=species:S:1:pos:R:3 unique_starting_index=42 config_type=initial n_minim_iter=5 stress="0.01695268509038339 -0.022971169029321028 -0.018146233634651836 -0.022971169029321028 0.03146660460213203 -0.013297539896308972 -0.018146233634651836 -0.013297539896308972 0.03779536832218475" pbc="T T T"
Si       8.37486610       6.85127108       2.82400693
Si       9.05586958       4.11823975       5.10731245
Si       6.65493919       6.68044503       6.01138516
Si       9.56978765       7.92421610       4.66544924
Si      10.43893362       6.09861049       5.47504048
Si       8.95995347       7.20538616       6.62888356
Si       8.41321629       6.16519557       4.87023883
Si       2.48254833       1.81920867       1.43709646
8
Lattice="6.34409511420676 1.2397505358723113 0.9793494986653197 3.0932636719350435 5.675935523346324 0.9793494986653375 3.093263671935084 2.2667401905818823 5.295022040947645" Properties=species:S:1:pos:R:3 unique_starting_index=42 config_type=initial n_minim_iter=6 stress="0.03926998289505389 0.011355443870587388 0.008970311316669054 0.011355443870587388 0.03209525016170703 0.006573434191202439 0.008970311316669054 0.006573434191202439 0.028966723219898533" pbc="T T T"
Si       8.20768794       6.69291543       2.73642360
Si       8.85450893       4.00717469       5.01891373
Si       6.48837522       6.55774302       5.87760715
Si       9.42251590       7.77764020       4.50608842
Si      10.25480216       5.92129065       5.41827238
Si       8.73540253       7.12187931       6.52318200
Si       8.23036064       6.03119916       4.76438743
Si       2.48489736       1.82093004       1.43845626
8
Lattice="6.313313390810881 1.192844783542119 0.9422959756379861 3.0392640655731475 5.66071361119174 0.9422959756380032 3.039264065573187 2.2271693388867413 5.288791641722862" Properties=species:S:1:pos:R:3 unique_starting_index=42 config_type=initial n_minim_iter=7 stress="-0.015477396898491936 0.011103737577144538 0.008771474191654508 0.011103737577144538 -0.022493093542784174 0.006427726566346128 0.008771474191654508 0.006427726566346128 -0.02555227313636953" pbc="T T T"
Si       8.11737971       6.63492791       2.69866719
Si       8.77201050       3.95455244       4.96087423
Si       6.41334547       6.48673853       5.82993563
Si       9.31580607       7.70563359       4.43830842
Si      10.15399501       5.83681746       5.35607699
Si       8.62448603       7.04501143       6.46882277
Si       8.13571444       5.96184253       4.70959868
Si       2.45162702       1.79654956       1.41919674
8
Lattice="6.367264160025273 1.245569171352047 0.9839459699513584 3.105791488432757 5.696275509009694 0.9839459699513846 3.1057914884328017 2.275920560627036 5.313745378548174" Properties=species:S:1:pos:R:3 unique_starting_index=42 config_type=initial n_minim_iter=8 stress="-0.031380887992105096 -0.009622838829496147 -0.007601627997497603 -0.009622838829496147 -0.02530087055511939 -0.005570464571820794 -0.007601627997497603 -0.005570464571820794 -0.022649691888924958" pbc="T T T"
Si       8.21701337       6.67715954       2.75919826
Si       8.84229413       4.03248803       5.02690939
Si       6.50883311       6.56105976       5.85700689
Si       9.50556396       7.78282610       4.47323384
Si      10.28476464       5.90729972       5.50139759
Si       8.73108744       7.21033626       6.53583295
Si       8.29638246       6.07957988       4.80260612
Si       2.53383286       1.85678991       1.46678402
8
Lattice="6.369705635216175 1.2279401956011773 0.9700198387950956 3.089716886201543 5.703914144374789 0.9700198387951292 3.0897168862015927 2.2641411099272104 5.324400444030503" Properties=species:S:1:pos:R:3 unique_starting_index=42 config_type=initial n_minim_iter=9 stress="0.026302380650863235 0.006591063993271228 0.005206656525401592 0.006591063993271228 0.02213793555132374 0.003815432131342854 0.005206656525401592 0.003815432131342854 0.020322038126852602" pbc="T T T"
Si       8.18078756       6.63169822       2.74499995
Si       8.78803188       4.01384899       5.00991447
Si       6.47471388       6.53384803       5.81606751
Si       9.53882657       7.75038688       4.40710899
Si      10.26385236       5.85257615       5.55706810
Si       8.67260625       7.26369439       6.51958307
Si       8.29335825       6.07736374       4.80085546
Si       2.55899627       1.87522963       1.48135060
8
Lattice="6.33300158211823 1.1861704195344953 0.937023515690874 3.038830630866018 5.681497839496293 0.9370235156909129 3.038830630866071 2.2268517184137187 5.310231839887634" Properties=species:S:1:pos:R:3 unique_starting_index=42 config_type=initial n_minim_iter=10 stress="0.029382972232927615 0.008066462785249473 0.006372157991577723 0.008066462785249473 0.0242863229740289 0.0046695103140537535 0.006372157991577723 0.0046695103140537535 0.02206393990943035" pbc="T T T"
Si       8.08429133       6.55547649       2.69613715
Si       8.68628217       3.95032770       4.95404955
Si       6.38349208       6.46146942       5.75322828
Si       9.46350742       7.67139768       4.31778094
Si      10.16584314       5.75455670       5.53102683
Si       8.54961559       7.22356080       6.46341936
Si       8.20780943       6.01467365       4.75133300
Si       2.53766791       1.85960024       1.46900405
8
Lattice="6.276185300864431 1.1365310761570644 0.8978105735350855 2.9743817360842577 5.642274196271027 0.8978105735351285 2.9743817360843128 2.17962363974527 5.281151647218685" Properties=species:S:1:pos:R:3 unique_starting_index=42 config_type=initial n_minim_iter=11 stress="-0.004824800709909386 0.0020437379591591747 0.0016144649167467188 0.0020437379591591747 -0.006116099738018373 0.0011830781016851678 0.0016144649167467188 0.0011830781016851678 -0.006679167931606226" pbc="T T T"
Si       7.96323730       6.47483456       2.63020992
Si       8.57291978       3.86509268       4.88064956
Si       6.26806699       6.37098289       5.69003940
Si       9.33182238       7.57696641       4.23664162
Si      10.03612945       5.65313769       5.45532777
Si       8.41383261       7.12835676       6.39033739
Si       8.08128614       5.92195753       4.67809125
Si       2.48226706       1.81900255       1.43693363
8
Lattice="6.173260621379607 1.0584452476013988 0.8361261339352533 2.868918008542926 5.567653231111309 0.8361261339353108 2.868918008542993 2.1023399370866542 5.222837945282615" Properties=species:S:1:pos:R:3 unique_starting_index=42 config_type=initial n_minim_iter=12 stress="-0.01052511922484846 -0.00930603009773703 -0.007351362751708915 -0.00930603009773703 -0.004645271680281954 -0.005387070477077005 -0.007351362751708915 -0.005387070477077005 -0.0020813766697886428" pbc="T T T"
Si       7.73915612       6.31874111       2.51085436
Si       8.35657472       3.71039946       4.74615750
Si       6.05538755       6.20317445       5.56581750
Si       9.15585735       7.41151169       4.08103290
Si       9.82535254       5.47445060       5.37660647
Si       8.17995122       7.01770648       6.26540124
Si       7.89061712       5.78223548       4.56771686
Si       2.37676726       1.74169241       1.37586195
8
Lattice="6.129494020442802 1.0216439795648387 0.8070547180664923 2.820641934699077 5.53700572907796 0.8070547180665585 2.820641934699151 2.0669632836774405 5.199753123536216" Properties=species:S:1:pos:R:3 unique_starting_index=42 config_type=initial n_minim_iter=13 stress="-0.020581971312944092 -0.01774161839118734 -0.014015113988018475 -0.01774161839118734 -0.009372249203908238 -0.010270259997716736 -0.014015113988018475 -0.010270259997716736 -0.004484273730610618" pbc="T T T"
Si       7.63955729       6.25442429       2.45980707
Si       8.26524228       3.64323789       4.68443136
Si       5.96383270       6.12764732       5.51506549
Si       9.07360142       7.33985299       4.01763845
Si       9.73224366       5.39961772       5.33597837
Si       8.08054627       6.96284708       6.21036521
Si       7.80333277       5.71827361       4.51718973
Si       2.31942888       1.69967492       1.34266994
8
Lattice="6.138541111101434 1.0334193946620482 0.8163567885543264 2.8345957136739055 5.542085325756682 0.8163567885544073 2.834595713673989 2.077188597445451 5.202541272765511" Properties=species:S:1:pos:R:3 unique_starting_index=42 config_type=initial n_minim_iter=14 stress="-0.0016482128503117123 -0.015005596871633742 -0.011853774891183527 -0.015005596871633742 0.007832803328854032 -0.008686433102940662 -0.011853774891183527 -0.008686433102940662 0.01196698025979934" pbc="T T T"
Si       7.64237512       6.27214883       2.48101324
Si       8.28299233       3.66325394       4.67694171
Si       5.98826600       6.12288355       5.52739924
Si       9.13243940       7.36344628       4.04360450
Si       9.77246541       5.43622147       5.37763366
Si       8.12756614       7.00969701       6.22730635
Si       7.84868028       5.75150421       4.54344048
Si       2.26784886       1.66187713       1.31281132
8
Lattice="6.1571885925486685 1.0509611653746085 0.830214031488245 2.8569400216066563 5.554582292871274 0.8302140314883362 2.856940021606747 2.093562481534748 5.211490758148652" Properties=species:S:1:pos:R:3 unique_starting_index=42 config_type=initial n_minim_iter=15 stress="0.016753946021931077 -0.0058181293814572625 -0.004596071490247857 -0.0058181293814572625 0.020430026305194342 -0.0033679960943142563 -0.004596071490247857 -0.0033679960943142563 0.022032973290619404" pbc="T T T"
Si       7.66930126       6.29839339       2.51434696
Si       8.31612904       3.69979579       4.68651156
Si       6.03309255       6.13695997       5.54521400
Si       9.20014982       7.39651176       4.07141342
Si       9.82439209       5.47591602       5.42431690
Si       8.18105925       7.06380661       6.25303573
Si       7.90489394       5.79269752       4.57598142
Si       2.25042466       1.64910870       1.30272481
8
Lattice="6.1900227504717655 1.0733489789525787 0.8478994394549075 2.888178873715703 5.579147110033824 0.8478994394550075 2.8881788737158014 2.1164542777387596 5.231294029689755" Properties=species:S:1:pos:R:3 unique_starting_index=42 config_type=initial n_minim_iter=16 stress="0.008466944089048955 -0.0006359793873912369 -0.0005023963097670469 -0.0006359793873912369 0.008868776212997283 -0.00036815545901508733 -0.0005023963097670469 -0.00036815545901508733 0.009043994255562404" pbc="T T T"
Si       7.71900409       6.34529184       2.56541382
Si       8.37582150       3.75717663       4.70705203
Si       6.10578976       6.16611786       5.57901629
Si       9.27960694       7.44789397       4.11852622
Si       9.89732325       5.53570576       5.47206013
Si       8.26004150       7.12218272       6.29211536
Si       7.97994163       5.84769239       4.61942499
Si       2.23866674       1.64049251       1.29591839
8
Lattice="6.203617843963696 1.0824042588771654 0.8550527203753835 2.9009089184424774 5.589382862220207 0.8550527203754973 2.9009089184425867 2.125782840406043 5.23959571441701" Properties=species:S:1:pos:R:3 unique_starting_index=42 config_type=initial n_minim_iter=17 stress="0.016243896069248472 0.004461292005109086 0.0035242284331641156 0.004461292005109086 0.013425109049875381 0.0025825506899738444 0.0035242284331641156 0.0025825506899738444 0.012195982967917674" pbc="T T T"
Si       7.72507666       6.35022473       2.59434107
Si       8.38235455       3.78631455       4.70454285
Si       6.13554219       6.16308698       5.57711843
Si       9.34204881       7.46192318       4.11680832
Si       9.92951082       5.54684014       5.52627030
Si       8.28035488       7.18124911       6.30616115
Si       8.02648657       5.88180047       4.64636890
Si       2.23017613       1.63427060       1.29100335
8
Lattice="6.22455093029928 1.0957321790638586 0.8655812029816881 2.9199236356362306 5.605328648186334 0.8655812029818026 2.9199236356363385 2.1397168040919334 5.252670946425241" Properties=species:S:1:pos:R:3 unique_starting_index=42 config_type=initial n_minim_iter=18 stress="0.002342312316812406 0.0014069884934007854 0.0011114602782752582 0.0014069884934007854 0.0014533319727898727 0.0008144768601115448 0.0011114602782752582 0.0008144768601115448 0.001065693985332853" pbc="T T T"
Si       7.76100009       6.37594071       2.62045568
Si       8.41769759       3.81785642       4.72428513
Si       6.17626565       6.18789523       5.59609021
Si       9.38313836       7.49104432       4.13999292
Si       9.96965709       5.57643454       5.55048531
Si       8.32066827       7.21160469       6.32912389
Si       8.06914562       5.91306097       4.67106336
Si       2.24891024       1.64799893       1.30184814
8
Lattice="6.234814002328928 1.1045435487748918 0.872541805344311 2.9314173585477663 5.612460633695512 0.872541805344425 2.931417358547875 2.1481393915032068 5.257997786375258" Properties=species:S:1:pos:R:3 unique_starting_index=42 config_type=initial n_minim_iter=19 stress="-9.99165527075384e-05 -0.0011747218601493418 -0.0009279796471717569 -0.0011747218601493418 0.0006423103015773695 -0.0006800224569835502 -0.0009279796471717569 -0.0006800224569835502 0.0009659567420094991" pbc="T T T"
Si       7.77798464       6.38795334       2.63493560
Si       8.43426865       3.83485457       4.73316822
Si       6.19746608       6.19900962       5.60442436
Si       9.41256416       7.50606035       4.15062278
Si       9.99283986       5.59222417       5.57092057
Si       8.34270804       7.23550126       6.34127116
Si       8.09628078       5.93294558       4.68677134
Si       2.25869079       1.65516611       1.30750990
8
Lattice="6.238542114907878 1.109875215346393 0.8767535921778438 2.937624419251257 5.6144094510943985 0.8767535921779557 2.9376244192513643 2.1526879187075436 5.258918621787655" Properties=species:S:1:pos:R:3 unique_starting_index=42 config_type=initial n_minim_iter=20 stress="-0.00020681053270108605 -0.00047712234053921577 -0.00037690608840284764 -0.00047712234053921577 9.465062675349681e-05 -0.00027619636386479174 -0.00037690608840284764 -0.00027619636386479174 0.00022610212378554255" pbc="T T T"
Si       7.78726306       6.39394362       2.64147277
Si       8.44277571       3.84284460       4.73850642
Si       6.20764764       6.20552353       5.60873854
Si       9.42582392       7.51225629       4.15581244
Si      10.00274237       5.59976783       5.58020372
Si       8.35288432       7.24619211       6.34609736
Si       8.10750144       5.94116807       4.69326675
Si       2.26690847       1.66118802       1.31226695
8
Lattice="6.243040632826521 1.1217367489558843 0.8861236925792861 2.9502900994369323 5.615125822832953 0.8861236925793896 2.9502900994370314 2.1619693151104467 5.257446327383305" Properties=species:S:1:pos:R:3 unique_starting_index=42 config_type=initial n_minim_iter=21 stress="0.002423533524108881 0.0018864327255963065 0.0014902005609720814 0.0018864327255963065 0.0012316249753098346 0.0010920173195194725 0.0014902005609720814 0.0010920173195194725 0.0007118957886872523" pbc="T T T"
Si       7.80200291       6.40874278       2.65324328
Si       8.46132767       3.85651710       4.74511784
Si       6.22627363       6.21509718       5.62041076
Si       9.45300787       7.52017063       4.16896747
Si      10.01847800       5.61801439       5.60005597
Si       8.37502351       7.26770620       6.35075127
Si       8.12597152       5.95470293       4.70395870
Si       2.28067179       1.67127376       1.32023425
