16
Lattice="5.812194578590634 9.663410160988397e-33 1.7786815836567416e-32 -1.1518380937006067e-32 6.926962278152333 2.294272708328247e-16 -2.3718026699244963e-32 -2.627139005132362e-16 7.7495528444249775" Properties=species:S:1:pos:R:3 unique_starting_index=48 config_type=initial n_minim_iter=8 energy=-2606.772402548356 free_energy=-2606.772402548356 pbc="T T T"
Si       3.87725173       4.07330037       4.73682447
Si       1.93494285       2.85366191       4.73682447
Si       1.93494285       4.07330037       0.86204805
Si       3.87725173       2.85366191       0.86204805
Si       3.64677419       6.16972849       5.05606615
Si       2.16542039       0.75723378       5.05606615
Si       2.16542039       6.16972849       1.18128972
Si       3.64677419       0.75723378       1.18128972
Si       4.76707403       4.23616110       6.90230182
Si       1.04512055       2.69080118       6.90230182
Si       1.04512055       4.23616110       3.02752540
Si       4.76707403       2.69080118       3.02752540
Si       2.52031277       5.93666915       3.26531300
Si       3.29188181       0.99029313       3.26531300
Si       3.29188181       5.93666915       7.14008942
Si       2.52031277       0.99029313       7.14008942
