22
Lattice="5.389623424971405 0.29677065954482423 0.7517047853980845 2.8925358167660855 6.774666073304179 1.3028585483123274 3.0326806346705157 2.9025545294898225 15.353606916712597" Properties=species:S:1:pos:R:3 unique_starting_index=40 config_type=initial n_minim_iter=1 energy=-3591.9543563025536 free_energy=-3591.9543563025536 pbc="T T T"
Si       9.31825093       4.83460458      13.07565803
Si       2.97529362       2.24566944       4.31014579
Si       5.57018566       2.26839495       7.66010463
Si       5.97886198       6.25508963      14.41934943
Si       7.78027649       5.10443177      14.55817488
Si       6.61413652       7.97901413       8.86777385
Si       5.51339073       3.98752723       2.39338962
Si       6.01925333       6.69459791      10.44823616
Si       4.28321969       3.67873909       0.67869582
Si       6.05393150       8.16450937      15.36439384
Si       5.54649489       4.64480181      10.91174717
Si       5.32816792       6.15438018      12.38839723
Si       2.16905739       3.60866337       1.05759769
Si       1.69511282       1.23273210       8.21982477
Si       4.78443485       1.81589551      15.36789297
Si       7.94065162       7.66229333      10.49880076
Si       4.63893613       3.62780508       4.29819570
Si       5.10209277       8.72776795       7.57162613
Si       4.77718339       5.68683587       3.45379583
Si       5.62015450       2.88950283       9.71939657
Si       9.31433067       3.66998375      14.93775988
Si       4.27982344       2.45069275       5.97361893
22
Lattice="5.389958670605068 0.2985842619446723 0.7517997366882082 2.8950099337739297 6.7771689156788755 1.3019308431468304 3.033688969342382 2.901534474310832 15.357074761959081" Properties=species:S:1:pos:R:3 unique_starting_index=40 config_type=initial n_minim_iter=2 stress="0.0026540448157634446 0.0006252474000158851 -4.403519198443374e-05 0.0006252474000158851 0.001984244059301325 -0.0001098150899029573 -4.403519198443374e-05 -0.0001098150899029573 0.0025601797277477445" pbc="T T T"
Si       9.32015086       4.83661500      13.07790019
Si       2.97603490       2.24654959       4.31073471
Si       5.57075931       2.26917918       7.66180009
Si       5.98135233       6.25583401      14.42226940
Si       7.78216372       5.10558958      14.56080452
Si       6.61769238       7.98189084       8.86847789
Si       5.51431254       3.99025182       2.39340722
Si       6.02140229       6.69597041      10.45038325
Si       4.28493585       3.68121997       0.67863651
Si       6.05705396       8.16652555      15.36685297
Si       5.54830208       4.64683597      10.91390243
Si       5.33055697       6.15554419      12.38996940
Si       2.17110857       3.60983134       1.05708268
Si       1.69524849       1.23240138       8.22200775
Si       4.78529031       1.81513484      15.37188153
Si       7.94339367       7.66515605      10.50000053
Si       4.64041552       3.62959907       4.29834912
Si       5.10542548       8.73060145       7.57155644
Si       4.77939925       5.68894873       3.45343253
Si       5.62141409       2.88986079       9.72075831
Si       9.31582555       3.67137379      14.94101619
Si       4.28061314       2.45169798       5.97475714
22
Lattice="5.388541347672156 0.2988470370483451 0.7516585941007639 2.8946677461731847 6.776490524521251 1.3013219023723006 3.0330847224262953 2.900517094271405 15.354222545618088" Properties=species:S:1:pos:R:3 unique_starting_index=40 config_type=initial n_minim_iter=3 stress="-0.0005241804740769908 0.0007131343445192696 -0.0003278694810300394 0.0007131343445192696 0.0001534111714162684 -9.920181803238678e-07 -0.0003278694810300394 -9.920181803238678e-07 -0.00012008555542399179" pbc="T T T"
Si       9.31796379       4.83587907      13.07524845
Si       2.97533744       2.24626406       4.30981903
Si       5.56925863       2.26867729       7.66040001
Si       5.98025037       6.25455331      14.41955034
Si       7.78038941       5.10458091      14.55789741
Si       6.61667231       7.98094235       8.86644714
Si       5.51282621       3.99009339       2.39284032
Si       6.02008861       6.69477658      10.44846551
Si       4.28412379       3.68110032       0.67850458
Si       6.05604800       8.16535043      15.36370549
Si       5.54714900       4.64638385      10.91178967
Si       5.32958965       6.15445616      12.38725833
Si       2.17105480       3.60935877       1.05664613
Si       1.69479292       1.23200745       8.22059381
Si       4.78420667       1.81432663      15.36922943
Si       7.94168208       7.66419933      10.49769396
Si       4.63942990       3.62923652       4.29727895
Si       5.10467937       8.72956863       7.56957618
Si       4.77851128       5.68822972       3.45243171
Si       5.62013376       2.88914178       9.71866688
Si       9.31357073       3.67065431      14.93824910
Si       4.27954108       2.45133772       5.97359670
22
Lattice="5.389022552027029 0.2976099240710462 0.7522608490398563 2.8935676388376677 6.775190057864841 1.3014690760050383 3.0344778826910677 2.8992073414394515 15.354216457942453" Properties=species:S:1:pos:R:3 unique_starting_index=40 config_type=initial n_minim_iter=4 stress="0.0002845892516806465 -0.00018808745022374162 0.00038170574889699897 -0.00018808745022374162 -0.00019991527507203394 -5.3334631202733474e-05 0.00038170574889699897 -5.3334631202733474e-05 -0.00012843457497091723" pbc="T T T"
Si       9.31919396       4.83305677      13.07586760
Si       2.97555279       2.24533383       4.30997791
Si       5.56999448       2.26691864       7.66086273
Si       5.98107793       6.25224131      14.41992266
Si       7.78158016       5.10195898      14.55833751
Si       6.61661296       7.97854159       8.86684070
Si       5.51259120       3.98849775       2.39339825
Si       6.02024934       6.69249556      10.44896673
Si       4.28382722       3.67984543       0.67901084
Si       6.05658510       8.16307223      15.36392806
Si       5.54787911       4.64460009      10.91206050
Si       5.33013967       6.15238266      12.38742957
Si       2.17075311       3.60842088       1.05677097
Si       1.69569602       1.23135324       8.22062508
Si       4.78603743       1.81274289      15.36955674
Si       7.94176081       7.66146765      10.49821230
Si       4.63951327       3.62775799       4.29757073
Si       5.10406954       8.72751296       7.56971679
Si       4.77806881       5.68643871       3.45275473
Si       5.62103661       2.88746286       9.71901229
Si       9.31529611       3.66784471      14.93901975
Si       4.27997260       2.45002533       5.97392269
22
Lattice="5.388233820695144 0.2971014149576752 0.7513484176468346 2.892312025625615 6.775438694507444 1.3011741626426738 3.030987897738968 2.8993453960216224 15.35540266229441" Properties=species:S:1:pos:R:3 unique_starting_index=40 config_type=initial n_minim_iter=5 stress="-0.00023156804361772554 -0.0005831899616725722 -0.0006330368527043159 -0.0005831899616725722 0.0002929448417382712 8.027849641336723e-05 -0.0006330368527043159 8.027849641336723e-05 0.0002912112195367309" pbc="T T T"
Si       9.31515291       4.83265972      13.07542543
Si       2.97410469       2.24537605       4.30979001
Si       5.56753341       2.26635439       7.66067965
Si       5.97719906       6.25218208      14.42070292
Si       7.77741381       5.10156840      14.55844508
Si       6.61348736       7.97859925       8.86667797
Si       5.51111038       3.98836701       2.39277887
Si       6.01676449       6.69258734      10.44930417
Si       4.28293931       3.67982047       0.67847866
Si       6.05236484       8.16364051      15.36467677
Si       5.54480902       4.64465753      10.91206027
Si       5.32666331       6.15244790      12.38796670
Si       2.17024487       3.60826062       1.05656641
Si       1.69421172       1.23140908       8.22123028
Si       4.78253511       1.81273928      15.37061097
Si       7.93778127       7.66131716      10.49798866
Si       4.63776939       3.62757774       4.29711473
Si       5.10117785       8.72790052       7.56961718
Si       4.77630526       5.68617811       3.45232837
Si       5.61808550       2.88764331       9.71910069
Si       9.31114840       3.66735122      14.93918208
Si       4.27793898       2.44989259       5.97382351
22
Lattice="5.388456179261368 0.298432497395862 0.7521664420707858 2.894264025189304 6.775635085816343 1.3013707338442526 3.0341629128791845 2.899401210288173 15.355361166376987" Properties=species:S:1:pos:R:3 unique_starting_index=40 config_type=initial n_minim_iter=6 stress="2.9135235401229235e-05 0.00014682859166847514 -1.6946489622139253e-05 0.00014682859166847514 -0.00027214785657176017 -3.5777766145471067e-05 -1.6946489622139253e-05 -3.5777766145471067e-05 0.00017039327014665734" pbc="T T T"
Si       9.31837811       4.83420711      13.07598284
Si       2.97520372       2.24599917       4.30980575
Si       5.56920972       2.26690914       7.66125661
Si       5.98125159       6.25257171      14.42133626
Si       7.78097210       5.10238026      14.55892171
Si       6.61695289       7.97932248       8.86712036
Si       5.51269406       3.98952670       2.39360620
Si       6.01984453       6.69340461      10.45001259
Si       4.28417604       3.68077085       0.67912755
Si       6.05711217       8.16445681      15.36499723
Si       5.54783230       4.64547816      10.91204565
Si       5.33032009       6.15287555      12.38843630
Si       2.17175492       3.60814240       1.05682677
Si       1.69635321       1.23156941       8.22118957
Si       4.78560966       1.81355129      15.37123963
Si       7.94093629       7.66231267      10.49869438
Si       4.63932060       3.62826011       4.29740634
Si       5.10453396       8.72849511       7.56976631
Si       4.77831967       5.68642261       3.45281363
Si       5.62006236       2.88915626       9.71960216
Si       9.31460622       3.66897259      14.94041255
Si       4.27924280       2.45066685       5.97423463
22
Lattice="5.388279010532385 0.29844355436363146 0.7525521177072289 2.894115267556568 6.778062692127848 1.3015652602975705 3.0355247095878313 2.900835034130377 15.35223656355904" Properties=species:S:1:pos:R:3 unique_starting_index=40 config_type=initial n_minim_iter=7 stress="-0.00029723390092039893 -3.069485582275343e-05 0.0003953974390754019 -3.069485582275343e-05 0.0012667728879427057 0.000459438822789849 0.0003953974390754019 0.000459438822789849 -0.0006018515265005472" pbc="T T T"
Si       9.31908093       4.83612417      13.07357667
Si       2.97528542       2.24710068       4.30890940
Si       5.56969958       2.26728272       7.66021918
Si       5.98241829       6.25503111      14.41910848
Si       7.78191951       5.10414655      14.55640621
Si       6.61726430       7.98212871       8.86577262
Si       5.51311384       3.99094883       2.39376958
Si       6.02024135       6.69622270      10.44864954
Si       4.28423529       3.68214055       0.67949178
Si       6.05843582       8.16784621      15.36245130
Si       5.54865313       4.64769583      10.90991481
Si       5.33130150       6.15519769      12.38676606
Si       2.17198609       3.60905111       1.05704283
Si       1.69713665       1.23253912       8.21942439
Si       4.78709181       1.81482806      15.36861746
Si       7.94115219       7.66526995      10.49738159
Si       4.63931295       3.62942749       4.29684581
Si       5.10469943       8.73195409       7.56869399
Si       4.77827238       5.68802493       3.45284684
Si       5.62041970       2.89058682       9.71764516
Si       9.31585165       3.67069086      14.93841143
Si       4.27927125       2.45172561       5.97332056
22
Lattice="5.389049243710314 0.2976987239266242 0.7516383071838726 2.893969205798769 6.775982305801362 1.298101133360126 3.033828711534079 2.8933929790285635 15.34890154042666" Properties=species:S:1:pos:R:3 unique_starting_index=40 config_type=initial n_minim_iter=8 stress="0.0002289307066240769 -5.643040264991847e-05 -0.00015987834507585127 -5.643040264991847e-05 0.00027543438496150464 -0.0008865007174634185 -0.00015987834507585127 -0.0008865007174634185 -0.0006832479418292643" pbc="T T T"
Si       9.31825743       4.82889640      13.06691250
Si       2.97443350       2.24548015       4.30596858
Si       5.56949525       2.26105302       7.65792198
Si       5.98152212       6.24691848      14.41511862
Si       7.78071383       5.09507652      14.55123971
Si       6.61620816       7.97547306       8.85951528
Si       5.51550112       3.98885746       2.39105226
Si       6.01851393       6.69085669      10.44455422
Si       4.28573763       3.68136898       0.67706954
Si       6.05777713       8.15935319      15.35695243
Si       5.54809600       4.64298111      10.90467441
Si       5.33044578       6.14756163      12.38385284
Si       2.17310934       3.60636848       1.05558056
Si       1.69603953       1.22991970       8.21755729
Si       4.78636244       1.80841547      15.36670883
Si       7.93957326       7.65901540      10.49218755
Si       4.63863307       3.62585165       4.29369934
Si       5.10328061       8.72732939       7.56300859
Si       4.77799797       5.68337663       3.45018826
Si       5.61874040       2.88610400       9.71303567
Si       9.31607408       3.66345061      14.93539163
Si       4.27783204       2.44872484       5.97088432
22
Lattice="5.388688773619971 0.2977704487923979 0.7521398649803976 2.8937502907561012 6.774748436281392 1.3002864914625916 3.0342856257819855 2.896658215526806 15.353403432483466" Properties=species:S:1:pos:R:3 unique_starting_index=40 config_type=initial n_minim_iter=9 stress="-0.0004668207091490243 -4.406107146352991e-05 0.0002441578003134086 -4.406107146352991e-05 -0.0002574101489151833 0.00016928938848278764 0.0002441578003134086 0.00016928938848278764 0.0004660166640050496" pbc="T T T"
Si       9.31797714       4.83109629      13.07093448
Si       2.97410851       2.24638434       4.30728734
Si       5.56932628       2.26165878       7.66042763
Si       5.98182261       6.24902610      14.42074441
Si       7.78072169       5.09708922      14.55620898
Si       6.61580665       7.97552034       8.86357090
Si       5.51594391       3.98850994       2.39290390
Si       6.01809711       6.69240517      10.44929720
Si       4.28597155       3.68092860       0.67836165
Si       6.05831114       8.16137045      15.36324250
Si       5.54823167       4.64522909      10.90822322
Si       5.33066830       6.14901821      12.38920320
Si       2.17349782       3.60533347       1.05704250
Si       1.69615800       1.23222059       8.21988935
Si       4.78694081       1.81226869      15.37141659
Si       7.93907561       7.66004968      10.49715755
Si       4.63821772       3.62581519       4.29564785
Si       5.10293200       8.72751144       7.56711176
Si       4.77764648       5.68226270       3.45310785
Si       5.61829530       2.88809735       9.71571711
Si       9.31637802       3.66663975      14.94083810
Si       4.27737865       2.44980962       5.97314371
22
Lattice="5.390309923325963 0.29791714870433283 0.7512040109449905 2.8945788078013575 6.774248813621924 1.3004816073499168 3.0331708805469293 2.898657192913415 15.348598777711965" Properties=species:S:1:pos:R:3 unique_starting_index=40 config_type=initial n_minim_iter=10 stress="0.0011183353159491013 0.00016827085396994428 -0.00048480729996537526 0.00016827085396994428 -0.0005764316624031554 0.0008298432674061309 -0.00048480729996537526 0.0008298432674061309 -0.0009940039457190775" pbc="T T T"
Si       9.31890652       4.83266715      13.06538545
Si       2.97406927       2.24721247       4.30549660
Si       5.56966810       2.26173492       7.65681083
Si       5.98198144       6.25037132      14.41668018
Si       7.78126646       5.09825370      14.55126387
Si       6.61635131       7.97548269       8.86053282
Si       5.51819821       3.98841882       2.39198130
Si       6.01808305       6.69410618      10.44658773
Si       4.28834461       3.68097141       0.67811116
Si       6.05867742       8.16266431      15.35932492
Si       5.54861643       4.64693876      10.90410032
Si       5.33090397       6.14991153      12.38605014
Si       2.17502198       3.60462538       1.05714517
Si       1.69534518       1.23389922       8.21745002
Si       4.78669312       1.81473337      15.36668310
Si       7.93990881       7.66106278      10.49419860
Si       4.63889928       3.62578702       4.29382910
Si       5.10341063       8.72809082       7.56503976
Si       4.77859798       5.68136100       3.45290013
Si       5.61815843       2.88964847       9.71163182
Si       9.31775236       3.66906321      14.93608007
Si       4.27760159       2.45068209       5.97122497
22
Lattice="5.389012537124743 0.2969948063882697 0.7517903457289865 2.8931441770981428 6.774389517334538 1.2984235873851162 3.0340820500412726 2.893256822217283 15.34737816294883" Properties=species:S:1:pos:R:3 unique_starting_index=40 config_type=initial n_minim_iter=11 stress="-0.00016392807488870841 -3.1645205727500003e-06 0.00010504167885179604 -3.1645205727500003e-06 -5.3570925983665874e-05 -9.183626989888649e-05 0.00010504167885179604 -9.183626989888649e-05 -0.0001916764633447824" pbc="T T T"
Si       9.31682600       4.82767548      13.06216039
Si       2.97247196       2.24663712       4.30410453
Si       5.56786902       2.25642471       7.65398057
Si       5.98209642       6.24483700      14.41566178
Si       7.78061602       5.09158508      14.54986616
Si       6.61354687       7.97105873       8.85688836
Si       5.51869836       3.98714683       2.39123122
Si       6.01561610       6.69289046      10.44573638
Si       4.28984031       3.68130261       0.67726501
Si       6.05933247       8.15714819      15.35812961
Si       5.54816298       4.64418868      10.90114154
Si       5.33081999       6.14479614      12.38531545
Si       2.17662050       3.60323392       1.05669298
Si       1.69513709       1.23246737       8.21754672
Si       4.78820783       1.80966145      15.36731390
Si       7.93745105       7.65786644      10.49301272
Si       4.63720778       3.62332978       4.29197977
Si       5.10142109       8.72689499       7.56155771
Si       4.77665862       5.67807881       3.45337384
Si       5.61601593       2.88691520       9.70925590
Si       9.31796363       3.66448403      14.93712999
Si       4.27609175       2.44890390       5.97117918
22
Lattice="5.389383473853099 0.2961685671136609 0.7513704038599491 2.892273707836576 6.773443302770935 1.2982914051470857 3.032666798699573 2.8927519695764112 15.347453462366408" Properties=species:S:1:pos:R:3 unique_starting_index=40 config_type=initial n_minim_iter=12 stress="4.9846883422720716e-05 -1.050121040832439e-05 1.881854901335353e-05 -1.050121040832439e-05 -4.7303490860692944e-05 6.312832339997845e-05 1.881854901335353e-05 6.312832339997845e-05 -0.00010579368008447002" pbc="T T T"
Si       9.31421002       4.82631089      13.05961903
Si       2.97091571       2.24699222       4.30396485
Si       5.56704774       2.25298360       7.65132478
Si       5.98229414       6.24260014      14.41672883
Si       7.77952346       5.08948475      14.54976565
Si       6.61047157       7.96697431       8.85558566
Si       5.52095388       3.98558926       2.39152383
Si       6.01237042       6.69465946      10.44742072
Si       4.29322326       3.68040609       0.67515905
Si       6.05918028       8.15606248      15.36025015
Si       5.54692075       4.64419310      10.89912835
Si       5.32981216       6.14268090      12.38487498
Si       2.17930032       3.60154827       1.05791257
Si       1.69279586       1.23423572       8.21785331
Si       4.78844990       1.80972767      15.36882239
Si       7.93502394       7.65717025      10.49278844
Si       4.63627801       3.62145620       4.29042050
Si       5.09910445       8.72618328       7.56112763
Si       4.77529360       5.67433413       3.45580622
Si       5.61295050       2.88739470       9.70685378
Si       9.31805414       3.66343643      14.93865581
Si       4.27372885       2.44907380       5.96996342
22
Lattice="5.3890518435557535 0.29555738946360155 0.7510669360852572 2.891529195046268 6.772676358365703 1.2966219965695636 3.031476965621232 2.888775320047619 15.347658163699816" Properties=species:S:1:pos:R:3 unique_starting_index=40 config_type=initial n_minim_iter=13 stress="0.000128450057155474 9.886687191447343e-06 -2.505434705300993e-05 9.886687191447343e-06 9.573055267336534e-06 2.87231793779098e-05 -2.505434705300993e-05 2.87231793779098e-05 6.998500786245955e-05" pbc="T T T"
Si       9.31093130       4.82271152      13.05786045
Si       2.96915739       2.24597132       4.30365607
Si       5.56564179       2.24883150       7.64970444
Si       5.98156471       6.23815425      14.41552058
Si       7.77946680       5.08401396      14.54878310
Si       6.60789893       7.96201309       8.85352576
Si       5.52221389       3.98415101       2.39039378
Si       6.00940164       6.69402757      10.44762623
Si       4.29623196       3.68080939       0.67355573
Si       6.05878665       8.15142523      15.36068595
Si       5.54516957       4.64188145      10.89744242
Si       5.32869569       6.13830161      12.38405349
Si       2.18115432       3.60058860       1.05848035
Si       1.69109286       1.23371274       8.21783937
Si       4.78898426       1.80545123      15.37130561
Si       7.93221438       7.65476297      10.49050041
Si       4.63547666       3.61931654       4.28877073
Si       5.09714609       8.72373394       7.55975393
Si       4.77389272       5.67090250       3.45619362
Si       5.60969315       2.88584162       9.70445226
Si       9.31692751       3.65914792      14.93956457
Si       4.27164167       2.44819858       5.96841994
22
Lattice="5.388433082868709 0.29494918027750994 0.7511361481283654 2.8907626763957293 6.7729648302047325 1.2942615071542345 3.0312423877986494 2.883220991658736 15.34810174002835" Properties=species:S:1:pos:R:3 unique_starting_index=40 config_type=initial n_minim_iter=14 stress="0.00017596149163508042 6.343153062778426e-06 -2.8132427956843172e-05 6.343153062778426e-06 0.00011917761949864094 2.379347237237045e-05 -2.8132427956843172e-05 2.379347237237045e-05 0.00025004673944773446" pbc="T T T"
Si       9.30785552       4.81871005      13.05643276
Si       2.96656701       2.24427897       4.30300698
Si       5.56314344       2.24423357       7.64795745
Si       5.98259902       6.23365449      14.41495278
Si       7.78020703       5.07779744      14.54792658
Si       6.60568186       7.95735984       8.85065805
Si       5.52390167       3.98309340       2.38940423
Si       6.00616208       6.69320389      10.44769161
Si       4.29841082       3.68188034       0.67029804
Si       6.05949421       8.14504297      15.36104529
Si       5.54321110       4.63972595      10.89629358
Si       5.32791735       6.13309146      12.38360467
Si       2.18400056       3.60068731       1.05866520
Si       1.69023852       1.23231350       8.21795799
Si       4.79092785       1.79974391      15.37492550
Si       7.92950896       7.65238762      10.48753477
Si       4.63509504       3.61727765       4.28703264
Si       5.09577846       8.72140761       7.55805236
Si       4.77239714       5.66777699       3.45629396
Si       5.60597888       2.88382808       9.70150393
Si       9.31694405       3.65211859      14.94166575
Si       4.27043208       2.44726590       5.96762225
22
Lattice="5.38765009606787 0.295137111742879 0.7516452348145168 2.8907838161672186 6.774055977563479 1.293242313920339 3.032571326324124 2.8809488716041693 15.347435347627291" Properties=species:S:1:pos:R:3 unique_starting_index=40 config_type=initial n_minim_iter=15 stress="0.00012610990996363592 4.008788878379895e-05 6.570536738808007e-08 4.008788878379895e-05 0.00015149115109663002 -8.874237545485662e-06 6.570536738808007e-08 -8.874237545485662e-06 0.00022889175490119565" pbc="T T T"
Si       9.30712723       4.81825806      13.05543431
Si       2.96535524       2.24365748       4.30280796
Si       5.56243523       2.24296516       7.64717297
Si       5.98480593       6.23231745      14.41345514
Si       7.78148738       5.07594057      14.54719613
Si       6.60533541       7.95646197       8.84844849
Si       5.52469596       3.98323740       2.38890883
Si       6.00497177       6.69345272      10.44750853
Si       4.30037535       3.68304692       0.66958870
Si       6.06173815       8.14373601      15.36079028
Si       5.54264782       4.63960585      10.89518097
Si       5.32853533       6.13159112      12.38367820
Si       2.18573907       3.60143207       1.05902772
Si       1.68992942       1.23206661       8.21766547
Si       4.79287584       1.79779187      15.37554660
Si       7.92930518       7.65244689      10.48604916
Si       4.63523587       3.61679648       4.28634783
Si       5.09611096       8.72137861       7.55682519
Si       4.77194527       5.66715346       3.45679386
Si       5.60435190       2.88430582       9.69971903
Si       9.31823304       3.64863824      14.94304638
Si       4.27015162       2.44750206       5.96712595
22
Lattice="5.386975703668163 0.2950779897666435 0.7522749238315435 2.890403387953514 6.775136597692185 1.29350681717858 3.033842538912004 2.881160887489137 15.34814958929621" Properties=species:S:1:pos:R:3 unique_starting_index=40 config_type=initial n_minim_iter=16 stress="1.852953201862444e-07 4.770192156366771e-06 -1.3492069576248724e-05 4.770192156366771e-06 8.829411837174342e-05 1.6267876145170613e-06 -1.3492069576248724e-05 1.6267876145170613e-06 7.898371640493646e-05" pbc="T T T"
Si       9.30662682       4.81945317      13.05623785
Si       2.96484703       2.24357075       4.30348039
Si       5.56224976       2.24329607       7.64773052
Si       5.98739916       6.23345204      14.41496041
Si       7.78310942       5.07533102      14.54852117
Si       6.60502459       7.95672167       8.84826201
Si       5.52472181       3.98340595       2.38948823
Si       6.00360676       6.69448947      10.44859319
Si       4.30157162       3.68389579       0.66969847
Si       6.06325824       8.14421145      15.36241954
Si       5.54177227       4.64093923      10.89524573
Si       5.32865183       6.13228839      12.38555736
Si       2.18730038       3.60228353       1.05952591
Si       1.68944318       1.23295895       8.21840792
Si       4.79482292       1.79765280      15.37709912
Si       7.92875055       7.65330346      10.48661694
Si       4.63510554       3.61640775       4.28674798
Si       5.09571482       8.72224411       7.55702991
Si       4.77135311       5.66704924       3.45826170
Si       5.60278826       2.88633743       9.69941531
Si       9.31910841       3.64864535      14.94543705
Si       4.26963456       2.44832549       5.96713275
22
Lattice="5.386597483066261 0.2947514062502947 0.7534332621555426 2.8899710777300296 6.775014863513935 1.294263439368431 3.0366774536878927 2.881327131101273 15.348630181198635" Properties=species:S:1:pos:R:3 unique_starting_index=40 config_type=initial n_minim_iter=17 stress="-0.0001545706567708891 -3.0757002602804024e-05 -5.5246758144850846e-05 -3.0757002602804024e-05 -0.0002171688667468153 -2.356962423830615e-05 -5.5246758144850846e-05 -2.356962423830615e-05 -0.0002397310312047528" pbc="T T T"
Si       9.30748776       4.82021002      13.05726817
Si       2.96542970       2.24289468       4.30376895
Si       5.56172867       2.24404239       7.64852898
Si       5.99310371       6.23368750      14.41640299
Si       7.78636369       5.07368939      14.55162367
Si       6.60537176       7.95520506       8.84892992
Si       5.52582753       3.98269796       2.39117783
Si       6.00252969       6.69487944      10.44932708
Si       4.30443137       3.68341543       0.67003211
Si       6.06705725       8.14464007      15.36419666
Si       5.54099271       4.64269353      10.89515495
Si       5.32987243       6.13297679      12.38830343
Si       2.18831694       3.60224989       1.06101087
Si       1.69005544       1.23436777       8.21954008
Si       4.79872237       1.79673952      15.37863379
Si       7.92818809       7.65279469      10.48716594
Si       4.63543305       3.61447102       4.28749872
Si       5.09531935       8.72097290       7.55771849
Si       4.77115126       5.66539191       3.46017032
Si       5.60125951       2.88796713       9.69832375
Si       9.32213098       3.64859263      14.94866791
Si       4.27007817       2.44885653       5.96787824
22
Lattice="5.385870641244879 0.2942136579117477 0.7542372453651244 2.8889927466642593 6.776092508216932 1.2946026917927747 3.0379687357568077 2.8811399007924536 15.350858395762868" Properties=species:S:1:pos:R:3 unique_starting_index=40 config_type=initial n_minim_iter=18 stress="-0.00015539981028099198 -5.78554168481079e-05 2.839221126103095e-05 -5.78554168481079e-05 -0.00017594669511326042 -6.105484175194584e-05 2.839221126103095e-05 -6.105484175194584e-05 -0.00020193384246542344" pbc="T T T"
Si       9.30661576       4.82017028      13.05976841
Si       2.96628326       2.24236609       4.30406259
Si       5.56069474       2.24440929       7.65043077
Si       5.99501275       6.23443938      14.41864893
Si       7.78683121       5.07235583      14.55568561
Si       6.60351136       7.95557113       8.85020859
Si       5.52535045       3.98275165       2.39288308
Si       6.00122899       6.69576987      10.45109351
Si       4.30453693       3.68428458       0.67095547
Si       6.06894610       8.14481639      15.36688588
Si       5.53968456       4.64286747      10.89564365
Si       5.33029930       6.13481723      12.39047469
Si       2.18920597       3.60283779       1.06107822
Si       1.68975442       1.23578676       8.22072635
Si       4.80030860       1.79552464      15.38125905
Si       7.92681313       7.65353187      10.48862520
Si       4.63507981       3.61342371       4.28838187
Si       5.09418832       8.72067281       7.55945258