8
Lattice="6.448987373009676 1.041388756472598 0.8226522409611873 2.9357140473643946 5.835710043469846 0.822652240960167 2.9357140473636427 2.151288000306341 5.486732029246004" Properties=species:S:1:pos:R:3 unique_starting_index=42 config_type=initial n_minim_iter=1 energy=-1303.867091492316 free_energy=-1303.867091492316 pbc="T T T"
Si       8.38737199       6.17145733       2.66375393
Si       8.41140181       4.01250978       5.35523709
Si       6.35998043       6.78674232       5.38713811
Si       9.95479595       7.12314561       4.19488942
Si       9.79105475       5.78168923       6.17588694
Si       8.46258611       7.76627640       5.95851073
Si       8.24033151       6.03850580       4.77015936
Si       2.01956645       1.47993606       1.16908571
8
Lattice="6.464399279954168 1.041736225707581 0.8229267266833049 2.940688075324211 5.850301364739346 0.8229267266822822 2.9406880753234574 2.154932962482664 5.500863421588397" Properties=species:S:1:pos:R:3 unique_starting_index=42 config_type=initial n_minim_iter=2 stress="-0.009780530730972459 -0.0027156910478967236 -0.0021452789003351485 -0.0027156910478967236 -0.008064670243518821 -0.0015720580005906843 -0.0021452789003351485 -0.0015720580005906843 -0.007316472929028051" pbc="T T T"
Si       8.40540003       6.18472046       2.66702399
Si       8.42947962       4.01874573       5.36731681
Si       6.37137248       6.80204967       5.39928391
Si       9.97618275       7.13847261       4.20217220
Si       9.81211236       5.79242641       6.18954860
Si       8.47916795       7.78346659       5.97173538
Si       8.25649042       6.05034703       4.77951343
Si       2.02373466       1.48299052       1.17149860
8
Lattice="6.4702053410089695 1.0450732428111942 0.8255628263928028 2.94561910541221 5.854832476125442 0.8255628263917786 2.9456191054114544 2.158546415866171 5.504661177072474" Properties=species:S:1:pos:R:3 unique_starting_index=42 config_type=initial n_minim_iter=3 stress="0.010738341828943083 0.004932362879576186 0.003896354124143648 0.004932362879576186 0.007621917160038732 0.0028552439838934185 0.003896354124143648 0.0028552439838934185 0.00626300681433571" pbc="T T T"
Si       8.41553313       6.19211051       2.67260522
Si       8.43957890       4.02589685       5.37325894
Si       6.38123374       6.80956107       5.40518114
Si       9.98871910       7.14790619       4.20850576
Si       9.82488420       5.80069742       6.19694706
Si       8.49090215       7.79290663       5.97944645
Si       8.26510597       6.05666050       4.78450079
Si       2.02635551       1.48491108       1.17301576
8
Lattice="6.40037225486777 0.9669713994285271 0.7638657357697866 2.8501086539981078 5.811770758435043 0.7638657357687534 2.850108653997345 2.0885564629225453 5.477052319639732" Properties=species:S:1:pos:R:3 unique_starting_index=42 config_type=initial n_minim_iter=4 stress="0.007597099170053333 -0.0011380753068599995 -0.0008990304492461354 -0.0011380753068599995 0.008316171559503035 -0.0006588085168451363 -0.0008990304492461354 -0.0006588085168451363 0.008629721544855765" pbc="T T T"
Si       8.26146069       6.07834662       2.56606691
Si       8.28468662       3.89617507       5.28833784
Si       6.21087787       6.70180115       5.31917166
Si       9.79161579       7.01125109       4.08141742
Si       9.63520139       5.64308123       6.08357447
Si       8.28346729       7.65173344       5.87592502
Si       8.07525572       5.91753845       4.67460037
Si       1.98494781       1.45456756       1.14904569
8
Lattice="6.360538048375294 0.9262814637302436 0.7317224400229546 2.799309147540115 5.786044409731038 0.7317224400219186 2.7993091475393497 2.0513306408903675 5.459466113308151" Properties=species:S:1:pos:R:3 unique_starting_index=42 config_type=initial n_minim_iter=5 stress="-0.0023486922821234217 -0.0039338564735101195 -0.0031075770920697666 -0.0039338564735101195 0.0001368440941229377 -0.0022772290490141503 -0.0031075770920697666 -0.0022772290490141503 0.0012206569422067493" pbc="T T T"
Si       8.18026893       6.01785513       2.50891966
Si       8.20254679       3.82687583       5.24397804
Si       6.12005383       6.64534692       5.27355322
Si       9.67726887       6.94334215       4.01543469
Si       9.53600096       5.55838484       6.01267763
Si       8.17282197       7.56677074       5.82513607
Si       7.96883369       5.83955250       4.61299483
Si       1.96226493       1.43794557       1.13591503
8
Lattice="6.348412778621566 0.9161449923305851 0.723715064429038 2.7859909061061403 5.777535904330963 0.723715064428 2.7859909061053765 2.0415710483279357 5.4530424787403655" Properties=species:S:1:pos:R:3 unique_starting_index=42 config_type=initial n_minim_iter=6 stress="-0.011290410282040232 0.004782162794931069 0.003777702529849748 0.004782162794931069 -0.014311933732109195 0.0027682962271022493 0.003777702529849748 0.0027682962271022493 -0.015629462603268814" pbc="T T T"
Si       8.17459549       6.00947108       2.49157261
Si       8.19284312       3.80933231       5.24518800
Si       6.10040209       6.64560539       5.26941282
Si       9.60322922       6.95986695       4.00971613
Si       9.52945437       5.53532503       5.94047633
Si       8.14886123       7.49669384       5.84253583
Si       7.91934321       5.80328593       4.58434580
Si       1.95744377       1.43441263       1.13312416
8
Lattice="6.3886275771232075 0.9348898413078263 0.7385226873477104 2.815979368627108 5.8102359272259925 0.7385226873466724 2.815979368626344 2.063546560427592 5.481426172330085" Properties=species:S:1:pos:R:3 unique_starting_index=42 config_type=initial n_minim_iter=7 stress="0.006442968185112064 -0.0013260387144725942 -0.0010475134413502783 -0.0013260387144725942 0.007280801869010095 -0.0007676166888898375 -0.0010475134413502783 -0.0007676166888898375 0.007646137464106095" pbc="T T T"
Si       8.25144085       6.06135942       2.52337380
Si       8.26547012       3.85361454       5.29390481
Si       6.16450556       6.70594295       5.31252950
Si       9.64420344       7.04172682       4.06287957
Si       9.61985481       5.59038051       5.94218868
Si       8.22859160       7.51447602       5.90986441
Si       7.97987953       5.84764688       4.61938904
Si       1.97338861       1.44609699       1.14235431
8
Lattice="6.4064186578903275 0.95157178326047 0.7517007026139768 2.8372458054941774 5.822175290908893 0.7517007026129382 2.837245805493413 2.0791305817945456 5.489990445185663" Properties=species:S:1:pos:R:3 unique_starting_index=42 config_type=initial n_minim_iter=8 stress="0.006064854372246986 0.0008800343153635054 0.000695189185723665 0.0008800343153635054 0.00550882053677446 0.000509433864824524 0.000695189185723665 0.000509433864824524 0.005266363165930699" pbc="T T T"
Si       8.28751997       6.08725374       2.54861085
Si       8.30103011       3.88432461       5.31394242
Si       6.20450123       6.73114440       5.33187794
Si       9.68950135       7.07380511       4.09024448
Si       9.66408858       5.62476442       5.96847318
Si       8.27470335       7.54741317       5.93473622
Si       8.02519756       5.88085588       4.64562272
Si       1.98253461       1.45279917       1.14764874
8
Lattice="6.404267896912496 0.9500061636259499 0.7504639305700822 2.835105014458127 5.820596065983897 0.7504639305690463 2.8351050144573637 2.0775618124959307 5.488740437449685" Properties=species:S:1:pos:R:3 unique_starting_index=42 config_type=initial n_minim_iter=9 stress="-0.0016193981957212833 -6.077710508436858e-05 -4.801129395989814e-05 -6.077710508436858e-05 -0.0015809972762761716 -3.5182623015441045e-05 -4.801129395989814e-05 -3.5182623015441045e-05 -0.0015642526370907735" pbc="T T T"
Si       8.28161467       6.08224435       2.54831429
Si       8.29447450       3.88308187       5.31000109
Si       6.20134139       6.72594966       5.32707329
Si       9.68834197       7.06898739       4.08349501
Si       9.65914540       5.61827835       5.97037208
Si       8.26702948       7.54862162       5.93161189
Si       8.02459111       5.88041148       4.64527166
Si       1.98036346       1.45120816       1.14639191
8
Lattice="6.403420658360306 0.946304499750734 0.747539775624774 2.8313200771685474 5.82090327653603 0.7475397756237373 2.831320077167784 2.07478821464491 5.489716252713105" Properties=species:S:1:pos:R:3 unique_starting_index=42 config_type=initial n_minim_iter=10 stress="-0.00389135752005993 0.00043659499772994906 0.0003448912339704781 0.00043659499772994906 -0.0041672122076378505 0.00025273591399444206 0.0003448912339704781 0.00025273591399444206 -0.004287498057212564" pbc="T T T"
Si       8.27698817       6.07441422       2.54800020
Si       8.28561441       3.88230107       5.30807674
Si       6.19792784       6.72217618       5.31952858
Si       9.67869060       7.07517254       4.07085740
Si       9.66213586       5.60342218       5.96253208
Si       8.25376425       7.54269078       5.94055467
Si       8.02399678       5.87997595       4.64492761
Si       1.97568144       1.44777717       1.14368158
8
Lattice="6.403705754773481 0.9496898652800476 0.7502140685070887 2.8346340684979987 5.820155318515705 0.7502140685060559 2.834634068497239 2.07721670381829 5.488369507022434" Properties=species:S:1:pos:R:3 unique_starting_index=42 config_type=initial n_minim_iter=11 stress="0.0022316234169737995 -7.591588808520188e-06 -5.997028024947654e-06 -7.591588808520188e-06 0.0022364200256817027 -4.394615520970232e-06 -5.997028024947654e-06 -4.394615520970232e-06 0.002238511576678753" pbc="T T T"
Si       8.28159566       6.07362962       2.54955983
Si       8.28625422       3.88489015       5.31221973
Si       6.20058939       6.72616730       5.31840424
Si       9.67879116       7.09043322       4.07296243
Si       9.67671794       5.60442798       5.95766578
Si       8.25911605       7.54110552       5.95491346
Si       8.03137934       5.88538588       4.64920123
Si       1.97493500       1.44723018       1.14324948
8
Lattice="6.399324413743643 0.9469827114394139 0.7480755336325968 2.8307328274609214 5.816793005397147 0.7480755336315629 2.83073282746016 2.0743578787099994 5.485593610785747" Properties=species:S:1:pos:R:3 unique_starting_index=42 config_type=initial n_minim_iter=12 stress="-0.0019553669652460355 0.0003503160496550839 0.00027673458301497673 0.0003503160496550839 -0.002176707853096894 0.0002027907956854991 0.00027673458301497673 0.0002027907956854991 -0.0022732230762808393" pbc="T T T"
Si       8.27259606       6.06635650       2.54526154
Si       8.27660790       3.87922919       5.30699781
Si       6.19228552       6.71935261       5.31232376
Si       9.67069279       7.08351747       4.07011183
Si       9.66768388       5.60034940       5.95284001
Si       8.25250550       7.53470101       5.94884550
Si       8.02269764       5.87902394       4.64417557
Si       1.97336564       1.44608016       1.14234101
8
Lattice="6.394180583962659 0.9399436309906791 0.7425149634137844 2.82247119347727 5.814008576856206 0.7425149634127455 2.8224711934765057 2.068303762483011 5.484172111518046" Properties=species:S:1:pos:R:3 unique_starting_index=42 config_type=initial n_minim_iter=13 stress="-0.00036709572241366454 -3.6023109017472625e-05 -2.845670379030784e-05 -3.6023109017472625e-05 -0.00034433516962192645 -2.0853041046686302e-05 -2.845670379030784e-05 -2.0853041046686302e-05 -0.00033441047902311804" pbc="T T T"
Si       8.25852295       6.05307386       2.53654937
Si       8.25970287       3.86857337       5.29985244
Si       6.17703219       6.70941270       5.30141885
Si       9.65339690       7.07694715       4.06069506
Si       9.65620853       5.58782859       5.94090108
Si       8.23710946       7.52142641       5.94463368
Si       8.00847720       5.86860322       4.63594365
Si       1.96960534       1.44332462       1.14016425
8
Lattice="6.3933112916733394 0.9390676217116362 0.7418229538332826 2.8213740100275184 5.813443554893065 0.7418229538322427 2.821374010026753 2.067499747667022 5.483782641039053" Properties=species:S:1:pos:R:3 unique_starting_index=42 config_type=initial n_minim_iter=14 stress="-0.00013318477237514605 -1.1546876512960163e-05 -9.121534862987147e-06 -1.1546876512960163e-05 -0.00012588908634929475 -6.684250689879449e-06 -9.121534862987147e-06 -6.684250689879449e-06 -0.0001227078179987588" pbc="T T T"
Si       8.25622228       6.05147865       2.53528957
Si       8.25748870       3.86695117       5.29847737
Si       6.17481835       6.70769934       5.30015862
Si       9.65225959       7.07412796       4.05932037
Si       9.65317769       5.58643679       5.94099048
Si       8.23486930       7.52094140       5.94220932
Si       8.00639518       5.86707752       4.63473841
Si       1.96949984       1.44324731       1.14010318
8
Lattice="6.392610039215453 0.9381937240257433 0.7411326123203719 2.820329460582081 5.813038130879048 0.7411326123193335 2.820329460581316 2.066734302991064 5.483548046743225" Properties=species:S:1:pos:R:3 unique_starting_index=42 config_type=initial n_minim_iter=15 stress="8.144458176391497e-05 7.364331132511221e-06 5.817504237400577e-06 7.364331132511221e-06 7.679156176163142e-05 4.263060594311588e-06 5.817504237400577e-06 4.263060594311588e-06 7.476262228505786e-05" pbc="T T T"
Si       8.25425603       6.04997121       2.53414101
Si       8.25545897       3.86550489       5.29736105
Si       6.17282781       6.70626614       5.29895803
Si       9.65096789       7.07176418       4.05798718
Si       9.65053460       5.58501952       5.94079361
Si       8.23272165       7.52026525       5.94021839
Si       8.00443735       5.86564282       4.63360506
Si       1.96956919       1.44329813       1.14014332
8
Lattice="6.392243398843846 0.9376475275566146 0.740701140647048 2.8196981888847787 5.812853058490048 0.7407011406460114 2.8196981888840136 2.066271707790907 5.483467888931108" Properties=species:S:1:pos:R:3 unique_starting_index=42 config_type=initial n_minim_iter=16 stress="0.00014643931138427576 -7.619460274716725e-06 -6.019045285138093e-06 -7.619460274716725e-06 0.00015125353016939166 -4.410749772759928e-06 -6.019045285138093e-06 -4.410749772759928e-06 0.00015335276002811623" pbc="T T T"
Si       8.25323957       6.04875132       2.53341010
Si       8.25398954       3.86465452       5.29694485
Si       6.17157430       6.70559618       5.29794048
Si       9.65002603       7.07038650       4.05710509
Si       9.64893719       5.58404955       5.94052784
Si       8.23131554       7.51972172       5.93908235
Si       8.00319145       5.86472982       4.63288383
Si       1.97035067       1.44387079       1.14059570
8
Lattice="6.392878358418034 0.9383464925744925 0.7412532928906106 2.820555961492557 5.81324796596075 0.741253292889577 2.8205559614917926 2.0669002826072314 5.483724243589284" Properties=species:S:1:pos:R:3 unique_starting_index=42 config_type=initial n_minim_iter=17 stress="-2.8768236581613105e-05 -1.236194087766413e-05 -9.765400600340576e-06 -1.236194087766413e-05 -2.0957566835604925e-05 -7.156074795389802e-06 -9.765400600340576e-06 -7.156074795389802e-06 -1.7551740896307598e-05" pbc="T T T"
Si       8.25498984       6.04957031       2.53432997
Si       8.25529774       3.86587866       5.29811551
Si       6.17313565       6.70693845       5.29852427
Si       9.65101295       7.07236098       4.05809627
Si       9.65111725       5.58509398       5.94063526
Si       8.23296817       7.52023463       5.94077372
Si       8.00478640       5.86589861       4.63380712
Si       1.97107357       1.44440053       1.14101418
