24
Lattice="8.807069839309166 -7.480022694612612e-15 -1.1425966501760661e-15 4.403534919654589 7.627146213745468 -1.0762910046698123e-14 4.403534919654588 2.5423820712485004 10.457407256107697" Properties=species:S:1:pos:R:3 unique_starting_index=24 config_type=initial n_minim_iter=1 energy=-3899.306572875016 free_energy=-3899.306572875016 pbc="T T T"
Si       9.60780290       3.96746671      10.21714492
Si       9.37431039       6.33686804      10.21714492
Si       7.43909490       4.94995693      10.21714492
Si       9.71351966       4.25249901       7.87659242
Si       9.07460680       6.28590529       7.87659242
Si       7.63308174       4.71588737       7.87659242
Si      10.50027435       3.94430579       1.16463033
Si       8.94813261       7.12135144       1.16463033
Si       6.97280124       4.18863443       1.16463033
Si       9.73422375       6.61989029       3.11983067
Si       7.01403376       5.12013991       3.11983067
Si       9.67295069       3.51426147       3.11983067
Si      10.64799970       7.60610789       8.33904523
Si       5.70305629       5.41838429       8.33904523
Si      10.07015221       2.22979948       8.33904523
Si      11.65393828       3.84096299       8.56472077
Si       8.46079813       8.17212511       8.56472077
Si       6.30647179       3.24120357       8.56472077
Si       9.82399859       9.32620730       7.41819980
Si       4.62540706       3.84472870       7.41819980
Si      11.97180255       2.08335567       7.41819980
Si       4.95414549       1.40912148       1.97197860
Si       5.10966122       3.58585511       1.97197860
Si       3.14679673       2.63216887       1.97197860
24
Lattice="8.88477337810468 -7.0945051858964515e-15 -1.5619901500776235e-15 4.442386689052346 7.694439452306336 -1.1331556000114375e-14 4.442386689052344 2.5648131507687886 10.498661671465292" Properties=species:S:1:pos:R:3 unique_starting_index=24 config_type=initial n_minim_iter=2 stress="-0.0008044346697417571 -3.4595678340982586e-16 1.2572934207713233e-15 -3.4595678340982586e-16 -0.0008044346697412622 -1.9923645742537702e-16 1.2572934207713233e-15 -1.9923645742537702e-16 -0.00080883093505083" pbc="T T T"
Si       9.69254435       4.00235072      10.25734440
Si       9.45713630       6.39281427      10.25734440
Si       7.50463816       4.99371315      10.25734440
Si       9.79913962       4.28999741       7.90743548
Si       9.15472932       6.34130515       7.90743548
Si       7.70044986       4.75757558       7.90743548
Si      10.59255497       3.97955259       1.16886247
Si       9.02687475       7.18364540       1.16886247
Si       7.03488909       4.22568015       1.16886247
Si       9.82006212       6.67844267       3.13227554
Si       7.07581380       5.16520193       3.13227554
Si       9.75844288       3.54523354       3.13227554
Si      10.74241814       7.67326645       8.37221848
Si       5.75309313       5.46657378       8.37221848
Si      10.15880754       2.24903791       8.37221848
Si      11.75662753       3.87479183       8.59893736
Si       8.53556395       8.24414219       8.59893736
Si       6.36212732       3.26994412       8.59893736
Si       9.91012184       9.40908057       7.44705126
Si       4.66598215       3.87787698       7.44705126
Si      12.07821481       2.10192059       7.44705126
Si       4.99793439       1.42177072       1.98002909
Si       5.15451574       3.61745279       1.98002909
Si       3.17470861       2.65521518       1.98002909
24
Lattice="8.879661346105701 -7.90201183422735e-15 -1.5598494948939017e-15 4.439830673052857 7.6900123027302625 -1.1416337450858547e-14 4.439830673052853 2.5633374342434307 10.54576745578002" Properties=species:S:1:pos:R:3 unique_starting_index=24 config_type=initial n_minim_iter=3 stress="0.0064860250049555875 1.2418643114686357e-16 1.517063292967272e-15 1.2418643114686357e-16 0.006486025004956535 1.8123047773201506e-16 1.517063292967272e-15 1.8123047773201506e-16 0.005570034826307354" pbc="T T T"
Si       9.68373538       3.99647691      10.29918829
Si       9.45640359       6.38812239      10.29918829
Si       7.49884374       4.99542454      10.29918829
Si       9.78118995       4.28568734       7.93734083
Si       9.15721272       6.32791530       7.93734083
Si       7.70058004       4.76642120       7.93734083
Si      10.58595939       3.98193698       1.16837939
Si       9.01788353       7.17674127       1.16837939
Si       7.03513978       4.22134559       1.16837939
Si       9.81073006       6.68286602       3.14928391
Si       7.06642503       5.15490845       3.14928391
Si       9.76182762       3.54224937       3.14928391
Si      10.73427952       7.68511075       8.40888677
Si       5.73668091       5.45360338       8.40888677
Si      10.16802228       2.24130971       8.40888677
Si      11.74960201       3.86140913       8.64433904
Si       8.54044240       8.24474926       8.64433904
Si       6.34893830       3.27386545       8.64433904
Si       9.88529069       9.41626486       7.48575267
Si       4.66195189       3.85278043       7.48575267
Si      12.09174013       2.11097855       7.48575267
Si       4.98980901       1.41518644       1.99022867
Si       5.15916855       3.61370815       1.99022867
Si       3.17051313       2.66111696       1.99022867
24
Lattice="8.878603581677762 -8.891265094268365e-15 -1.6398626111478126e-15 4.439301790838888 7.689096251864447 -1.1473698812645083e-14 4.439301790838883 2.5630320839548255 10.449526640247086" Properties=species:S:1:pos:R:3 unique_starting_index=24 config_type=initial n_minim_iter=4 stress="-0.001355578089506641 -5.319437462774538e-16 8.207932468892016e-16 -5.319437462774538e-16 -0.0013555780895071789 -5.386358413886095e-16 8.207932468892016e-16 -5.386358413886095e-16 0.00277010623388546" pbc="T T T"
Si       9.67123782       3.98215895      10.19057531
Si       9.47293655       6.38445817      10.19057531
Si       7.49163504       5.01157462      10.19057531
Si       9.76847811       4.25659886       7.85423401
Si       9.18664448       6.33145077       7.85423401
Si       7.68068683       4.79014211       7.85423401
Si      10.58067063       3.99972787       1.13675642
Si       9.00300503       7.16326562       1.13675642
Si       7.05213377       4.21519825       1.13675642
Si       9.79597979       6.71122945       3.13033924
Si       7.04712119       5.12795263       3.13033924
Si       9.79270844       3.53900966       3.13033924
Si      10.72177165       7.73526955       8.32843205
Si       5.69738052       5.41769185       8.32843205
Si      10.21665725       2.22523034       8.32843205
Si      11.72440451       3.83246994       8.58744802
Si       8.57598770       8.23739718       8.58744802
Si       6.33541721       3.30832462       8.58744802
Si       9.82183532       9.46438007       7.43151083
Si       4.64989505       3.77376887       7.43151083
Si      12.16407905       2.14004281       7.43151083
Si       4.97165517       1.39697600       1.97616794
Si       5.18295840       3.60709168       1.97616794
Si       3.16329047       2.68502781       1.97616794
24
Lattice="8.948875910179623 -9.098402925678043e-15 -1.5887039773117358e-15 4.474437955089819 7.749953873530143 -1.1595079546561467e-14 4.474437955089813 2.5833179578433896 10.247843974679698" Properties=species:S:1:pos:R:3 unique_starting_index=24 config_type=initial n_minim_iter=5 stress="0.0053577627158628805 -2.1463317714059077e-16 1.3277889415538732e-16 -2.1463317714059077e-16 0.005357762715862141 -5.289286301295781e-16 1.3277889415538732e-16 -5.289286301295781e-16 -0.011672818649174087" pbc="T T T"
Si       9.73817461       4.00877130       9.98795754
Si       9.55696584       6.42912095       9.98795754
Si       7.55148594       5.06201473       9.98795754
Si       9.83589694       4.27908994       7.70057759
Si       9.27400187       6.37859165       7.70057759
Si       7.73672759       4.84222539       7.70057759
Si      10.66510657       4.03865929       1.10569202
Si       9.06761610       7.21692358       1.10569202
Si       7.11390372       4.24432411       1.10569202
Si       9.86594196       6.77999629       3.07375563
Si       7.09313092       5.15415823       3.07375563
Si       9.88755351       3.56575246       3.07375563
Si      10.79155431       7.82502746       8.16103302
Si       5.72530121       5.43324645       8.16103302
Si      10.32977088       2.24163307       8.16103302
Si      11.79978397       3.85855922       8.43136573
Si       8.65624864       8.28963307       8.43136573
Si       6.39059378       3.35171469       8.43136573
Si       9.91447622       9.54652524       7.29830329
Si       4.67297944       3.81292566       7.29830329
Si      12.25917073       2.14045608       7.29830329
Si       4.99970348       1.40073783       1.93808288
Si       5.23594873       3.62950131       1.93808288
Si       3.18766032       2.71971396       1.93808288
24
Lattice="8.925505315424205 -6.9914680407304295e-15 -1.81915538158737e-15 4.462752657712109 7.729714344770399 -1.187601361855029e-14 4.462752657712103 2.57657144825681 10.529497067610812" Properties=species:S:1:pos:R:3 unique_starting_index=24 config_type=initial n_minim_iter=6 stress="0.00038473211000239195 -1.1951243562521822e-16 -3.1482815522755695e-17 -1.1951243562521822e-16 0.0003847321100009639 -8.402549502141301e-16 -3.1482815522755695e-17 -8.402549502141301e-16 0.010474542258401949" pbc="T T T"
Si       9.69383412       3.99293480      10.25106910
Si       9.54610971       6.39863920      10.25106910
Si       7.53657079       5.06785391      10.25106910
Si       9.79393733       4.24869384       7.91166219
Si       9.27456428       6.35745162       7.91166219
Si       7.70801300       4.85328247       7.91166219
Si      10.63948860       4.03932917       1.12138226
Si       9.03310376       7.19440283       1.12138226
Si       7.10392224       4.22569592       1.12138226
Si       9.82790351       6.78966072       3.16418921
Si       7.05703932       5.11638375       3.16418921
Si       9.89157178       3.55338346       3.16418921
Si      10.73975427       7.83499921       8.37899794
Si       5.69582425       5.38340043       8.37899794
Si      10.34093609       2.24102828       8.37899794
Si      11.73593003       3.84533790       8.67660168
Si       8.65288442       8.24094460       8.67660168
Si       6.38770016       3.37314543       8.67660168
Si       9.91366779       9.55117233       7.51061424
Si       4.62261797       3.80990199       7.51061424
Si      12.24022885       2.09835360       7.51061424
Si       4.96627941       1.38597083       1.99315535
Si       5.24207878       3.60793872       1.99315535
Si       3.17989845       2.73580403       1.99315535
24
Lattice="8.972785652422978 -6.362254395221147e-15 -2.0006264449448572e-15 4.486392826211495 7.770660317710829 -1.2151221456320106e-14 4.486392826211489 2.5902201059036187 10.375775809933884" Properties=species:S:1:pos:R:3 unique_starting_index=24 config_type=initial n_minim_iter=7 stress="-0.019269321261541038 -1.2456613181159248e-15 -1.841559174250474e-17 -1.2456613181159248e-15 -0.01926932126154188 -1.80917842543657e-15 -1.841559174250474e-17 -1.80917842543657e-15 -0.0015674177527785881" pbc="T T T"
Si       9.71460462       4.00459157      10.08395017
Si       9.62019007       6.41079861      10.08395017
Si       7.58356092       5.12592969      10.08395017
Si       9.81114905       4.24927074       7.79455476
Si       9.36001948       6.37206895       7.79455476
Si       7.74718709       4.91998017       7.79455476
Si      10.70133347       4.07625622       1.08590929
Si       9.06476224       7.22949853       1.08590929
Si       7.15225991       4.23556511       1.08590929
Si       9.85937477       6.86826998       3.12458979
Si       7.06778674       5.10433403       3.12458979
Si       9.99119410       3.56871586       3.12458979
Si      10.77073202       7.90500037       8.25732544
Si       5.71427327       5.37522736       8.25732544
Si      10.43335033       2.26109213       8.25732544
Si      11.76099418       3.85678875       8.56522673
Si       8.72499629       8.25692536       8.56522673
Si       6.43236515       3.42760576       8.56522673
Si       9.99531070       9.67599371       7.41740852
Si       4.56825870       3.81819614       7.41740852
Si      12.35478621       2.04713002       7.41740852
Si       4.96045257       1.37374257       1.96323899
Si       5.30286251       3.60900666       1.96323899
Si       3.19586206       2.78791032       1.96323899
24
Lattice="8.995994904318852 -8.013023373073729e-15 -2.3447104614743626e-15 4.497997452159434 7.790760119455491 -1.224881767393066e-14 4.497997452159428 2.5969200398185057 10.298608322050884" Properties=species:S:1:pos:R:3 unique_starting_index=24 config_type=initial n_minim_iter=8 stress="-0.006987230898162058 4.728316273063647e-16 9.998066289822284e-17 4.728316273063647e-16 -0.006987230898162274 -7.413181612892077e-16 9.998066289822284e-17 -7.413181612892077e-16 -0.004626896410728541" pbc="T T T"
Si       9.73094585       4.01672874      10.00747156
Si       9.64792686       6.41888194      10.00747156
Si       7.60911066       5.14590878      10.00747156
Si       9.82809588       4.26153519       7.74105684
Si       9.38734324       6.38061311       7.74105684
Si       7.77254425       4.93937116       7.74105684
Si      10.73448097       4.08380382       1.08149011
Si       9.08807057       7.25443131       1.08149011
Si       7.16543182       4.24328433       1.08149011
Si       9.88059502       6.89276562       3.09840967
Si       7.08238127       5.11046348       3.09840967
Si      10.02500707       3.57829036       3.09840967
Si      10.80689026       7.90815415       8.19845553
Si       5.73988139       5.40496443       8.19845553
Si      10.44121171       2.26840089       8.19845553
Si      11.78747401       3.87737378       8.50266239
Si       8.74034771       8.26956505       8.50266239
Si       6.46016164       3.43458063       8.50266239
Si      10.03761644       9.71177018       7.35868132
Si       4.56254100       3.83694574       7.35868132
Si      12.38782593       2.03280354       7.35868132
Si       4.96529893       1.37293338       1.94481391
Si       5.32434936       3.61360833       1.94481391
Si       3.20434272       2.80421764       1.94481391
24
Lattice="9.009528711368175 -9.715962985440578e-15 -2.460861849143358e-15 4.504764355684098 7.802480740170117 -1.214337703519364e-14 4.504764355684091 2.6008269133900463 10.238448453452209" Properties=species:S:1:pos:R:3 unique_starting_index=24 config_type=initial n_minim_iter=9 stress="0.004756078553840984 -5.574802048700536e-16 2.739581748337618e-16 -5.574802048700536e-16 0.004756078553841616 -1.7390019617051878e-15 2.739581748337618e-16 -1.7390019617051878e-15 -0.0017117179163189963" pbc="T T T"
Si       9.72996838       4.02084567       9.94414184
Si       9.67191784       6.41597696       9.94414184
Si       7.62669857       5.16813808       9.94414184
Si       9.82997840       4.26447972       7.69916312
Si       9.41091955       6.38077116       7.69916312
Si       7.78768683       4.95970983       7.69916312
Si      10.74557968       4.09910393       1.07371969
Si       9.09633855       7.25639302       1.07371969
Si       7.18666655       4.24946376       1.07371969
Si       9.88451065       6.92011168       3.07540455
Si       7.08380869       5.10018149       3.07540455
Si      10.06026544       3.58466754       3.07540455
Si      10.83263310       7.92457522       8.14775142
Si       5.73985653       5.41904785       8.14775142
Si      10.45609516       2.26133765       8.14775142
Si      11.79225166       3.88541656       8.46363655
Si       8.75806125       8.26968123       8.46363655
Si       6.47827188       3.44986292       8.46363655
Si      10.04482773       9.72937342       7.31621902
Si       4.57075812       3.83438928       7.31621902
Si      12.41299894       2.04119800       7.31621902
Si       4.95902529       1.37716506       1.93300173
Si       5.33735524       3.60605935       1.93300173
Si       3.21791119       2.81925555       1.93300173
24
Lattice="9.029226842395525 -1.3897910996657429e-14 -2.6212812382457564e-15 4.514613421197776 7.819539822046877 -1.2095724080315341e-14 4.514613421197767 2.60651327401563 10.245609989023185" Properties=species:S:1:pos:R:3 unique_starting_index=24 config_type=initial n_minim_iter=10 stress="0.010520646739168457 -1.6009088136428934e-15 -3.575992268994288e-16 -1.6009088136428934e-15 0.010520646739168712 -2.0430733512812e-15 -3.575992268994288e-16 -2.0430733512812e-15 0.004237149482221724" pbc="T T T"
Si       9.72074129       4.02488337       9.94152440
Si       9.71243090       6.40596722       9.94152440
Si       7.65450699       5.20822828       9.94152440
Si       9.83312482       4.25645027       7.71079179
Si       9.45569631       6.38751076       7.71079179
Si       7.79885804       4.99511784       7.71079179
Si      10.76592478       4.12137187       1.07289856
Si       9.10627766       7.26287842       1.07289856
Si       7.21547674       4.25482858       1.07289856
Si       9.88520090       6.96944582       3.06932817
Si       7.08013520       5.07611219       3.06932817
Si      10.12234307       3.59352085       3.06932817
Si      10.85910413       7.94972379       8.14916995
Si       5.74423796       5.42939814       8.14916995
Si      10.48433708       2.25995693       8.14916995
Si      11.80231691       3.88750840       8.48199362
Si       8.79061330       8.27735207       8.48199362
Si       6.49474897       3.47421840       8.48199362
Si      10.07508898       9.76040567       7.32907328
Si       4.56814904       3.84508017       7.32907328
Si      12.44444116       2.03359303       7.32907328
Si       4.94226306       1.37797612       1.93159024
Si       5.36473208       3.59113731       1.93159024
Si       3.23684376       2.85042562       1.93159024
24
Lattice="9.031709232477631 -1.8347199206814456e-14 -2.834268910103926e-15 4.515854616238834 7.821689634920082 -1.2349476599158281e-14 4.515854616238823 2.6072298783066974 10.261727673217544" Properties=species:S:1:pos:R:3 unique_starting_index=24 config_type=initial n_minim_iter=11 stress="0.016931369079142684 -6.560979492363984e-16 -5.295954034685961e-16 -6.560979492363984e-16 0.01693136907914229 -1.0499251846382187e-15 -5.295954034685961e-16 -1.0499251846382187e-15 0.00608121710738066" pbc="T T T"
Si       9.69363559       4.02009277       9.94915037
Si       9.73509731       6.38488830       9.94915037
Si       7.66639345       5.23839743       9.94915037
Si       9.82215925       4.24215371       7.73103208
Si       9.47852506       6.38516257       7.73103208
Si       7.79444204       5.01606221       7.73103208
Si      10.76514370       4.13547487       1.07543171
Si       9.09941942       7.25515048       1.07543171
Si       7.23056323       4.25275314       1.07543171
Si       9.86668889       7.00470069       3.06365327
Si       7.06382437       5.04245289       3.06365327
Si      10.16461308       3.59622491       3.06365327
Si      10.87348105       7.95550742       8.15671348
Si       5.73700551       5.43895711       8.15671348
Si      10.48463978       2.24891396       8.15671348
Si      11.80204478       3.88573157       8.50393024
Si       8.79725293       8.27800481       8.50393024
Si       6.49582864       3.47964211       8.50393024
Si      10.08534993       9.77025109       7.34971661
Si       4.55945696       3.84904371       7.34971661
Si      12.45031946       2.02408370       7.34971661
Si       4.91699511       1.38022323       1.93175916
Si       5.37790240       3.56813106       1.93175916
Si       3.25266499       2.87333456       1.93175916
24
Lattice="9.028072890223307 -3.1515166192486706e-14 -2.9885955199846382e-15 4.5140364451116834 7.818540470150974 -1.275214330596382e-14 4.514036445111667 2.606180156716992 10.25843918053126" Properties=species:S:1:pos:R:3 unique_starting_index=24 config_type=initial n_minim_iter=12 stress="0.00857942346842296 6.799888957334888e-16 -2.526768207821397e-16 6.799888957334888e-16 0.008579423468422782 -8.357653823321866e-16 -2.526768207821397e-16 -8.357653823321866e-16 0.0014477160257690442" pbc="T T T"
Si       9.63536721       3.99898736       9.93107630
Si       9.77523664       6.34497910       9.93107630
Si       7.67361347       5.29311371       9.93107630
Si       9.79024028       4.21712349       7.74347192
Si       9.50888867       6.37003505       7.74347192
Si       7.78508837       5.04992163       7.74347192
Si      10.76139576       4.15620540       1.07506588
Si       9.07606754       7.24153941       1.07506588
Si       7.24675402       4.23933535       1.07506588
Si       9.81970958       7.06915552       3.04477571
Si       7.02422183       4.96954020       3.04477571
Si      10.24028591       3.59838445       3.04477571
Si      10.88380745       7.96303416       8.14678010
Si       5.71805128       5.44413667       8.14678010
Si      10.48235859       2.22990934       8.14678010
Si      11.78068284       3.86698735       8.51991670
Si       8.81689418       8.26887694       8.51991670
Si       6.48664030       3.50121588       8.51991670
Si      10.08707206       9.78344783       7.36160298
Si       4.53989450       3.84393674       7.36160298
Si      12.45725076       2.00969560       7.36160298
Si       4.86231686       1.37903574       1.92339162
Si       5.40263358       3.52137205       1.92339162
Si       3.27715755       2.91813190       1.92339162
24
Lattice="8.976704852086874 -4.388557918016008e-14 -3.1301187177861833e-15 4.4883524260434795 7.77405444418225 -1.298416026567688e-14 4.4883524260434555 2.59135148139408 10.432831897302318" Properties=species:S:1:pos:R:3 unique_starting_index=24 config_type=initial n_minim_iter=13 stress="-0.011664022666696503 9.15706944770005e-16 2.7143353233815307e-16 9.15706944770005e-16 -0.011664022666698259 -3.309049242549394e-16 2.7143353233815307e-16 -3.309049242549394e-16 0.0027103460708290017" pbc="T T T"
Si       9.55056372       3.94038347      10.09946330
Si       9.76565477       6.30083907      10.09946330
Si       7.61389473       5.30688558      10.09946330
Si       9.73196862       4.18648193       7.89252347
Si       9.46182480       6.33489109       7.89252347
Si       7.73631980       5.02673509       7.89252347
Si      10.72034145       4.14591950       1.08712461
Si       9.00276647       7.21112828       1.08712461
Si       7.20700529       4.19106033       1.08712461
Si       9.73119462       7.07492520       3.09361633
Si       6.96074655       4.88999916       3.09361633
Si      10.23817204       3.58318376       3.09361633
Si      10.84352820       7.91447614       8.27662717
Si       5.67750732       5.43353282       8.27662717
Si      10.40907770       2.20009916       8.27662717
Si      11.72488721       3.81823959       8.66813277
Si       8.78427272       8.24493039       8.66813277
Si       6.42095328       3.48493814       8.66813277
Si      10.02887558       9.71617666       7.50124134
Si       4.52451521       3.82717269       7.50124134
Si      12.37672243       2.00475876       7.50124134
Si       4.79750527       1.36638602       1.93903211
Si       5.39462632       3.47156843       1.93903211
Si       3.27292434       2.93609922       1.93903211
24
Lattice="8.993810224391824 -4.844340252824059e-14 -3.3304476801500527e-15 4.49690511219596 7.788868131139526 -1.3109211119643429e-14 4.496905112195933 2.596289377046503 10.400878498443369" Properties=species:S:1:pos:R:3 unique_starting_index=24 config_type=initial n_minim_iter=14 stress="-0.004659919398704091 9.352958779885863e-16 -7.253190581990341e-17 9.352958779885863e-16 -0.004659919398706548 -6.188068687702264e-16 -7.253190581990341e-17 -6.188068687702264e-16 -6.0323715904940776e-05" pbc="T T T"
Si       9.55535359       3.93122256      10.06482884
Si       9.80540415       6.30956768      10.06482884
Si       7.62067158       5.33694525      10.06482884
Si       9.74557669       4.19184482       7.87968527
Si       9.48458710       6.34399458       7.87968527
Si       7.75126553       5.04189609       7.87968527
Si      10.74608839       4.16398591       1.08051204
Si       9.00845778       7.22439258       1.08051204
Si       7.22688316       4.18935700       1.08051204
Si       9.73043608       7.11271788       3.08051695
Si       6.96260714       4.87044590       3.08051695
Si      10.28838611       3.59457171       3.08051695
Si      10.87350446       7.92278164       8.24673028
Si       5.68953715       5.45534028       8.24673028
Si      10.41838771       2.19961357       8.24673028
Si      11.74252720       3.81263254       8.64442579
Si       8.81451931       8.26301059       8.64442579
Si       6.42438281       3.50209235       8.64442579
Si      10.04918943       9.73705975       7.48526559
Si       4.53048373       3.83432345       7.48526559
Si      12.40175617       2.00635228       7.48526559
Si       4.78819021       1.36364855       1.92707491
Si       5.41875994       3.46487009       1.92707491
Si       3.28376384       2.96034872       1.92707491
24
Lattice="9.001428814292623 -5.237367801235522e-14 -3.5369986040166935e-15 4.500714407146367 7.795466023534633 -1.3131637870486132e-14 4.500714407146336 2.5984886745115374 10.366128594745739" Properties=species:S:1:pos:R:3 unique_starting_index=24 config_type=initial n_minim_iter=15 stress="0.003956120376110777 1.7146462063571343e-15 -9.157804199877875e-19 1.7146462063571343e-15 0.0039561203761087444 -7.996289367193365e-16 -9.157804199877875e-19 -7.996289367193365e-16 -0.0018272281738853184" pbc="T T T"
Si       9.55297899       3.91515255      10.03205895
Si       9.83574567       6.31554621      10.03205895
Si       7.61556044       5.36023251      10.03205895
Si       9.75461497       4.20290714       7.87115625
Si       9.48572489       6.34629080       7.87115625
Si       7.76394523       5.04173333       7.87115625
Si      10.75437351       4.18690906       1.06959843
Si       8.99970036       7.22010613       1.06959843
Si       7.25021122       4.18391608       1.06959843
Si       9.71374081       7.14017830       3.06616567
Si       6.96241053       4.84225716       3.06616567
Si      10.32813376       3.60849582       3.06616567
Si      10.89675909       7.91221128       8.21251058
Si       5.70230122       5.48076456       8.21251058
Si      10.40522478       2.19795544       8.21251058
Si      11.74998229       3.79604058       8.61409602
Si       8.84039801       8.27776287       8.61409602
Si       6.41390480       3.51712783       8.61409602
Si      10.06049032       9.73872550       7.46825073
Si       4.53862789       3.84327744       7.46825073
Si      12.40516689       2.00892833       7.46825073
Si       4.77528044       1.37203072       1.91346580
Si       5.42557424       3.44949881       1.91346580
Si       3.30128720       2.97393572       1.91346580
24
Lattice="9.002499654936699 -5.3663604607275433e-14 -3.7298105209076165e-15 4.501249827468407 7.796393398735806 -1.3354939194094523e-14 4.501249827468374 2.5987977995785947 10.386529873966262" Properties=species:S:1:pos:R:3 unique_starting_index=24 config_type=initial n_minim_iter=16 stress="0.0058817163193180845 1.7107189084438787e-15 -3.7860297395099105e-16 1.7107189084438787e-15 0.005881716319315726 -8.124886830364188e-16 -3.7860297395099105e-16 -8.124886830364188e-16 0.0004763993925753494" pbc="T T T"
Si       9.55279159       3.90854555      10.05636248
Si       9.84370288       6.31868742      10.05636248
Si       7.61100314       5.36555305      10.05636248
Si       9.76255686       4.20917519       7.89363916
Si       9.47846734       6.35003465       7.89363916
Si       7.76647342       5.03357618       7.89363916
Si      10.75990488       4.19548324       1.06708198
Si       8.99165091       7.22060935       1.06708198
Si       7.25594183       4.17669344       1.06708198
Si       9.70239409       7.14618467       3.07335040
Si       6.96502390       4.82942743       3.07335040
Si      10.34007963       3.61717392       3.07335040
Si      10.90559051       7.91125529       8.22320458
Si       5.70085510       5.48889079       8.22320458
Si      10.40105200       2.19263995       8.22320458
Si      11.75088346       3.78466489       8.63119899
Si       8.85194075       8.28423115       8.63119899
Si       6.40467341       3.52388999       8.63119899
Si      10.05639498       9.73563259       7.48760854
Si       4.54549578       3.84127723       7.48760854
Si      12.40560686       2.01587621       7.48760854
Si       4.77276295       1.36183847       1.90981044
Si       5.43673057       3.45241473       1.90981044
Si       3.29425461       2.98213942       1.90981044
24
Lattice="8.98813234729732 -5.733643316178805e-14 -3.93511774740683e-15 4.494066173648719 7.783950945336115 -1.3588659529465528e-14 4.494066173648685 2.594650315112029 10.415748778491668" Properties=species:S:1:pos:R:3 unique_starting_index=24 config_type=initial n_minim_iter=17 stress="0.0005615085743588332 1.3330862146181026e-15 8.684104483797925e-17 1.3330862146181026e-15 0.0005615085743574876 -1.458015437016599e-16 8.684104483797925e-17 -1.458015437016599e-16 0.00032887805891247473" pbc="T T T"
Si       9.53711716       3.90016257      10.09059035
Si       9.83006536       6.30930446      10.09059035
Si       7.59721318       5.35843409      10.09059035
Si       9.75653894       4.20653360       7.92286804
Si       9.45502937       6.34614378       7.92286804
Si       7.75282738       5.01522374       7.92286804
Si      10.74657138       4.19750877       1.06707241
Si       8.96782888       7.20804944       1.06707241
Si       7.24999544       4.16234291       1.06707241
Si       9.67242969       7.13541700       3.08214564
Si       6.96059657       4.80886133       3.08214564
Si      10.33136944       3.62362279       3.08214564
Si      10.89592032       7.89285852       8.24031935
Si       5.69288766       5.48971454       8.24031935