8
Lattice="4.9821775340371 -1.430963838729537e-16 9.115349152019166e-17 7.389098244575849e-19 3.285695860315488 -0.6703307749733177 -1.2798313066459284e-16 -1.5255913929959464 11.083084321654873" Properties=species:S:1:pos:R:3 unique_starting_index=34 config_type=initial n_minim_iter=1 energy=-1305.737151521233 free_energy=-1305.737151521233 pbc="T T T"
Si       0.63893618       0.23035558       6.18739991
Si       0.63893618       1.52974889       4.22535364
Si       0.67296117       0.79111241       9.87873407
Si       0.67296117       0.96899206       0.53401948
Si       4.34324135      -0.87589473      10.10206119
Si       4.34324135       2.63599920       0.31069236
Si       4.30921637       1.84904429       5.74039625
Si       4.30921637      -0.08893982       4.67235730
8
Lattice="4.99008665832453 -1.4301883134268632e-16 9.138477159747937e-17 8.71383844187241e-19 3.289337417673452 -0.6707306163008542 -1.277771132440579e-16 -1.5288519440351926 11.082001012685156" Properties=species:S:1:pos:R:3 unique_starting_index=34 config_type=initial n_minim_iter=2 stress="0.0007430641229163099 -2.7246295032719915e-15 9.046511004871047e-16 -2.7246295032719915e-15 0.011237098773446315 -0.0026767983978007665 9.046511004871047e-16 -0.0026767983978007665 0.0034324933897167194" pbc="T T T"
Si       0.64026631       0.22950528       6.18639333
Si       0.64026631       1.53098019       4.22487706
Si       0.67437290       0.79046623       9.87754249
Si       0.67437290       0.97001925       0.53372790
Si       4.34982035      -0.87811449      10.10124288
Si       4.34982035       2.63859996       0.31002752
Si       4.31571376       1.85026198       5.73936310
Si       4.31571376      -0.08977651       4.67190730
8
Lattice="5.021002888898894 -1.4313363212953145e-16 9.279693028912244e-17 -1.045806892416735e-20 3.2723576596005133 -0.6631187705399262 -1.2395110604732977e-16 -1.5034626041664862 11.041953243311387" Properties=species:S:1:pos:R:3 unique_starting_index=34 config_type=initial n_minim_iter=3 stress="0.007308753600536878 -3.037520409835675e-15 1.04748593197731e-15 -3.037520409835675e-15 0.0020574903910720093 0.0005530417866110252 1.04748593197731e-15 0.0005530417866110252 -0.0033737626221579517" pbc="T T T"
Si       0.64606883       0.23642230       6.16274179
Si       0.64606883       1.53247276       4.21609269
Si       0.68070540       0.80227370       9.84631095
Si       0.68070540       0.96662136       0.53252352
Si       4.37493406      -0.85543737      10.06862869
Si       4.37493406       2.62433243       0.31020578
Si       4.34029749       1.85106889       5.72194076
Si       4.34029749      -0.08217383       4.65689372
8
Lattice="5.0393168880664625 -1.420543491727137e-16 9.221152199579091e-17 -6.043560065868194e-19 3.224677865505509 -0.6623762929767555 -1.2588771830269925e-16 -1.4699119827892384 11.085615736415182" Properties=species:S:1:pos:R:3 unique_starting_index=34 config_type=initial n_minim_iter=4 stress="0.0009535865699634134 -2.5927492803605366e-15 1.2260895066600026e-15 -2.5927492803605366e-15 -0.016122214499802077 0.0019672657917367874 1.2260895066600026e-15 0.0019672657917367874 0.015680653301636063" pbc="T T T"
Si       0.66269913       0.22948204       6.15814701
Si       0.66269913       1.52528384       4.26509244
Si       0.70003768       0.80917337       9.89779775
Si       0.70003768       0.94559251       0.52544169
Si       4.37661776      -0.82201108      10.13908845
Si       4.37661776       2.57677697       0.28415099
Si       4.33927921       1.82297545       5.73706141
Si       4.33927921      -0.06820957       4.68617803
8
Lattice="5.03187622466019 -1.4277992291416128e-16 9.501742284910283e-17 -1.5459924556181767e-18 3.2237614271048547 -0.6590800654735373 -1.1831284673309997e-16 -1.4688519996885718 11.034226635544368" Properties=species:S:1:pos:R:3 unique_starting_index=34 config_type=initial n_minim_iter=5 stress="-0.009361191764876872 -1.948592104285072e-15 1.3415425199634468e-15 -1.948592104285072e-15 -0.01956968019095836 -0.0004298325283146674 1.3415425199634468e-15 -0.0004298325283146674 -0.003183902924487967" pbc="T T T"
Si       0.66412684       0.22739098       6.12267383
Si       0.66412684       1.52751845       4.25247274
Si       0.70197838       0.81075135       9.85457436
Si       0.70197838       0.94415808       0.52057221
Si       4.36774939      -0.81878827      10.09912610
Si       4.36774939       2.57369769       0.27602047
Si       4.32989784       1.82161279       5.70814549
Si       4.32989784      -0.06670337       4.66700108
8
Lattice="5.026606624598097 -1.4488723095336513e-16 9.531304145934194e-17 -2.9904935354868047e-18 3.232312019736433 -0.6451487156761532 -1.1544189232526614e-16 -1.4289497079902136 11.01893445483683" Properties=species:S:1:pos:R:3 unique_starting_index=34 config_type=initial n_minim_iter=6 stress="-0.011202469231847501 -9.434519394327672e-16 9.511708022975594e-16 -9.434519394327672e-16 -0.007711140451214038 0.007379650007408722 9.511708022975594e-16 0.007379650007408722 -0.0033876949259056526" pbc="T T T"
Si       0.66313008       0.25045144       6.11051759
Si       0.66313008       1.55291087       4.26326815
Si       0.70154074       0.85302685       9.85008603
Si       0.70154074       0.95033546       0.52369971
Si       4.36347655      -0.77772000      10.09530973
Si       4.36347655       2.58108231       0.27847601
Si       4.32506588       1.85201662       5.71059258
Si       4.32506588      -0.04865431       4.66319316
8
Lattice="5.062053375130657 -1.4551308997084176e-16 9.713525044275779e-17 -3.3545551908073872e-18 3.242480271973788 -0.6454884725081674 -1.1161727076202497e-16 -1.444175626378937 10.973062198252265" Properties=species:S:1:pos:R:3 unique_starting_index=34 config_type=initial n_minim_iter=7 stress="-0.003332533964538328 8.577246787258747e-17 6.157576983251621e-16 8.577246787258747e-17 0.02564021827508052 -0.0033574858770296866 6.157576983251621e-16 -0.0033574858770296866 0.001854404643768251" pbc="T T T"
Si       0.66381236       0.23602742       6.05256945
Si       0.66381236       1.56227723       4.27500427
Si       0.70474769       0.84983806       9.80392827
Si       0.70474769       0.94846659       0.52364545
Si       4.39824102      -0.78105072      10.08427961
Si       4.39824102       2.57935537       0.24329412
Si       4.35730569       1.84761891       5.68743232
Si       4.35730569      -0.04931427       4.64014141
8
Lattice="5.106851015517246 -1.461894812495946e-16 9.950621211518015e-17 -4.418743171182448e-18 3.236940995928068 -0.6392786090814672 -1.0580726428668691e-16 -1.4313651755190329 10.920574877369427" Properties=species:S:1:pos:R:3 unique_starting_index=34 config_type=initial n_minim_iter=8 stress="-0.020166707811847734 3.3548103022992637e-16 8.933533903088136e-17 3.3548103022992637e-16 0.023765015128509467 -0.012693532018716034 8.933533903088136e-17 -0.012693532018716034 -0.015102845848880475" pbc="T T T"
Si       0.67005197       0.22981277       5.98681436
Si       0.67005197       1.57576305       4.29448191
Si       0.71403983       0.86255570       9.75853860
Si       0.71403983       0.94302012       0.52275767
Si       4.43679905      -0.75839004      10.07440865
Si       4.43679905       2.56396586       0.20688762
Si       4.39281119       1.84580803       5.66340581
Si       4.39281119      -0.04023221       4.61789046
8
Lattice="5.136715586199105 -1.4873017306458863e-16 1.0270010043903517e-16 -6.943869349080545e-18 3.227862744520381 -0.6313872181487697 -9.761564472282241e-17 -1.4025397349044721 10.910730450288652" Properties=species:S:1:pos:R:3 unique_starting_index=34 config_type=initial n_minim_iter=9 stress="-0.020615529434565173 6.196923416113683e-17 1.9609819876768629e-16 6.196923416113683e-17 0.008356805619624135 -0.005871089091458066 1.9609819876768629e-16 -0.005871089091458066 -0.024018260643767077" pbc="T T T"
Si       0.67451041       0.24137375       5.97669029
Si       0.67451041       1.58394926       4.30265294
Si       0.71935353       0.88524202       9.75459650
Si       0.71935353       0.94008099       0.52474674
Si       4.46220518      -0.73125198      10.07371177
Si       4.46220518       2.55657499       0.20563146
Si       4.41736206       1.85274250       5.66441835
Si       4.41736206      -0.02741949       4.61492488
8
Lattice="5.207176432437339 -1.5058429962886615e-16 1.0451711724005593e-16 -9.546019417652157e-18 3.1942276477150533 -0.6278002419098268 -9.434126547555384e-17 -1.3653359675723575 10.957232999731778" Properties=species:S:1:pos:R:3 unique_starting_index=34 config_type=initial n_minim_iter=10 stress="-0.0017578685331933084 4.947340879689231e-16 -5.86686873646959e-16 4.947340879689231e-16 -0.002589279362546167 -0.004955812868376642 -5.86686873646959e-16 -0.004955812868376642 0.0035759417614971128" pbc="T T T"
Si       0.68506528       0.25101833       6.01354583
Si       0.68506528       1.57787335       4.31588693
Si       0.73012505       0.89680532       9.79892978
Si       0.73012505       0.93208636       0.53050298
Si       4.52211115      -0.70190846      10.10840355
Si       4.52211115       2.53080014       0.22102921
Si       4.47705138       1.84653220       5.69521936
Si       4.47705138      -0.01764052       4.63421340
8
Lattice="5.217158969799996 -1.5396427573329548e-16 1.071225042233877e-16 -1.2266068616758964e-17 3.1941855459799053 -0.6215768576384942 -8.680063993541624e-17 -1.348303788899703 10.937726266308086" Properties=species:S:1:pos:R:3 unique_starting_index=34 config_type=initial n_minim_iter=11 stress="0.0020422276971159615 3.948807830678336e-16 -4.0829830473667346e-16 3.948807830678336e-16 0.007591927874582184 0.003614971105112435 -4.0829830473667346e-16 0.003614971105112435 0.005806578442984499" pbc="T T T"
Si       0.68513709       0.26214229       6.00721657
Si       0.68513709       1.58373947       4.30893284
Si       0.72988917       0.91205352       9.78129544
Si       0.72988917       0.93382824       0.53485397
Si       4.53202188      -0.68750520      10.08858440
Si       4.53202188       2.53338695       0.22756501
Si       4.48726980       1.85676911       5.69292868
Si       4.48726980      -0.01088736       4.62322073
8
Lattice="5.2327067853505005 -1.5668614452458441e-16 1.1008824331611684e-16 -1.4529889465863794e-17 3.1926857400011146 -0.6218118555243888 -7.946232565074623e-17 -1.3513925221976264 10.923058540634008" Properties=species:S:1:pos:R:3 unique_starting_index=34 config_type=initial n_minim_iter=12 stress="0.0036635622368605173 2.7149656372124637e-16 -5.166539085740136e-16 2.7149656372124637e-16 0.006415176241885134 -0.0007128474092795155 -5.166539085740136e-16 -0.0007128474092795155 0.0033910408951612087" pbc="T T T"
Si       0.68538525       0.25790775       5.99821918
Si       0.68538525       1.58338547       4.30302750
Si       0.73006446       0.90695806       9.76338255
Si       0.73006446       0.93433515       0.53786414
Si       4.54732153      -0.68865367      10.07546270
Si       4.54732153       2.52994688       0.22578399
Si       4.50264233       1.85498176       5.68848748
Si       4.50264233      -0.01368854       4.61275921
8
Lattice="5.2390290868717635 -1.5833244788409155e-16 1.1164074116232742e-16 -1.5920124991385063e-17 3.191849340489852 -0.6194260773776703 -7.515171594286977e-17 -1.3454526283312036 10.910824133551841" Properties=species:S:1:pos:R:3 unique_starting_index=34 config_type=initial n_minim_iter=13 stress="0.0020007922912065076 3.7545310359797985e-16 -6.533413907358786e-16 3.7545310359797985e-16 0.0023781998852181463 -0.000689615271960739 -6.533413907358786e-16 -0.000689615271960739 -0.0016223060012664772" pbc="T T T"
Si       0.68494096       0.26053429       5.99326189
Si       0.68494096       1.58586243       4.29813616
Si       0.72924290       0.91292114       9.75314972
Si       0.72924290       0.93347558       0.53824833
Si       4.55408813      -0.68278856      10.06326127
Si       4.55408813       2.52918527       0.22813679
Si       4.50978619       1.85667393       5.68394736
Si       4.50978619      -0.01027722       4.60745069
8
Lattice="5.24245956330478 -1.6014788302485996e-16 1.1295709306574927e-16 -1.741445762115182e-17 3.1917404583481157 -0.6146431214803235 -7.114391379285167e-17 -1.329899602574802 10.907730883309434" Properties=species:S:1:pos:R:3 unique_starting_index=34 config_type=initial n_minim_iter=14 stress="-0.0008630715422363769 4.766887644016168e-16 -4.525506531692579e-16 4.766887644016168e-16 -0.0020297066721034636 0.00017754434605102358 -4.525506531692579e-16 0.00017754434605102358 -0.0016682899351700025" pbc="T T T"
Si       0.68410281       0.26721988       5.99363980
Si       0.68410281       1.59462098       4.29944796
Si       0.72772395       0.92953703       9.75337663
Si       0.72772395       0.93230383       0.53971113
Si       4.55835675      -0.66619905      10.06063496
Si       4.55835675       2.52803991       0.23245280
Si       4.51473561       1.86322426       5.68625501
Si       4.51473561      -0.00138340       4.60683275
8
Lattice="5.24409868149528 -1.6339550832817776e-16 1.1498874468218268e-16 -2.0029604797584026e-17 3.192817744406699 -0.60451696676896 -6.437227762974718e-17 -1.2982724752591437 10.897782948445512" Properties=species:S:1:pos:R:3 unique_starting_index=34 config_type=initial n_minim_iter=15 stress="-0.002384487068873891 8.076471274205755e-16 -1.9312877983119305e-16 8.076471274205755e-16 -0.006391992537813565 0.0012488121179295058 -1.9312877983119305e-16 0.0012488121179295058 0.00021327860783405776" pbc="T T T"
Si       0.68424309       0.28096816       5.99164810
Si       0.68424309       1.61357711       4.30161788
Si       0.72635229       0.96467617       9.74974089
Si       0.72635229       0.92986910       0.54352509
Si       4.55985559      -0.63196800      10.05276784
Si       4.55985559       2.52651327       0.24049815
Si       4.51774639       1.87714173       5.69015808
Si       4.51774639       0.01740354       4.60310790
8
Lattice="5.237774740205606 -1.6547089151925797e-16 1.1620972677155154e-16 -2.1537966829087864e-17 3.195910127322774 -0.6000576164084207 -6.033972313310022e-17 -1.28630520287506 10.889749860641032" Properties=species:S:1:pos:R:3 unique_starting_index=34 config_type=initial n_minim_iter=16 stress="-0.00222110449323279 -1.1892753765818137e-16 2.7966462538015547e-16 -1.1892753765818137e-16 -0.0014504005621677543 0.00048151869152810394 2.7966462538015547e-16 0.00048151869152810394 0.000728128547159856" pbc="T T T"
Si       0.68444637       0.28642398       5.98879507
Si       0.68444637       1.62318094       4.30089718
Si       0.72563166       0.98018042       9.74502886
Si       0.72563166       0.92942450       0.54466338
Si       4.55332837      -0.61792672      10.04580091
Si       4.55332837       2.52753165       0.24389133
Si       4.51214308       1.88422697       5.68950951
Si       4.51214308       0.02537796       4.60018274
8
Lattice="5.237922541729159 -1.6729977885085768e-16 1.1748475640323844e-16 -2.299420716657806e-17 3.1962019166317064 -0.5963283356819876 -5.636911772749434e-17 -1.2756832529551942 10.88081951634651" Properties=species:S:1:pos:R:3 unique_starting_index=34 config_type=initial n_minim_iter=17 stress="4.432996013277964e-07 1.8926788230518375e-16 2.6404037901834275e-16 1.8926788230518375e-16 0.00040172870790949173 3.652166004462411e-05 2.6404037901834275e-16 3.652166004462411e-05 -0.0001420142027456369" pbc="T T T"
Si       0.68602273       0.29075475       5.98547328
Si       0.68602273       1.62976392       4.29901790
Si       0.72630517       0.99188485       9.73917193
Si       0.72630517       0.92863381       0.54531925
Si       4.55189981      -0.60617867      10.03759182
Si       4.55189981       2.52669733       0.24689936
Si       4.51161737       1.88889315       5.68756484
Si       4.51161737       0.03162552       4.59692634
8
Lattice="5.238459787126946 -1.699681665510366e-16 1.1962974026654543e-16 -2.5063740108354408e-17 3.1959346407817755 -0.5959352858225675 -5.074197366254692e-17 -1.2741628785790926 10.881164911980365" Properties=species:S:1:pos:R:3 unique_starting_index=34 config_type=initial n_minim_iter=18 stress="2.0347044088001282e-05 2.9084636297807165e-16 -9.143222121736674e-17 2.9084636297807165e-16 -4.4945256478208125e-06 -0.00011344020124498603 -9.143222121736674e-17 -0.00011344020124498603 0.00034893339561768987" pbc="T T T"
Si       0.68643721       0.29129833       5.98599017
Si       0.68643721       1.63047344       4.29923946
Si       0.72602579       0.99339868       9.73992582
Si       0.72602579       0.92837308       0.54530380
Si       4.55202258      -0.60457532      10.03778955
Si       4.55202258       2.52634709       0.24744007
Si       4.51243399       1.88925897       5.68791861
Si       4.51243399       0.03251280       4.59731101
8
Lattice="5.241959244479259 -1.7225215647658976e-16 1.2151034428937244e-16 -2.6882948939612673e-17 3.1951947247917563 -0.5952680294120589 -4.576769782630835e-17 -1.2719906999159356 10.879095858703854" Properties=species:S:1:pos:R:3 unique_starting_index=34 config_type=initial n_minim_iter=19 stress="9.438729868010515e-05 4.568683949828019e-16 -1.0121487959741691e-17 4.568683949828019e-16 -0.0011395266855364706 0.00011869047230861604 -1.0121487959741691e-17 0.00011869047230861604 -0.0008780724773663537" pbc="T T T"
Si       0.68821528       0.29210950       5.98507962
Si       0.68821528       1.63109453       4.29874821
Si       0.72457098       0.99504939       9.73831432
Si       0.72457098       0.92815464       0.54551351
Si       4.55374396      -0.60249818      10.03593015
Si       4.55374396       2.52570221       0.24789768
Si       4.51738826       1.88975665       5.68742742
Si       4.51738826       0.03344738       4.59640041
8
Lattice="5.246518419180931 -1.7560176920965121e-16 1.243488809577871e-16 -2.9534534230570285e-17 3.1936556141536934 -0.5960112089120055 -3.8590031457158475e-17 -1.2731657662933102 10.882120867350183" Properties=species:S:1:pos:R:3 unique_starting_index=34 config_type=initial n_minim_iter=20 stress="0.0002192627340776569 4.984114201632384e-16 -2.320291710134692e-16 4.984114201632384e-16 -0.003917401619228618 0.0007081286727689947 -2.320291710134692e-16 0.0007081286727689947 -0.0009364889109335536" pbc="T T T"
Si       0.69690108       0.29149746       5.98646737
Si       0.69690108       1.62899239       4.29964229
Si       0.71649506       0.99243171       9.74038792
Si       0.71649506       0.92805814       0.54572174
Si       4.54961734      -0.60441830      10.03870832
Si       4.54961734       2.52490815       0.24740133
Si       4.53002336       1.88830306       5.68877657
Si       4.53002336       0.03218679       4.59733309
8
Lattice="5.244583549643913 -1.7664105531504107e-16 1.251524129258623e-16 -3.025665569285396e-17 3.1946847118909854 -0.596882134271921 -3.6648823298061807e-17 -1.2759670352356227 10.88513192422009" Properties=species:S:1:pos:R:3 unique_starting_index=34 config_type=initial n_minim_iter=21 stress="-0.0006769145493569029 4.742137127736302e-16 1.215194519485539e-16 4.742137127736302e-16 -0.0026364381628563903 0.0007077330118087588 1.215194519485539e-16 0.0007077330118087588 -5.75954329585352e-05" pbc="T T T"
Si       0.70249292       0.29052617       5.98755491
Si       0.70249292       1.62819151       4.30069488
Si       0.71025408       0.99021195       9.74272409
Si       0.71025408       0.92850573       0.54552570
Si       4.54209063      -0.60713437      10.04170191
Si       4.54209063       2.52585204       0.24654788
Si       4.53432947       1.88786457       5.68965059
Si       4.53432947       0.03085311       4.59859920
