12
Lattice="8.938005285209254 -1.0264699333568241 -0.05665526040520151 2.327420685971537 6.862550350183588 -0.4006213137999326 4.7378482924558645 -2.000139859070599 4.2224396200129295" Properties=species:S:1:pos:R:3 unique_starting_index=78 config_type=initial n_minim_iter=1 energy=-1960.1803250395192 free_energy=-1960.1803250395192 pbc="T T T"
Si       5.45402143       1.74323729       1.22963549
Si       8.85745061       1.51561568       1.77083699
Si      12.34942921       3.25960797       2.78588038
Si       7.14133705       0.46523044       1.20212486
Si       5.18756375       3.11794208       2.83074956
Si       8.87736188       4.93386708       3.87864833
Si       8.95907354       0.19037266       0.09616007
Si       8.78896161       2.82973308       3.45282209
Si       7.14403586      -0.69363270      -0.57966221
Si      10.47928520       0.98730562      -1.16555245
Si       6.98671838       1.98026226       2.69198403
Si       7.02312550       4.00040185       3.43392613
12
Lattice="8.94162768863998 -1.0272869138843261 -0.05556234886452239 2.3279259975375206 6.864559429673376 -0.3994250481442437 4.740433368093761 -2.000476392837982 4.223139207150334" Properties=species:S:1:pos:R:3 unique_starting_index=78 config_type=initial n_minim_iter=2 stress="0.0015815036624798496 -0.0003594768802561299 -0.0013008185392033831 -0.0003594768802561299 0.0012486933844770302 8.46396260281418e-05 -0.0013008185392033831 8.46396260281418e-05 0.0016266879111664328" pbc="T T T"
Si       5.45614069       1.74371811       1.23069558
Si       8.86118433       1.51585199       1.77239315
Si      12.35454583       3.26030581       2.78821657
Si       7.14437737       0.46505209       1.20325548
Si       5.18988983       3.11897705       2.83210606
Si       8.88113135       4.93557519       3.88078833
Si       8.96271824       0.18995361       0.09748311
Si       8.79280018       2.83049689       3.45463461
Si       7.14684189      -0.69424908      -0.57882345
Si      10.48335095       0.98699885      -1.16413605
Si       6.98978155       1.98085629       2.69346911
Si       7.02616621       4.00176554       3.43567530
12
Lattice="8.941066100937197 -1.0267181049770149 -0.049840790610425414 2.327957377348217 6.864387764711868 -0.39673454615915404 4.742825910947539 -1.9995185762915293 4.223860609387898" Properties=species:S:1:pos:R:3 unique_starting_index=78 config_type=initial n_minim_iter=3 stress="5.143289983692417e-05 0.00012286715214701406 0.00213817153730195 0.00012286715214701406 -0.0005258490797779813 0.00016037227408277445 0.00213817153730195 0.00016037227408277445 -0.0021597079582691982" pbc="T T T"
Si       5.45623673       1.74439759       1.23395187
Si       8.86206781       1.51656661       1.77756411
Si      12.35588080       3.26103925       2.79538382
Si       7.14493878       0.46518879       1.20733659
Si       5.19188383       3.11934177       2.83466783
Si       8.88302360       4.93707482       3.88522018
Si       8.96270105       0.19034194       0.10364794
Si       8.79461039       2.83070435       3.45884136
Si       7.14608708      -0.69356272      -0.57399299
Si      10.48262010       0.98803952      -1.15698794
Si       6.99130230       1.98153866       2.69726276
Si       7.02813621       4.00265026       3.43912878
12
Lattice="8.938936424330922 -1.0265039461012109 -0.052514764876296145 2.327743655840937 6.864914786082207 -0.3973609542985203 4.7404039544336944 -1.9993720968309145 4.224060244439307" Properties=species:S:1:pos:R:3 unique_starting_index=78 config_type=initial n_minim_iter=4 stress="-0.0007370321122626053 0.0003871726318883442 -8.845756263721004e-05 0.0003871726318883442 -0.00018368414704376915 9.80510667673243e-05 -8.845756263721004e-05 9.80510667673243e-05 7.358863363489126e-05" pbc="T T T"
Si       5.45401446       1.74503385       1.23312043
Si       8.85977716       1.51692652       1.77573814
Si      12.35228927       3.26120764       2.79300785
Si       7.14290316       0.46492736       1.20559554
Si       5.19034398       3.11954933       2.83468644
Si       8.87910893       4.93871011       3.88396382
Si       8.96101374       0.19021442       0.10167617
Si       8.79121254       2.83006831       3.45732418
Si       7.14463948      -0.69292965      -0.57651767
Si      10.48152243       0.98944132      -1.16116133
Si       6.98876578       1.98212230       2.69674533
Si       7.02533946       4.00347378       3.43854487
12
Lattice="8.94108387874382 -1.0287027090142191 -0.05244381675143004 2.3264567441968014 6.863629253568489 -0.3984790834160656 4.7418702568060445 -2.001082107494245 4.223872656311869" Properties=species:S:1:pos:R:3 unique_starting_index=78 config_type=initial n_minim_iter=5 stress="0.0008931204674793608 -0.0014474586376360705 -0.000713330214453647 -0.0014474586376360705 -0.001043453056145699 -0.0008854390232432639 -0.000713330214453647 -0.0008854390232432639 -0.0014463663428444585" pbc="T T T"
Si       5.45468159       1.74320303       1.23307432
Si       8.86141309       1.51395889       1.77511349
Si      12.35413924       3.25663496       2.79211158
Si       7.14381243       0.46287352       1.20519959
Si       5.19076788       3.11743424       2.83422522
Si       8.87951720       4.93537733       3.88215466
Si       8.96321621       0.18827624       0.10174188
Si       8.79208420       2.82625318       3.45628223
Si       7.14627501      -0.69427665      -0.57673676
Si      10.48373850       0.98704299      -1.16123429
Si       6.98952134       1.97983912       2.69582503
Si       7.02565346       4.00065979       3.43743204
12
Lattice="8.940504776073842 -1.027910087933444 -0.05014563276240453 2.3269531571973108 6.864831005420861 -0.39790552987210404 4.74252074604046 -2.0008015543700433 4.226541558563651" Properties=species:S:1:pos:R:3 unique_starting_index=78 config_type=initial n_minim_iter=6 stress="0.0001182380926995215 0.0003826349090763988 -0.0002393977808267091 0.0003826349090763988 0.0004050887856902361 6.393079830633151e-05 -0.0002393977808267091 6.393079830633151e-05 -0.0004348229345845918" pbc="T T T"
Si       5.45496328       1.74386225       1.23589162
Si       8.86191449       1.51469586       1.77797868
Si      12.35492008       3.25712484       2.79656412
Si       7.14271587       0.46393999       1.20721196
Si       5.19187559       3.11858575       2.83760705
Si       8.88034556       4.93734490       3.88481272
Si       8.96359688       0.19016906       0.10447520
Si       8.79240174       2.82634364       3.45972642
Si       7.14566492      -0.69293186      -0.57585865
Si      10.48345735       0.98862319      -1.15855188
Si       6.98974984       1.98137952       2.69802607
Si       7.02644490       4.00208781       3.44055665
12
Lattice="8.939636595087057 -1.030526320926147 -0.04563963802682727 2.324219972785812 6.862219707438825 -0.39735743056173695 4.744677977131435 -2.0019732733730904 4.232512132778944" Properties=species:S:1:pos:R:3 unique_starting_index=78 config_type=initial n_minim_iter=7 stress="-0.0005947064768865126 -0.0012490639280191074 0.0006068272072080139 -0.0012490639280191074 -0.0001684710944638326 0.00048167846542625096 0.0006068272072080139 0.00048167846542625096 0.0012368715390284465" pbc="T T T"
Si       5.45369116       1.74167629       1.24064803
Si       8.86127111       1.51099128       1.78412707
Si      12.35405842       3.25056571       2.80528683
Si       7.14169492       0.46134775       1.21107461
Si       5.19180122       3.11616715       2.84371772
Si       8.87951213       4.93270810       3.89075736
Si       8.96219203       0.18765911       0.10917313
Si       8.79153554       2.82169553       3.46710747
Si       7.14515697      -0.69410163      -0.57349795
Si      10.48184267       0.98540681      -1.15382896
Si       6.98959168       1.97885699       2.70279958
Si       7.02596439       3.99914035       3.44698915
12
Lattice="8.94167845103371 -1.0282292904218062 -0.04420106132121346 2.3264767321169173 6.862504013767216 -0.39842221852350423 4.745985850619855 -2.0015219787027463 4.233793832341141" Properties=species:S:1:pos:R:3 unique_starting_index=78 config_type=initial n_minim_iter=8 stress="0.001075232220493302 0.00041433354101233337 0.0005779554381010112 0.00041433354101233337 -0.00010543816197958312 -0.0009077756692357986 0.0005779554381010112 -0.0009077756692357986 0.00098082076729212" pbc="T T T"
Si       5.45519064       1.74286138       1.24202595
Si       8.86426914       1.51251826       1.78541254
Si      12.35868423       3.25184779       2.80676223
Si       7.14345681       0.46272879       1.21151599
Si       5.19446540       3.11678473       2.84485995
Si       8.88363591       4.93367650       3.89002717
Si       8.96423945       0.18999856       0.11046050
Si       8.79461426       2.82259313       3.46820253
Si       7.14717417      -0.69142232      -0.57293219
Si      10.48523299       0.98843491      -1.15239590
Si       6.99223557       1.98029912       2.70266821
Si       7.02926405       4.00041456       3.44753662
12
Lattice="8.940801784847807 -1.0285210910689335 -0.045549876881025964 2.326221965037738 6.863565674332655 -0.39602824422689187 4.745058780136525 -2.0003989442250845 4.230726853964093" Properties=species:S:1:pos:R:3 unique_starting_index=78 config_type=initial n_minim_iter=9 stress="-0.00017154470039565988 -0.0002565751327820869 1.9643438899805658e-05 -0.0002565751327820869 0.0014345457111386152 1.5107203983535075e-05 1.9643438899805658e-05 1.5107203983535075e-05 -0.00010313227217232035" pbc="T T T"
Si       5.45385401       1.74378373       1.24253658
Si       8.86330415       1.51308591       1.78456749
Si      12.35731843       3.25241433       2.80570445
Si       7.14220620       0.46302803       1.21000297
Si       5.19387650       3.11827693       2.84514923
Si       8.88234996       4.93567578       3.88780644
Si       8.96315154       0.18995349       0.10927638
Si       8.79286163       2.82398587       3.46714958
Si       7.14688032      -0.69111010      -0.57440274
Si      10.48491342       0.98826140      -1.15243407
Si       6.99118349       1.98194604       2.70048069
Si       7.02818430       4.00266624       3.44692700
12
Lattice="8.943165131075146 -1.0270413999091679 -0.0463232963877984 2.3276824244246734 6.860612542215286 -0.3939085694967608 4.745928817554274 -1.9975958163971268 4.229441945066464" Properties=species:S:1:pos:R:3 unique_starting_index=78 config_type=initial n_minim_iter=10 stress="0.0007405548373199635 0.00011477945054809439 1.2862332098561999e-05 0.00011477945054809439 -0.0005555825377266023 0.0008867647073297981 1.2862332098561999e-05 0.0008867647073297981 0.0003453478275300466" pbc="T T T"
Si       5.45482645       1.74409987       1.24329802
Si       8.86600834       1.51374124       1.78470418
Si      12.36109982       3.25286437       2.80620192
Si       7.14378930       0.46404124       1.20952515
Si       5.19586418       3.11834900       2.84639136
Si       8.88524397       4.93565457       3.88748309
Si       8.96575226       0.19075154       0.10860514
Si       8.79506598       2.82484653       3.46767974
Si       7.14883695      -0.68986364      -0.57562609
Si      10.48848358       0.98876354      -1.15229051
Si       6.99338097       1.98308684       2.69997194
Si       7.03043674       4.00285170       3.44763984
12
Lattice="8.943084868210985 -1.0265063508730214 -0.04606828524414665 2.3281659272151103 6.861556557923012 -0.3944431331836791 4.745850997869261 -1.9978755071776397 4.2288280292952996" Properties=species:S:1:pos:R:3 unique_starting_index=78 config_type=initial n_minim_iter=11 stress="0.00012790953439440294 3.66908049831039e-05 6.326031658205776e-05 3.66908049831039e-05 0.0001880022863369373 0.0002291448871630566 6.326031658205776e-05 0.0002291448871630566 0.00037932474297268766" pbc="T T T"
Si       5.45342723       1.74454903       1.24380683
Si       8.86639788       1.51373867       1.78481605
Si      12.36157031       3.25360165       2.80632018
Si       7.14323502       0.46462197       1.20892546
Si       5.19692020       3.11860884       2.84711087
Si       8.88575061       4.93656471       3.88421167
Si       8.96588375       0.19111374       0.10830945
Si       8.79452124       2.82554867       3.46759459
Si       7.14845172      -0.68897652      -0.57676378
Si      10.48940796       0.98965656      -1.15134875
Si       6.99451161       1.98441331       2.69854743
Si       7.03074122       4.00326407       3.44678852
12
Lattice="8.94195852512977 -1.0262080008751333 -0.045455711067716745 2.328238415293697 6.862983087871252 -0.39438927579826066 4.745437751353733 -1.9981427791696882 4.227546136292325" Properties=species:S:1:pos:R:3 unique_starting_index=78 config_type=initial n_minim_iter=12 stress="-7.862674358303978e-05 -3.591731730706669e-05 0.00011362607462390074 -3.591731730706669e-05 0.00015334738551859661 7.582902943241132e-05 0.00011362607462390074 7.582902943241132e-05 6.019409480444776e-05" pbc="T T T"
Si       5.45121908       1.74428309       1.24456359
Si       8.86647552       1.51301297       1.78489638
Si      12.36071565       3.25522911       2.80731906
Si       7.14146123       0.46583142       1.20777463
Si       5.19733881       3.11906309       2.84853954
Si       8.88558216       4.93847438       3.87981647
Si       8.96418545       0.19149493       0.10856912
Si       8.79370262       2.82677704       3.46814851
Si       7.14710649      -0.68834397      -0.57811007
Si      10.48986108       0.99109129      -1.14942922
Si       6.99438165       1.98458874       2.69696417
Si       7.02985193       4.00429610       3.44597830
12
Lattice="8.94214304196171 -1.025357068370842 -0.046510226641626656 2.329022736037725 6.863338756763087 -0.39520645198721216 4.744837299937344 -1.9981186725951332 4.2255836882333835" Properties=species:S:1:pos:R:3 unique_starting_index=78 config_type=initial n_minim_iter=13 stress="-5.133498318115374e-05 6.732842010103061e-05 -0.00018101266601016383 6.732842010103061e-05 -5.6270987736652284e-05 -0.00016387792010790273 -0.00018101266601016383 -0.00016387792010790273 -0.00012335717252155172" pbc="T T T"
Si       5.44982858       1.74385880       1.24408138
Si       8.86791875       1.51276491       1.78373736
Si      12.36102066       3.25671998       2.80558286
Si       7.14088124       0.46680136       1.20457625
Si       5.19695334       3.11885813       2.84819380
Si       8.88597887       4.94009300       3.87388393
Si       8.96447174       0.19228555       0.10621255
Si       8.79402642       2.82715934       3.46627547
Si       7.14759849      -0.68705480      -0.58004753
Si      10.49133538       0.99220686      -1.14907588
Si       6.99458008       1.98489576       2.69496051
Si       7.02978920       4.00482186       3.44370736
12
Lattice="8.94094960811885 -1.0243198920207135 -0.0471746905227592 2.32955996624229 6.86356224529728 -0.3958046057576628 4.743676498315441 -1.997877884938923 4.224031361948913" Properties=species:S:1:pos:R:3 unique_starting_index=78 config_type=initial n_minim_iter=14 stress="-0.00022459303194497535 0.00017215806782033388 -0.00020466993007157598 0.00017215806782033388 -0.0002950059229785267 -3.2305349367110284e-05 -0.00020466993007157598 -3.2305349367110284e-05 -0.00047802892650408236" pbc="T T T"
Si       5.44728906       1.74333209       1.24467804
Si       8.86811272       1.51279659       1.78425239
Si      12.35909123       3.25868668       2.80470482
Si       7.13924402       0.46837813       1.20296808
Si       5.19452833       3.11833793       2.84811173
Si       8.88576956       4.94194997       3.86764219
Si       8.96264958       0.19449849       0.10427581
Si       8.79330494       2.82739767       3.46443898
Si       7.14755548      -0.68627487      -0.58264239
Si      10.49215589       0.99348322      -1.14931400
Si       6.99401702       1.98539918       2.69412473
Si       7.02984652       4.00463435       3.44205026
12
Lattice="8.939191153126993 -1.0247683360732067 -0.04602639262167956 2.3286819481232874 6.863435333419672 -0.39734536886321653 4.74325701011362 -1.9991287966208742 4.226155773142324" Properties=species:S:1:pos:R:3 unique_starting_index=78 config_type=initial n_minim_iter=15 stress="-0.00010757494902344845 6.500600596957002e-05 4.612722126684636e-05 6.500600596957002e-05 -0.0003362639295485068 -0.00012118989587218866 4.612722126684636e-05 -0.00012118989587218866 -0.00026549918625205543" pbc="T T T"
Si       5.44522139       1.74246082       1.24632044
Si       8.86669914       1.51115965       1.78599734
Si      12.35592063       3.25789746       2.80634415
Si       7.13806714       0.46769201       1.20382651
Si       5.19324568       3.11668823       2.84932570
Si       8.88413559       4.94113428       3.86641062
Si       8.96108776       0.19477372       0.10469759
Si       8.79248938       2.82631514       3.46590934
Si       7.14659104      -0.68675040      -0.58277759
Si      10.49068948       0.99262111      -1.14901002
Si       6.99198958       1.98447415       2.69527507
Si       7.02867459       4.00334524       3.44290598
12
Lattice="8.937373388005888 -1.0257811768695866 -0.04632595200735961 2.327387764164314 6.863026201278701 -0.39886501577582817 4.742240043955607 -2.0004119519030206 4.227546905532144" Properties=species:S:1:pos:R:3 unique_starting_index=78 config_type=initial n_minim_iter=16 stress="0.00018469070639753172 -0.00016038370389452502 0.0002155365976906974 -0.00016038370389452502 0.00021757338604902414 5.001102450275327e-05 0.0002155365976906974 5.001102450275327e-05 7.582863322213615e-05" pbc="T T T"
Si       5.44283325       1.74035666       1.24753333
Si       8.86378793       1.50847383       1.78679345
Si      12.35153852       3.25649630       2.80607047
Si       7.13627855       0.46600343       1.20344040
Si       5.19060841       3.11576793       2.85083388
Si       8.88186935       4.94055618       3.86328549
Si       8.96018059       0.19459576       0.10370279
Si       8.79109910       2.82526541       3.46635973
Si       7.14538016      -0.68721686      -0.58328023
Si      10.48984259       0.99013384      -1.15159617
Si       6.99028781       1.98280551       2.69563498
Si       7.02596064       4.00233677       3.44327931
12
Lattice="8.93528533278998 -1.0259234374940185 -0.04670148230546593 2.326552466402918 6.861283532228797 -0.3987148137126984 4.741047598864327 -1.9999355514669388 4.228374903688949" Properties=species:S:1:pos:R:3 unique_starting_index=78 config_type=initial n_minim_iter=17 stress="0.00025045259180294494 -0.0002137830365363232 0.00023598273419810678 -0.0002137830365363232 0.0003953979833777965 0.00032616400361129214 0.00023598273419810678 0.00032616400361129214 0.0002952062846686237" pbc="T T T"
Si       5.44050317       1.73842103       1.24929327
Si       8.86126473       1.50648383       1.78788076
Si      12.34746993       3.25592775       2.80665796
Si       7.13457510       0.46514382       1.20271078
Si       5.18857655       3.11469855       2.85293774
Si       8.88048971       4.94055524       3.86110573
Si       8.95825110       0.19526805       0.10310114
Si       8.78914542       2.82516820       3.46733767
Si       7.14333320      -0.68648497      -0.58374102
Si      10.48888518       0.98790411      -1.15355963
Si       6.98815346       1.98240907       2.69708173
Si       7.02400849       4.00121843       3.44463990
12
Lattice="8.932395006888601 -1.0261099517403247 -0.04655148625059693 2.325345856363873 6.858772898972466 -0.401195396079085 4.739537441339413 -2.0008833692872816 4.23124546377425" Properties=species:S:1:pos:R:3 unique_starting_index=78 config_type=initial n_minim_iter=18 stress="0.00026967908118322506 -0.00023942461398852464 0.00020365824028917263 -0.00023942461398852464 0.000573035628133793 8.232802662564185e-05 0.00020365824028917263 8.232802662564185e-05 0.0006303986000089205" pbc="T T T"
Si       5.43617901       1.73431586       1.25348026
Si       8.85791054       1.50258780       1.79116308
Si      12.34190901       3.25419813       2.80732717
Si       7.13225408       0.46469113       1.20253917
Si       5.18533290       3.11124393       2.85609443
Si       8.87959998       4.94074171       3.85380509
Si       8.95558292       0.19613091       0.10127665
Si       8.78652991       2.82331321       3.46798303
Si       7.13981559      -0.68499551      -0.58523691
Si      10.48873774       0.98355116      -1.15682803
Si       6.98505621       1.97956474       2.69925898
Si       7.02163044       3.99925605       3.44685096
12
Lattice="8.927439404894319 -1.0234301831809773 -0.05122888326724842 2.3257446021238706 6.8538694446115835 -0.4035411770030134 4.734316167881469 -1.9989339101764747 4.22983337797272" Properties=species:S:1:pos:R:3 unique_starting_index=78 config_type=initial n_minim_iter=19 stress="-0.00011538378407071404 0.00022295773342079797 -0.00015561613869887372 0.00022295773342079797 0.0007008300257198585 -0.00028734615593100727 -0.00015561613869887372 -0.00028734615593100727 0.0001845939599197292" pbc="T T T"
Si       5.42678154       1.72907906       1.25848717
Si       8.85299549       1.49815678       1.79099323
Si      12.33280823       3.25493810       2.80116557
Si       7.12929982       0.46702510       1.19823712
Si       5.17900237       3.10911380       2.85885748
Si       8.87797956       4.94590752       3.83313393
Si       8.95055981       0.20218914       0.09413751
Si       8.78120120       2.82424017       3.46298825
Si       7.13548983      -0.68135530      -0.59216707
Si      10.49022162       0.97709237      -1.16578547
Si       6.97955577       1.97738505       2.69959857
Si       7.01611049       3.99853614       3.44640694
12
Lattice="8.92257095718067 -1.0208867199016478 -0.05830328677811888 2.325647810653515 6.844461338989379 -0.40646872249893523 4.72814109717495 -1.9960734109768126 4.227988176159163" Properties=species:S:1:pos:R:3 unique_starting_index=78 config_type=initial n_minim_iter=20 stress="-0.0006939795048800365 0.00036478433439425187 0.00017332719469734112 0.00036478433439425187 0.0004327659569709289 -0.000423574684749565 0.00017332719469734112 -0.000423574684749565 -0.0007403438683350588" pbc="T T T"
Si       5.41349862       1.71834611       1.26743008
Si       8.84741351       1.49023437       1.79194043
Si      12.32048740       3.25275208       2.79158223
Si       7.12497448       0.47011910       1.19213404
Si       5.17212927       3.10385243       2.86402035
Si       8.87422272       4.95204803       3.79867339
Si       8.94483755       0.21013300       0.08341860
Si       8.77530859       2.82536062       3.45591936
Si       7.13202524      -0.67502469      -0.60160823
Si      10.49666010       0.96314220      -1.17895110
Si       6.97339941       1.97100297       2.70159108
Si       7.01048170       3.99472517       3.44727237
12
Lattice="8.921992160054721 -1.0203706006071644 -0.060050479871316655 2.325698187086312 6.842094443824706 -0.4067324489212249 4.726995846734762 -1.9951527918273981 4.227471696744106" Properties=species:S:1:pos:R:3 unique_starting_index=78 config_type=initial n_minim_iter=21 stress="-0.000805607113191322 0.00041384560607235304 0.0002318967948493548 0.00041384560607235304 -3.482992481381422e-05 -0.00014971789597457928 0.0002318967948493548 -0.00014971789597457928 -0.0010135735442082417" pbc="T T T"
Si       5.41106557       1.71609041       1.26941102
Si       8.84644413       1.48893701       1.79215491
Si      12.31882245       3.25205559       2.78934849
Si       7.12431722       0.47057434       1.19074027
Si       5.17114903       3.10283108       2.86503010
Si       8.87350125       4.95329714       3.79139523
Si       8.94391792       0.21180563       0.08113886
Si       8.77458574       2.82572889       3.45436212
Si       7.13138820      -0.67384088      -0.60353605
Si      10.49859563       0.95979054      -1.18185426
Si       6.97235597       1.96956791       2.70214296
Si       7.00938242       3.99380455       3.44762913
