16
Lattice="5.455416355124241 0.30768572072544076 0.389317937787475 2.1243803371583643 6.640108177397148 -0.3220059847421219 1.1052306839872652 0.34442420258815115 9.982489003375532" Properties=species:S:1:pos:R:3 unique_starting_index=92 config_type=initial n_minim_iter=1 energy=-2616.026774691252 free_energy=-2616.026774691252 pbc="T T T"
Si       3.00799561       7.25230904       4.28577615
Si       0.48541678       0.45840998       0.41216854
Si       3.28769715       5.39073447       5.25434278
Si       3.12075856       3.53528488       4.26378765
Si       7.77368774       4.43668841       8.83485340
Si       4.13382255       3.20880445       7.93954451
Si       4.81195449       2.22910521       4.31039084
Si       3.10049489       5.40284500       3.16119124
Si       3.75356434       5.17682084       7.25502058
Si       2.77203718       2.21867483       9.31469191
Si       4.49033091       3.67256396       5.88267694
Si       3.77839442       5.44714206       9.30716389
Si       5.93357706       0.96656620       2.92067511
Si       2.45192402       3.75960994       6.35257880
Si       7.47952924       5.75923615       1.70758792
Si       2.07382904       1.50063349       1.39892723
16
Lattice="5.455418741560284 0.30768784417979006 0.38927832073174995 2.124389945569139 6.64013319492968 -0.3220783904101273 1.1051529394163984 0.34434995475038993 9.982629932179165" Properties=species:S:1:pos:R:3 unique_starting_index=92 config_type=initial n_minim_iter=2 stress="5.0116933842986926e-05 1.1762714389485909e-05 1.6793124944827904e-05 1.1762714389485909e-05 7.613559265896616e-05 -1.3758845087378293e-05 1.6793124944827904e-05 -1.3758845087378293e-05 0.0001107774641696215" pbc="T T T"
Si       3.00797245       7.25230349       4.28576925
Si       0.48541701       0.45840700       0.41216154
Si       3.28765586       5.39072082       5.25435235
Si       3.12072751       3.53526892       4.26379978
Si       7.77362677       4.43663834       8.83489008
Si       4.13377245       3.20875837       7.93960014
Si       4.81192494       2.22908655       4.31040485
Si       3.10047504       5.40283718       3.16117135
Si       3.75351599       5.17678884       7.25506220
Si       2.77196682       2.21860938       9.31479548
Si       4.49029586       3.67252793       5.88270951
Si       3.77832718       5.44709482       9.30723389
Si       5.93355842       0.96654559       2.92066537
Si       2.45187705       3.75957167       6.35263279
Si       7.47952388       5.75924843       1.70751163
Si       2.07382811       1.50062917       1.39892198
16
Lattice="5.45534811379107 0.307670024670681 0.3891700503585738 2.1243603952120473 6.640038123849476 -0.32218893884554534 1.1049481547022229 0.34423777062570127 9.98259576492411" Properties=species:S:1:pos:R:3 unique_starting_index=92 config_type=initial n_minim_iter=3 stress="6.891486437798392e-06 4.6536595465586734e-05 -9.794247899182493e-05 4.6536595465586734e-05 -3.782849649015849e-05 -9.44084028332982e-05 -9.794247899182493e-05 -9.44084028332982e-05 7.13043815941211e-05" pbc="T T T"
Si       3.00784964       7.25215438       4.28564809
Si       0.48541144       0.45839105       0.41213229
Si       3.28748744       5.39060257       5.25421791
Si       3.12059605       3.53517719       4.26369609
Si       7.77335681       4.43646077       8.83467546
Si       4.13358494       3.20862767       7.93945356
Si       4.81177874       2.22901084       4.31029501
Si       3.10036404       5.40271221       3.16104562
Si       3.75332885       5.17664061       7.25493064
Si       2.77174971       2.21846470       9.31471198
Si       4.49013659       3.67238811       5.88259826
Si       3.77809190       5.44692307       9.30709408
Si       5.93342985       0.96647491       2.92053847
Si       2.45171601       3.75943823       6.35255578
Si       7.47938653       5.75914032       1.70730677
Si       2.07379196       1.50058834       1.39886904
16
Lattice="5.4552645337114765 0.3075692001632641 0.3891815407263081 2.124199759226614 6.640027950136201 -0.3221151559425906 1.104939926026441 0.34432477324450544 9.982610462909564" Properties=species:S:1:pos:R:3 unique_starting_index=92 config_type=initial n_minim_iter=4 stress="-4.097114480971155e-05 -5.317219341277558e-05 -2.3723495794629087e-06 -5.317219341277558e-05 -7.310721806030518e-05 5.716114060992041e-06 -2.3723495794629087e-06 5.716114060992041e-06 -1.1443752542475896e-05" pbc="T T T"
Si       3.00768620       7.25219567       4.28577212
Si       0.48541565       0.45838176       0.41210508
Si       3.28729255       5.39066398       5.25426696
Si       3.12046519       3.53520271       4.26373398
Si       7.77316241       4.43640771       8.83471899
Si       4.13351683       3.20865788       7.93944405
Si       4.81166730       2.22900008       4.31034590
Si       3.10020680       5.40269048       3.16109816
Si       3.75319502       5.17669951       7.25500467
Si       2.77167441       2.21849906       9.31475076
Si       4.49003811       3.67234264       5.88269741
Si       3.77793182       5.44699588       9.30716988
Si       5.93332797       0.96636234       2.92055783
Si       2.45160400       3.75945575       6.35263507
Si       7.47914630       5.75905271       1.70737874
Si       2.07377355       1.50056655       1.39890343
16
Lattice="5.455287175241687 0.3076387137496942 0.38917149337494483 2.124285941706661 6.640146386701646 -0.32209894885106016 1.10493653227484 0.34436507983611475 9.9824943143088" Properties=species:S:1:pos:R:3 unique_starting_index=92 config_type=initial n_minim_iter=5 stress="1.1512840599934204e-05 -4.66435770420542e-06 -6.6540217562557056e-06 -4.66435770420542e-06 1.8362527283069896e-05 4.569853929588267e-06 -6.6540217562557056e-06 4.569853929588267e-06 -7.048160780861014e-05" pbc="T T T"
Si       3.00777868       7.25235873       4.28573766
Si       0.48542851       0.45839251       0.41209361
Si       3.28734074       5.39079624       5.25421439
Si       3.12050816       3.53530753       4.26369253
Si       7.77322911       4.43657153       8.83461196
Si       4.13357549       3.20877299       7.93934015
Si       4.81170511       2.22910483       4.31030356
Si       3.10027346       5.40280334       3.16106650
Si       3.75326746       5.17684325       7.25493084
Si       2.77170067       2.21857951       9.31464205
Si       4.49009755       3.67244844       5.88263960
Si       3.77799468       5.44714534       9.30707028
Si       5.93336034       0.96644251       2.92052211
Si       2.45164558       3.75954402       6.35257024
Si       7.47922792       5.75922921       1.70735854
Si       2.07381098       1.50061241       1.39889627
16
Lattice="5.455220365108274 0.3077101414915996 0.38920390818679357 2.1243434395655347 6.6401099294960675 -0.3220489572218643 1.1049749398450364 0.34444079804994765 9.982600948585146" Properties=species:S:1:pos:R:3 unique_starting_index=92 config_type=initial n_minim_iter=6 stress="-3.5472111217628404e-05 5.025789308039192e-05 1.1813347967130995e-05 5.025789308039192e-05 -5.587003976437853e-05 4.541415885140181e-05 1.1813347967130995e-05 4.541415885140181e-05 7.070670561566329e-06" pbc="T T T"
Si       3.00785559       7.25239486       4.28583851
Si       0.48544380       0.45839303       0.41209420
Si       3.28734675       5.39081914       5.25432660
Si       3.12052667       3.53536028       4.26378797
Si       7.77322553       4.43666888       8.83476641
Si       4.13362801       3.20885571       7.93944814
Si       4.81169107       2.22918612       4.31039994
Si       3.10031034       5.40280248       3.16114342
Si       3.75333009       5.17689827       7.25506066
Si       2.77174376       2.21865109       9.31475233
Si       4.49012398       3.67249334       5.88273895
Si       3.77805080       5.44721546       9.30721476
Si       5.93332249       0.96651482       2.92058782
Si       2.45169247       3.75957214       6.35265881
Si       7.47918675       5.75929167       1.70743340
Si       2.07383087       1.50062288       1.39895172
16
Lattice="5.455184583516357 0.307653438300982 0.38920613646038954 2.1242640930385104 6.64011937592031 -0.3221087662714725 1.1049765481749954 0.3443359877861125 9.982566635663371" Properties=species:S:1:pos:R:3 unique_starting_index=92 config_type=initial n_minim_iter=7 stress="-7.793662513778523e-05 -3.211431775179196e-06 1.4857094610358568e-05 -3.211431775179196e-06 1.2030545843622483e-05 -1.694466926068367e-05 1.4857094610358568e-05 -1.694466926068367e-05 -1.823171632544265e-05" pbc="T T T"
Si       3.00777483       7.25240308       4.28575044
Si       0.48545832       0.45838455       0.41208397
Si       3.28721164       5.39074949       5.25427841
Si       3.12046651       3.53532895       4.26377039
Si       7.77314671       4.43650151       8.83470487
Si       4.13361839       3.20875423       7.93939132
Si       4.81164325       2.22912123       4.31038904
Si       3.10022932       5.40275123       3.16107930
Si       3.75327028       5.17682218       7.25499657
Si       2.77172668       2.21853731       9.31469235
Si       4.49007748       3.67238797       5.88267504
Si       3.77796755       5.44712246       9.30713199
Si       5.93330340       0.96641112       2.92057652
Si       2.45165191       3.75949494       6.35259037
Si       7.47904915       5.75923507       1.70735896
Si       2.07383006       1.50057575       1.39896372
16
Lattice="5.455335267174592 0.3076230790416728 0.3891786704234181 2.124290485691819 6.640038615629027 -0.32208762483861153 1.1049531073048073 0.3443751906663701 9.982560784062981" Properties=species:S:1:pos:R:3 unique_starting_index=92 config_type=initial n_minim_iter=8 stress="5.0450526953721746e-05 -1.30981534235539e-05 1.0051389392348097e-05 -1.30981534235539e-05 -2.827482850782404e-05 7.653969129883412e-06 1.0051389392348097e-05 7.653969129883412e-06 8.039308280675231e-07" pbc="T T T"
Si       3.00780757       7.25235902       4.28576689
Si       0.48548687       0.45838230       0.41208516
Si       3.28718767       5.39070608       5.25429601
Si       3.12050138       3.53531824       4.26379169
Si       7.77330105       4.43643897       8.83468388
Si       4.13370731       3.20874196       7.93938542
Si       4.81174208       2.22910331       4.31038317
Si       3.10026017       5.40268873       3.16108369
Si       3.75331272       5.17678245       7.25500270
Si       2.77175664       2.21853974       9.31467975
Si       4.49016192       3.67234728       5.88265499
Si       3.77798100       5.44709592       9.30712936
Si       5.93346912       0.96636597       2.92054975
Si       2.45167409       3.75946997       6.35258334
Si       7.47918853       5.75915303       1.70732897
Si       2.07389488       1.50053974       1.39897806
16
Lattice="5.455274607674458 0.3076777856458196 0.38910644643000114 2.1243258375609675 6.640166389104289 -0.32202218413511435 1.1048019742599995 0.3445351941111711 9.982576419681305" Properties=species:S:1:pos:R:3 unique_starting_index=92 config_type=initial n_minim_iter=9 stress="2.2082866154864103e-06 -2.2262976167481918e-05 -3.4505936732314e-05 -2.2262976167481918e-05 5.712297029573626e-05 5.8721055464524963e-05 -3.4505936732314e-05 5.8721055464524963e-05 3.9739704078785895e-05" pbc="T T T"
Si       3.00780376       7.25259708       4.28584776
Si       0.48553348       0.45842772       0.41210628
Si       3.28696981       5.39094376       5.25435360
Si       3.12041013       3.53550337       4.26385769
Si       7.77315263       4.43667171       8.83465026
Si       4.13364846       3.20894582       7.93942147
Si       4.81163674       2.22925641       4.31035866
Si       3.10019489       5.40285482       3.16111116
Si       3.75320337       5.17698787       7.25503603
Si       2.77165610       2.21871749       9.31469255
Si       4.49007297       3.67254417       5.88263527
Si       3.77781244       5.44734531       9.30715379
Si       5.93341664       0.96644050       2.92048311
Si       2.45161243       3.75963845       6.35260670
Si       7.47904851       5.75935205       1.70727190
Si       2.07390851       1.50055795       1.39900354
16
Lattice="5.455302960213566 0.30785137091307835 0.38925406108831306 2.124542707154156 6.640233958005772 -0.3221212809954503 1.1051019894061032 0.3443287735236725 9.982554560680564" Properties=species:S:1:pos:R:3 unique_starting_index=92 config_type=initial n_minim_iter=10 stress="1.3042822670778286e-05 -2.740784155563752e-07 -5.82671730308809e-05 -2.740784155563752e-07 6.175412082813803e-05 -9.101153978439622e-05 -5.82671730308809e-05 -9.101153978439622e-05 8.216689464395547e-05" pbc="T T T"
Si       3.00823667       7.25262402       4.28574820
Si       0.48566034       0.45846697       0.41214157
Si       3.28702193       5.39099531       5.25431746
Si       3.12059456       3.53555788       4.26390992
Si       7.77361511       4.43664836       8.83469420
Si       4.13412369       3.20888447       7.93948020
Si       4.81182040       2.22932956       4.31040714
Si       3.10041155       5.40288571       3.16102634
Si       3.75357348       5.17687693       7.25496225
Si       2.77209327       2.21854360       9.31467419
Si       4.49040476       3.67258491       5.88263449
Si       3.77819167       5.44722695       9.30705280
Si       5.93361562       0.96651322       2.92061277
Si       2.45197227       3.75954108       6.35254724
Si       7.47914687       5.75958140       1.70726405
Si       2.07408510       1.50050824       1.39906764
16
Lattice="5.455295963967694 0.30803032574673245 0.38937933632110633 2.124743310431756 6.640312605625394 -0.3220840254755451 1.1053397480054474 0.34434642891374867 9.982559590196773" Properties=species:S:1:pos:R:3 unique_starting_index=92 config_type=initial n_minim_iter=11 stress="3.486717070948251e-05 3.596782686103297e-05 3.711737534914466e-05 3.596782686103297e-05 1.7843131632917523e-05 -1.3262919497846483e-05 3.711737534914466e-05 -1.3262919497846483e-05 2.7974561697680603e-05" pbc="T T T"
Si       3.00862428       7.25282803       4.28575576
Si       0.48581305       0.45847329       0.41216418
Si       3.28696331       5.39116553       5.25442929
Si       3.12073794       3.53571953       4.26404947
Si       7.77399565       4.43684478       8.83485615
Si       4.13452471       3.20898343       7.93958135
Si       4.81197047       2.22948230       4.31042017
Si       3.10054936       5.40301356       3.16100886
Si       3.75385311       5.17690387       7.25496017
Si       2.77250236       2.21856215       9.31475983
Si       4.49065513       3.67282115       5.88273043
Si       3.77845858       5.44733888       9.30709495
Si       5.93374124       0.96662918       2.92080313
Si       2.45229824       3.75957604       6.35257923
Si       7.47921606       5.75991168       1.70742155
Si       2.07426782       1.50048470       1.39909498
16
Lattice="5.455271176515869 0.3080824615293769 0.3893263529689826 2.124795592337399 6.64038249128401 -0.3220740905717666 1.1052437152305474 0.3444005424212675 9.982479717329667" Properties=species:S:1:pos:R:3 unique_starting_index=92 config_type=initial n_minim_iter=12 stress="-5.532637214888687e-05 -1.2908620534165507e-05 -5.2662388538057744e-05 -1.2908620534165507e-05 -2.7733041384585443e-05 -2.7383786495711106e-05 -5.2662388538057744e-05 -2.7383786495711106e-05 -5.642604363148385e-05" pbc="T T T"
Si       3.00871740       7.25304677       4.28572398
Si       0.48592712       0.45840189       0.41217814
Si       3.28661433       5.39134450       5.25443130
Si       3.12069553       3.53583957       4.26405661
Si       7.77396345       4.43691434       8.83478892
Si       4.13459074       3.20907434       7.93951083
Si       4.81189494       2.22957012       4.31024559
Si       3.10045554       5.40309525       3.16093326
Si       3.75380927       5.17695985       7.25485103
Si       2.77257503       2.21861728       9.31471941
Si       4.49062844       3.67301051       5.88268189
Si       3.77832585       5.44749889       9.30702309
Si       5.93377141       0.96669100       2.92069889
Si       2.45225716       3.75952470       6.35252262
Si       7.47910656       5.76010958       1.70736211
Si       2.07431842       1.50041232       1.39905781
16
Lattice="5.455331783563853 0.30815346948981953 0.3894147601743521 2.1248956513151516 6.640423382987214 -0.3220398251735031 1.1054189656544933 0.34441638587033463 9.982513177777216" Properties=species:S:1:pos:R:3 unique_starting_index=92 config_type=initial n_minim_iter=13 stress="3.182373395335765e-05 3.987508000660749e-05 2.8879406442309732e-05 3.987508000660749e-05 -1.4079479533748698e-06 7.764116942041724e-06 2.8879406442309732e-05 7.764116942041724e-06 5.095204142632725e-06" pbc="T T T"
Si       3.00896800       7.25317895       4.28578031
Si       0.48602948       0.45837541       0.41217275
Si       3.28656571       5.39146371       5.25452018
Si       3.12086873       3.53591262       4.26414725
Si       7.77428063       4.43698119       8.83493898
Si       4.13484614       3.20911971       7.93957028
Si       4.81198768       2.22966114       4.31027689
Si       3.10054304       5.40314135       3.16099527
Si       3.75399401       5.17697720       7.25490908
Si       2.77287784       2.21864116       9.31480821
Si       4.49082183       3.67311420       5.88272057
Si       3.77855551       5.44756987       9.30707730
Si       5.93393135       0.96679489       2.92076544
Si       2.45241615       3.75946723       6.35263268
Si       7.47923857       5.76028066       1.70752603
Si       2.07441121       1.50036739       1.39908394
16
Lattice="5.4553108024624635 0.3081254971941783 0.3893996693142188 2.1248539124217922 6.640405985700277 -0.3220202926082377 1.1053813376105897 0.3444513168565775 9.982541589625484" Properties=species:S:1:pos:R:3 unique_starting_index=92 config_type=initial n_minim_iter=14 stress="2.123777198669462e-05 1.4826216046986995e-05 4.405693387900867e-06 1.4826216046986995e-05 4.363851180230799e-06 2.348070825101965e-05 4.405693387900867e-06 2.348070825101965e-05 3.270963410120763e-05" pbc="T T T"
Si       3.00896634       7.25330946       4.28576480
Si       0.48614692       0.45836298       0.41210315
Si       3.28610650       5.39156057       5.25460217
Si       3.12083550       3.53596389       4.26415411
Si       7.77426889       4.43689030       8.83499543
Si       4.13487937       3.20911977       7.93956283
Si       4.81191628       2.22965277       4.31020949
Si       3.10041254       5.40314135       3.16109790
Si       3.75386124       5.17692759       7.25492173
Si       2.77297428       2.21864697       9.31485257
Si       4.49082554       3.67315865       5.88269810
Si       3.77847332       5.44754707       9.30707866
Si       5.93392165       0.96683916       2.92078706
Si       2.45234227       3.75931391       6.35276375
Si       7.47909263       5.76029914       1.70755589
Si       2.07451482       1.50027501       1.39907824
