16
Lattice="6.280988389384695 1.1275265590115534e-32 1.763528691482151e-32 -1.2650742288450886e-32 7.047210089713187 1.123826349420748e-16 -2.1741836761268163e-32 -1.234876947070587e-16 7.743578254269927" Properties=species:S:1:pos:R:3 unique_starting_index=48 config_type=initial n_minim_iter=1 energy=-2605.1483132543635 free_energy=-2605.1483132543635 pbc="T T T"
Si       4.10431591       4.07463156       4.70086612
Si       2.17667248       2.97257853       4.70086612
Si       2.17667248       4.07463156       0.82907700
Si       4.10431591       2.97257853       0.82907700
Si       3.70115436       6.14817524       5.00392791
Si       2.57983403       0.89903485       5.00392791
Si       2.57983403       6.14817524       1.13213879
Si       3.70115436       0.89903485       1.13213879
Si       5.15421162       4.49335214       6.98955355
Si       1.12677677       2.55385795       6.98955355
Si       1.12677677       4.49335214       3.11776443
Si       5.15421162       2.55385795       3.11776443
Si       2.50905301       6.19493856       3.25076910
Si       3.77193538       0.85227153       3.25076910
Si       3.77193538       6.19493856       7.12255823
Si       2.50905301       0.85227153       7.12255823
16
Lattice="6.1919970666710515 1.1129789290955106e-32 1.7440658069759603e-32 -1.2561869221192787e-32 7.006625107158355 1.467488978544373e-16 -2.1532810891406785e-32 -8.421392908709799e-17 7.693384688005799" Properties=species:S:1:pos:R:3 unique_starting_index=48 config_type=initial n_minim_iter=2 stress="-0.02317581020592383 -2.363291213966086e-16 -4.490419618373281e-18 -2.363291213966086e-16 -0.0716462404856476 -9.982868058994674e-16 -4.490419618373281e-18 -9.982868058994674e-16 -0.05704389860951549" pbc="T T T"
Si       4.06211546       4.05670761       4.67511765
Si       2.12988160       2.94991750       4.67511765
Si       2.12988160       4.05670761       0.82842530
Si       4.06211546       2.94991750       0.82842530
Si       3.65777370       6.11570812       4.97371772
Si       2.53422337       0.89091698       4.97371772
Si       2.53422337       6.11570812       1.12702537
Si       3.65777370       0.89091698       1.12702537
Si       5.08885677       4.44564531       6.93619782
Si       1.10314030       2.56097979       6.93619782
Si       1.10314030       4.44564531       3.08950548
Si       5.08885677       2.56097979       3.08950548
Si       2.47106785       6.15606445       3.23080005
Si       3.72092922       0.85056066       3.23080005
Si       3.72092922       6.15606445       7.07749239
Si       2.47106785       0.85056066       7.07749239
16
Lattice="5.972780538681149 1.0718400957532062e-32 1.6766659176531585e-32 -1.270950194157794e-32 7.077826167577849 1.4288734053164497e-16 -2.1647805225045217e-32 -8.983391280227107e-17 7.7088801598546715" Properties=species:S:1:pos:R:3 unique_starting_index=48 config_type=initial n_minim_iter=3 stress="-0.00086656594177649 -2.2178055935148795e-16 1.1923685986639138e-17 -2.2178055935148795e-16 0.014597801729467596 -5.042015788635978e-16 1.1923685986639138e-17 -5.042015788635978e-16 -0.06810998684615312" pbc="T T T"
Si       3.96839674       4.11404079       4.69959452
Si       2.00438380       2.96378537       4.69959452
Si       2.00438380       4.11404079       0.84515444
Si       3.96839674       2.96378537       0.84515444
Si       3.55741854       6.18856597       4.99105332
Si       2.41536200       0.88926020       4.99105332
Si       2.41536200       6.18856597       1.13661324
Si       3.55741854       0.88926020       1.13661324
Si       4.93266213       4.41925142       6.92408142
Si       1.04011841       2.65857475       6.92408142
Si       1.04011841       4.41925142       3.06964134
Si       4.93266213       2.65857475       3.06964134
Si       2.37438670       6.20671206       3.24101564
Si       3.59839384       0.87111411       3.24101564
Si       3.59839384       6.20671206       7.09545572
Si       2.37438670       0.87111411       7.09545572
16
Lattice="5.857103515189929 1.0531237108518164e-32 1.638999424617005e-32 -1.2635759244163402e-32 7.04940497838787 1.247032075698616e-16 -2.199587758685147e-32 -1.114498398545031e-16 7.810828038181964" Properties=species:S:1:pos:R:3 unique_starting_index=48 config_type=initial n_minim_iter=4 stress="0.005157804274864917 -3.0561064238721634e-16 7.780118859984331e-16 -3.0561064238721634e-16 -0.032568706066308496 -7.855854530302762e-16 7.780118859984331e-16 -7.855854530302762e-16 0.04501322257742038" pbc="T T T"
Si       3.91577515       4.10558165       4.76951629
Si       1.94132837       2.94382333       4.76951629
Si       1.94132837       4.10558165       0.86410227
Si       3.91577515       2.94382333       0.86410227
Si       3.50348577       6.16857312       5.06050240
Si       2.35361774       0.88083186       5.06050240
Si       2.35361774       6.16857312       1.15508838
Si       3.50348577       0.88083186       1.15508838
Si       4.84874391       4.36578521       7.00251027
Si       1.00835960       2.68361977       7.00251027
Si       1.00835960       4.36578521       3.09709625
Si       4.84874391       2.68361977       3.09709625
Si       2.32390196       6.17636618       3.28580286
Si       3.53320155       0.87303879       3.28580286
Si       3.53320155       6.17636618       7.19121688
Si       2.32390196       0.87303879       7.19121688
16
Lattice="5.742147140090336 1.0391976014190875e-32 1.6360432035461293e-32 -1.2603241177811998e-32 7.073716742940451 1.35193876714841e-16 -2.1644979176906844e-32 -1.0056669598134308e-16 7.815238198456289" Properties=species:S:1:pos:R:3 unique_starting_index=48 config_type=initial n_minim_iter=5 stress="-0.013209654252164017 -9.985093617798727e-17 -6.295330477071002e-18 -9.985093617798727e-17 -0.01732689220390624 -6.416865329336678e-16 -6.295330477071002e-18 -6.416865329336678e-16 0.017923294898637518" pbc="T T T"
Si       3.84721438       4.11687537       4.77607236
Si       1.89493276       2.95684138       4.77607236
Si       1.89493276       4.11687537       0.86845326
Si       3.84721438       2.95684138       0.86845326
Si       3.44275399       6.19370279       5.06526100
Si       2.29939315       0.88001396       5.06526100
Si       2.29939315       6.19370279       1.15764191
Si       3.44275399       0.88001396       1.15764191
Si       4.75708621       4.36473005       7.00139971
Si       0.98506093       2.70898669       7.00139971
Si       0.98506093       4.36473005       3.09378061
Si       4.75708621       2.70898669       3.09378061
Si       2.27833910       6.19551260       3.28695798
Si       3.46380804       0.87820414       3.28695798
Si       3.46380804       6.19551260       7.19457708
Si       2.27833910       0.87820414       7.19457708
16
Lattice="5.732819788119715 1.0417147641452435e-32 1.6531447559882956e-32 -1.2550098313442185e-32 7.070263374328717 1.7941507892366155e-16 -2.1370738287868425e-32 -5.1618867618661796e-17 7.804132677667245" Properties=species:S:1:pos:R:3 unique_starting_index=48 config_type=initial n_minim_iter=6 stress="-0.004991943840519878 1.4741137396843207e-17 4.1871849796271297e-16 1.4741137396843207e-17 -0.006874675780608468 -7.452171423296985e-16 4.1871849796271297e-16 -7.452171423296985e-16 -0.005432297200789655" pbc="T T T"
Si       3.84502491       4.11379919       4.77182428
Si       1.88779488       2.95646419       4.77182428
Si       1.88779488       4.11379919       0.86975794
Si       3.84502491       2.95646419       0.86975794
Si       3.44250111       6.19149968       5.06010867
Si       2.29031868       0.87876369       5.06010867
Si       2.29031868       6.19149968       1.15804233
Si       3.44250111       0.87876369       1.15804233
Si       4.75092809       4.35381079       6.98883004
Si       0.98189169       2.71645258       6.98883004
Si       0.98189169       4.35381079       3.08676370
Si       4.75092809       2.71645258       3.08676370
Si       2.27376116       6.18894081       3.28032359
Si       3.45905863       0.88132257       3.28032359
Si       3.45905863       6.18894081       7.18238993
Si       2.27376116       0.88132257       7.18238993
16
Lattice="5.742755135944426 1.0465393792060407e-32 1.6718492162208704e-32 -1.24995874155341e-32 7.061372776764233 2.1529373236754997e-16 -2.1114385521893994e-32 -1.1589553701983016e-17 7.78362636837984" Properties=species:S:1:pos:R:3 unique_starting_index=48 config_type=initial n_minim_iter=7 stress="-0.007573242956490587 -1.6764693954070098e-16 7.377696421434467e-16 -1.6764693954070098e-16 0.002965763353363093 -1.120636033310618e-15 7.377696421434467e-16 -1.120636033310618e-15 -0.015098296973395185" pbc="T T T"
Si       3.85940278       4.10607670       4.76547018
Si       1.88335235       2.95529608       4.76547018
Si       1.88335235       4.10607670       0.87365699
Si       3.85940278       2.95529608       0.87365699
Si       3.45808769       6.18476204       5.04164024
Si       2.28466744       0.87661074       5.04164024
Si       2.28466744       6.18476204       1.14982705
Si       3.45808769       0.87661074       1.14982705
Si       4.76162965       4.33018882       6.96526673
Si       0.98112548       2.73118395       6.96526673
Si       0.98112548       4.33018882       3.07345354
Si       4.76162965       2.73118395       3.07345354
Si       2.28044246       6.17306602       3.27589139
Si       3.46231268       0.88830675       3.27589139
Si       3.46231268       6.17306602       7.16770457
Si       2.28044246       0.88830675       7.16770457
16
Lattice="5.810791204224246 1.0578291574007962e-32 1.6980736248942512e-32 -1.2465550898632175e-32 7.038210947324449 2.312439334857433e-16 -2.0965287767901286e-32 6.487672205603689e-18 7.765573071149273" Properties=species:S:1:pos:R:3 unique_starting_index=48 config_type=initial n_minim_iter=8 stress="0.002375849960670968 8.324231747355585e-17 1.7656984590401286e-15 8.324231747355585e-17 0.011056714417471197 -5.41140608709982e-16 1.7656984590401286e-15 -5.41140608709982e-16 -0.014579941986865498" pbc="T T T"
Si       3.91190388       4.08569707       4.76146560
Si       1.89888732       2.95251387       4.76146560
Si       1.89888732       4.08569707       0.87867907
Si       3.91190388       2.95251387       0.87867907
Si       3.51130836       6.16830614       5.02664007
Si       2.29948284       0.86990480       5.02664007
Si       2.29948284       6.16830614       1.14385354
Si       3.51130836       0.86990480       1.14385354
Si       4.81950743       4.29652453       6.94425876
Si       0.99128378       2.74168642       6.94425876
Si       0.99128378       4.29652453       3.06147223
Si       4.81950743       2.74168642       3.06147223
Si       2.31671043       6.15057926       3.26940426
Si       3.49408077       0.88763169       3.26940426
Si       3.49408077       6.15057926       7.15219079
Si       2.31671043       0.88763169       7.15219079
16
Lattice="5.87821925776358 1.0655492390615445e-32 1.7205291318295903e-32 -1.2434884909263822e-32 6.9956015351678245 2.1567331162845906e-16 -2.0899077358264284e-32 -1.0696806631885668e-17 7.760951727694255" Properties=species:S:1:pos:R:3 unique_starting_index=48 config_type=initial n_minim_iter=9 stress="0.003935920709531443 -2.337074098665871e-16 1.2173918776862912e-15 -2.337074098665871e-16 -0.001631449421426847 -7.562823094984989e-16 1.2173918776862912e-15 -7.562823094984989e-16 7.5355715338041835e-06" pbc="T T T"
Si       3.96070635       4.05229341       4.76547247
Si       1.91751290       2.94330812       4.76547247
Si       1.91751290       4.05229341       0.88499661
Si       3.96070635       2.94330812       0.88499661
Si       3.55987831       6.14216599       5.02068369
Si       2.31834094       0.85343554       5.02068369
Si       2.31834094       6.14216599       1.14020783
Si       3.55987831       0.85343554       1.14020783
Si       4.87511786       4.25393495       6.93675307
Si       1.00310140       2.74166659       6.93675307
Si       1.00310140       4.25393495       3.05627721
Si       4.87511786       2.74166659       3.05627721
Si       2.35281864       6.10761976       3.26695627
Si       3.52540062       0.88798177       3.26695627
Si       3.52540062       6.10761976       7.14743214
Si       2.35281864       0.88798177       7.14743214
16
Lattice="5.945695361585317 1.0693310418399358e-32 1.7438218336797198e-32 -1.247910835686026e-32 6.968834230565422 2.019528804405655e-16 -2.0836740513916218e-32 -2.573842735429403e-17 7.761363954564979" Properties=species:S:1:pos:R:3 unique_starting_index=48 config_type=initial n_minim_iter=10 stress="0.021158954765721487 1.2043048874095596e-15 6.725093789388269e-16 1.2043048874095596e-15 0.023373923131842677 -7.058241402671621e-16 6.725093789388269e-16 -7.058241402671621e-16 0.015139087600042938" pbc="T T T"
Si       3.98932634       4.01934821       4.78075535
Si       1.95636902       2.94948602       4.78075535
Si       1.95636902       4.01934821       0.90007337
Si       3.98932634       2.94948602       0.90007337
Si       3.61921499       6.12643779       5.01188902
Si       2.32648037       0.84239644       5.01188902
Si       2.32648037       6.12643779       1.13120704
Si       3.61921499       0.84239644       1.13120704
Si       4.91946318       4.22022044       6.93897290
Si       1.02623218       2.74861379       6.93897290
Si       1.02623218       4.22022044       3.05829092
Si       4.91946318       2.74861379       3.05829092
Si       2.40711541       6.06696238       3.25931002
Si       3.53857995       0.90187185       3.25931002
Si       3.53857995       6.06696238       7.13999200
Si       2.40711541       0.90187185       7.13999200
16
Lattice="5.85214773380825 1.0472547097634082e-32 1.722332204724155e-32 -1.2559068370787605e-32 6.980558318378959 1.1455147436492436e-16 -2.090121359462713e-32 -1.2283595178565875e-16 7.798535911453746" Properties=species:S:1:pos:R:3 unique_starting_index=48 config_type=initial n_minim_iter=11 stress="-0.003702068232977695 5.468914662722626e-16 -3.293241057006097e-16 5.468914662722626e-16 0.024724950722086133 -4.901527562623361e-16 -3.293241057006097e-16 -4.901527562623361e-16 0.018958060867463888" pbc="T T T"
Si       3.90815402       4.02129892       4.81873331
Si       1.94399371       2.95925940       4.81873331
Si       1.94399371       4.02129892       0.91946536
Si       3.90815402       2.95925940       0.91946536
Si       3.57479346       6.14333312       5.03254983
Si       2.27735428       0.83722520       5.03254983
Si       2.27735428       6.14333312       1.13328188
Si       3.57479346       0.83722520       1.13328188
Si       4.82987643       4.21380437       6.97532167
Si       1.02227131       2.76675395       6.97532167
Si       1.02227131       4.21380437       3.07605372
Si       4.82987643       2.76675395       3.07605372
Si       2.39181910       6.05848132       3.26006619
Si       3.46032864       0.92207700       3.26006619
Si       3.46032864       6.05848132       7.15933414
Si       2.39181910       0.92207700       7.15933414
16
Lattice="5.902198990507106 1.0518394517581625e-32 1.7440955237492717e-32 -1.2588675225901344e-32 6.96912366233903 1.3346608078072543e-16 -2.0755851157003728e-32 -1.0162120943596878e-16 7.784398537513874" Properties=species:S:1:pos:R:3 unique_starting_index=48 config_type=initial n_minim_iter=12 stress="-0.004693668047422088 -1.3232136319225283e-16 -8.746299080313338e-16 -1.3232136319225283e-16 0.0056286281732279885 -6.163150293461628e-16 -8.746299080313338e-16 -6.163150293461628e-16 0.003433376150160181" pbc="T T T"
Si       3.93916273       4.02016716       4.81405004
Si       1.96303626       2.94895650       4.81405004
Si       1.96303626       4.02016716       0.92185077
Si       3.93916273       2.94895650       0.92185077
Si       3.60347433       6.13601394       5.01992425
Si       2.29872466       0.83310972       5.01992425
Si       2.29872466       6.13601394       1.12772498
Si       3.60347433       0.83310972       1.12772498
Si       4.86470727       4.20805657       6.96541430
Si       1.03749172       2.76106709       6.96541430
Si       1.03749172       4.20805657       3.07321503
Si       4.86470727       2.76106709       3.07321503
Si       2.42107389       6.04836360       3.25086882
Si       3.48112510       0.92076006       3.25086882
Si       3.48112510       6.04836360       7.14306808
Si       2.42107389       0.92076006       7.14306808
16
Lattice="5.949491602997124 1.0564397641280985e-32 1.762096620436179e-32 -1.2605751268569687e-32 6.953595176656448 1.4022158162848678e-16 -2.067088208569048e-32 -9.386173573726392e-17 7.778323565990544" Properties=species:S:1:pos:R:3 unique_starting_index=48 config_type=initial n_minim_iter=13 stress="0.009088976577647047 5.736697130456611e-16 -9.69485426948313e-16 5.736697130456611e-16 0.0057186266893567836 -5.5133014671295525e-16 -9.69485426948313e-16 -5.5133014671295525e-16 -0.004922292989492164" pbc="T T T"
Si       3.96262834       4.02194114       4.82982153
Si       1.98686326       2.93165404       4.82982153
Si       1.98686326       4.02194114       0.94065975
Si       3.96262834       2.93165404       0.94065975
Si       3.64495054       6.13160548       5.00545679
Si       2.30454107       0.82198969       5.00545679
Si       2.30454107       6.13160548       1.11629501
Si       3.64495054       0.82198969       1.11629501
Si       4.88446199       4.18334245       6.96459256
Si       1.06502961       2.77025272       6.96459256
Si       1.06502961       4.18334245       3.07543077
Si       4.88446199       2.77025272       3.07543077
Si       2.47224639       6.01803373       3.23473924
Si       3.47724521       0.93556145       3.23473924
Si       3.47724521       6.01803373       7.12390102
Si       2.47224639       0.93556145       7.12390102
16
Lattice="5.907040317031771 1.0433645104985081e-32 1.7559510411244223e-32 -1.2679637315050172e-32 6.961481281278479 1.2185413818527316e-16 -2.0660325314090202e-32 -1.1449204442968854e-16 7.79604424015232" Properties=species:S:1:pos:R:3 unique_starting_index=48 config_type=initial n_minim_iter=14 stress="0.0020274099809389446 -9.87198370238804e-17 -6.851732428914619e-16 -9.87198370238804e-17 -0.0069184688501703045 -3.769578341609079e-16 -6.851732428914619e-16 -3.769578341609079e-16 -0.0012161056964946593" pbc="T T T"
Si       3.93407119       4.04133802       4.85293073
Si       1.97296912       2.92014326       4.85293073
Si       1.97296912       4.04133802       0.95490861
Si       3.93407119       2.92014326       0.95490861
Si       3.62664844       6.14580286       5.01319148
Si       2.28039187       0.81567842       5.01319148
Si       2.28039187       6.14580286       1.11516936
Si       3.62664844       0.81567842       1.11516936
Si       4.83844137       4.17832543       6.98339672
Si       1.06859895       2.78315585       6.98339672
Si       1.06859895       4.17832543       3.08537460
Si       4.83844137       2.78315585       3.08537460
Si       2.47223260       6.01280600       3.23073429
Si       3.43480772       0.94867528       3.23073429
Si       3.43480772       6.01280600       7.12875641
Si       2.47223260       0.94867528       7.12875641
16
Lattice="5.886583742245702 1.0341155460432932e-32 1.7587513104357466e-32 -1.2746614870268604e-32 6.964438959050084 9.918626089090346e-17 -2.0573593738946974e-32 -1.395286609483677e-16 7.800866273648884" Properties=species:S:1:pos:R:3 unique_starting_index=48 config_type=initial n_minim_iter=15 stress="-0.0001015457493038968 -7.882488557794263e-17 -1.350589451543015e-15 -7.882488557794263e-17 0.0017401712473512085 -2.598422322272064e-16 -1.350589451543015e-15 -2.598422322272064e-16 0.004458761540983142" pbc="T T T"
Si       3.91931492       4.04231386       4.85933053
Si       1.96726883       2.92212510       4.85933053
Si       1.96726883       4.04231386       0.95889740
Si       3.91931492       2.92212510       0.95889740
Si       3.62167842       6.15258700       5.01494820
Si       2.26490532       0.81185196       5.01494820
Si       2.26490532       6.15258700       1.11451506
Si       3.62167842       0.81185196       1.11451506
Si       4.81842328       4.17657996       6.98937586
Si       1.06816046       2.78785900       6.98937586
Si       1.06816046       4.17657996       3.08894272
Si       4.81842328       2.78785900       3.08894272
Si       2.47055895       6.01149496       3.22901872
Si       3.41602479       0.95294400       3.22901872
Si       3.41602479       6.01149496       7.12945186
Si       2.47055895       0.95294400       7.12945186
16
Lattice="5.868729769601065 1.0250452086652928e-32 1.7631866033440134e-32 -1.2821194345354227e-32 6.969943858308777 1.2887493630244228e-16 -2.045208781096383e-32 -1.069548389740488e-16 7.797810252297563" Properties=species:S:1:pos:R:3 unique_starting_index=48 config_type=initial n_minim_iter=16 stress="-2.9299966349425093e-05 -8.823525353022267e-17 -5.36024814345337e-16 -8.823525353022267e-17 0.004162234250926269 -1.4636261976117805e-16 -5.36024814345337e-16 -1.4636261976117805e-16 0.0018609200931303067" pbc="T T T"
Si       3.90776688       4.04798249       4.85565759
Si       1.96096289       2.92196137       4.85565759
Si       1.96096289       4.04798249       0.95675246
Si       3.90776688       2.92196137       0.95675246
Si       3.61614003       6.15976447       5.01234557
Si       2.25258974       0.81017939       5.01234557
Si       2.25258974       6.15976447       1.11344045
Si       3.61614003       0.81017939       1.11344045
Si       4.80145535       4.18549074       6.99076793
Si       1.06727442       2.78445312       6.99076793
Si       1.06727442       4.18549074       3.09186280
Si       4.80145535       2.78445312       3.09186280
Si       2.46532356       6.01632996       3.22603084
Si       3.40340621       0.95361390       3.22603084
Si       3.40340621       6.01632996       7.12493597
Si       2.46532356       0.95361390       7.12493597
16
Lattice="5.817500029828691 1.0053347366515523e-32 1.7632965770369488e-32 -1.2932552731870182e-32 6.9679963479222105 1.7329886579561556e-16 -2.022782660675592e-32 -5.773831170909069e-17 7.778304046389084" Properties=species:S:1:pos:R:3 unique_starting_index=48 config_type=initial n_minim_iter=17 stress="0.0049677919661335135 5.796646200442961e-16 -9.11442289436392e-16 5.796646200442961e-16 0.009708997555126208 -4.708619669881458e-16 -9.11442289436392e-16 -4.708619669881458e-16 0.009398105087304553" pbc="T T T"
Si       3.88107181       4.06140623       4.84290649
Si       1.93642822       2.90659012       4.84290649
Si       1.93642822       4.06140623       0.95375447
Si       3.88107181       2.90659012       0.95375447
Si       3.61804412       6.17946213       4.99211364
Si       2.19945591       0.78853421       4.99211364
Si       2.19945591       6.17946213       1.10296162
Si       3.61804412       0.78853421       1.10296162
Si       4.74636030       4.19898489       6.99102155
Si       1.07113973       2.76901146       6.99102155
Si       1.07113973       4.19898489       3.10186952
Si       4.74636030       2.76901146       3.10186952
Si       2.46496899       6.00340910       3.20851815
Si       3.35253104       0.96458725       3.20851815
Si       3.35253104       6.00340910       7.09767018
Si       2.46496899       0.96458725       7.09767018
16
Lattice="5.815180191508192 9.981645025221455e-33 1.7683819658781955e-32 -1.3012339368483736e-32 6.970422514825539 1.5606642965942382e-16 -2.0136811240053946e-32 -7.650456019622266e-17 7.771348407222907" Properties=species:S:1:pos:R:3 unique_starting_index=48 config_type=initial n_minim_iter=18 stress="-0.0035830815722702287 -1.048524396260729e-16 -1.6297064901881045e-15 -1.048524396260729e-16 -0.0007391286353132669 -3.3746625526710857e-16 -1.6297064901881045e-15 -3.3746625526710857e-16 -0.0012405100836890195" pbc="T T T"
Si       3.88237505       4.06490184       4.83174467
Si       1.93280514       2.90552067       4.83174467
Si       1.93280514       4.06490184       0.94607047
Si       3.88237505       2.90552067       0.94607047
Si       3.61234219       6.18030781       4.98987069
Si       2.20283800       0.79011471       4.98987069
Si       2.20283800       6.18030781       1.10419649
Si       3.61234219       0.79011471       1.10419649
Si       4.74956129       4.21135448       6.98549277
Si       1.06561890       2.75906803       6.98549277
Si       1.06561890       4.21135448       3.09981856
Si       4.74956129       2.75906803       3.09981856
Si       2.45647863       6.00961522       3.20953608
Si       3.35870156       0.96080730       3.20953608
Si       3.35870156       6.00961522       7.09521028
Si       2.45647863       0.96080730       7.09521028
16
Lattice="5.850808768360243 9.945165333585961e-33 1.7837701366290263e-32 -1.3096246476542505e-32 6.95167387783378 1.7158427333562866e-16 -2.001868114837298e-32 -5.897475859044822e-17 7.75746876608323" Properties=species:S:1:pos:R:3 unique_starting_index=48 config_type=initial n_minim_iter=19 stress="-0.0009824916476076423 4.926210167778368e-18 -1.5450706319082012e-15 4.926210167778368e-18 0.0005171934234260218 -3.3964459746057647e-16 -1.5450706319082012e-15 -3.3964459746057647e-16 -0.001868227256652604" pbc="T T T"
Si       3.90586859       4.05375054       4.82266383
Si       1.94494018       2.89792334       4.82266383
Si       1.94494018       4.05375054       0.94392945
Si       3.90586859       2.89792334       0.94392945
Si       3.63602740       6.16742490       4.98075143
Si       2.21478137       0.78424898       4.98075143
Si       2.21478137       6.16742490       1.10201705
Si       3.63602740       0.78424898       1.10201705
Si       4.78641896       4.20216123       6.97008574
Si       1.06438981       2.74951265       6.97008574
Si       1.06438981       4.20216123       3.09135136
Si       4.78641896       2.74951265       3.09135136
Si       2.47391747       5.98856852       3.20739345
Si       3.37689130       0.96310536       3.20739345
Si       3.37689130       5.98856852       7.08612784
Si       2.47391747       0.96310536       7.08612784
16
Lattice="5.841240784120729 9.809828107328592e-33 1.7834408006390837e-32 -1.3203170694758733e-32 6.937204049831627 2.3156004749190496e-16 -1.993039697625486e-32 7.551488130903885e-18 7.73695280487106" Properties=species:S:1:pos:R:3 unique_starting_index=48 config_type=initial n_minim_iter=20 stress="0.005380332682136734 -2.0769149897524627e-16 -1.6980063726961737e-15 -2.0769149897524627e-16 0.0038467391354472342 -4.072382332847966e-16 -1.6980063726961737e-15 -4.072382332847966e-16 0.005248620997004277" pbc="T T T"
Si       3.90236215       4.05300339       4.80307383
Si       1.93887864       2.88420066       4.80307383
Si       1.93887864       4.05300339       0.93459743
Si       3.90236215       2.88420066       0.93459743
Si       3.65066009       6.16899243       4.96779991
Si       2.19058070       0.76821162       4.96779991
Si       2.19058070       6.16899243       1.09932351
Si       3.65066009       0.76821162       1.09932351
Si       4.78666512       4.21480170       6.95774165
Si       1.05457566       2.72240235       6.95774165
Si       1.05457566       4.21480170       3.08926524
Si       4.78666512       2.72240235       3.08926524
Si       2.48069503       5.96931066       3.19943615
Si       3.36054575       0.96789339       3.19943615
Si       3.36054575       5.96931066       7.06791256
Si       2.48069503       0.96789339       7.06791256
16
Lattice="5.845399405629912 9.68543447410525e-33 1.7829805007031215e-32 -1.3343741684356245e-32 6.932455579794045 1.8945642078268213e-16 -1.9952705401267584e-32 -3.875002615917752e-17 7.7380843821904906" Properties=species:S:1:pos:R:3 unique_starting_index=48 config_type=initial n_minim_iter=21 stress="0.0006067894856929281 1.9827296857004437e-17 -1.4534116713929146e-15 1.9827296857004437e-17 -0.004193426576485114 -4.1708135174198624e-16 -1.4534116713929146e-15 -4.1708135174198624e-16 0.0009501933541731322" pbc="T T T"
Si       3.90046296       4.05144163       4.79891269
Si       1.94493644       2.88101395       4.79891269
Si       1.94493644       4.05144163       0.92987050
Si       3.90046296       2.88101395       0.92987050
Si       3.65212989       6.16529796       4.97577049
Si       2.19326952       0.76715762       4.97577049
Si       2.19326952       6.16529796       1.10672830
Si       3.65212989       0.76715762       1.10672830
Si       4.80775806       4.22363513       6.95190896
Si       1.03764135       2.70882045       6.95190896
Si       1.03764135       4.22363513       3.08286677
Si       4.80775806       2.70882045       3.08286677
Si       2.48523399       5.96394913       3.20437400
Si       3.36016542       0.96850645       3.20437400
Si       3.36016542       5.96394913       7.07341619
Si       2.48523399       0.96850645       7.07341619
