14
Lattice="5.301623110002602 0.012140158134168374 1.360548330384554 2.4289013125075276 6.586590426106552 -0.2178417233530742 1.818125918982916 1.2875529292479928 9.018417916195048" Properties=species:S:1:pos:R:3 unique_starting_index=86 config_type=initial n_minim_iter=1 energy=-2277.8548298377814 free_energy=-2277.8548298377814 pbc="T T T"
Si       6.01007251       3.88289729       7.29919393
Si       5.57648591       1.28639150       4.98736490
Si       4.38418727       3.56669328       3.92028515
Si       6.38780191       2.89298096       3.82577475
Si       4.94456972       4.78880970       8.99546275
Si       2.23370623       1.69964976       1.10689244
Si       2.92921633       4.64726565       2.67412035
Si       7.65156135       2.93719255       8.39013235
Si       3.78517355       2.86381716       1.96481634
Si       5.90842617       6.04466614       7.49156382
Si       3.15822938       1.48370102       8.77746407
Si       5.86471328       5.11332301       3.75305093
Si       4.52070939       2.86637977       5.92690473
Si       3.70679736       6.67620918       1.92507566
14
Lattice="5.325586729762821 -0.0018147360047775173 1.3452353500646859 2.4168532315975533 6.583936267893281 -0.19319540487049722 1.80088695792711 1.3232879401683013 9.002588271212272" Properties=species:S:1:pos:R:3 unique_starting_index=86 config_type=initial n_minim_iter=2 stress="0.016509465155963427 -0.006176326770426235 0.0049972978658892235 -0.006176326770426235 0.008827542462982906 0.0019330830072985983 0.0049972978658892235 0.0019330830072985983 0.006389595226482779" pbc="T T T"
Si       6.00834272       3.89847230       7.28846856
Si       5.58881005       1.28884245       4.96939828
Si       4.38190969       3.57291856       3.91828344
Si       6.40238571       2.88865905       3.81659310
Si       4.93040268       4.81613896       8.98803835
Si       2.23530232       1.69645720       1.10719314
Si       2.91954083       4.65542033       2.68382870
Si       7.65965832       2.94948737       8.36880938
Si       3.78944572       2.86037226       1.96442044
Si       5.89764441       6.06289122       7.49086872
Si       3.14763600       1.51372627       8.75971246
Si       5.86708537       5.11397002       3.75545276
Si       4.51850867       2.88069343       5.91883155
Si       3.69602160       6.67942811       1.94203551
14
Lattice="5.308962927054383 0.0006167867886748065 1.3281250131648064 2.411891950584628 6.570305060979364 -0.18890776527487518 1.7736131798123616 1.3342841232785996 8.975437582510045" Properties=species:S:1:pos:R:3 unique_starting_index=86 config_type=initial n_minim_iter=3 stress="-0.007706184385986308 -0.016371570558716332 -0.0005786590862903979 -0.016371570558716332 -0.004946441594559709 0.006355742172491709 -0.0005786590862903979 0.006355742172491709 -0.011769070731923122" pbc="T T T"
Si       5.97472149       3.90313792       7.25929618
Si       5.56237614       1.29363402       4.94308761
Si       4.36145498       3.57262154       3.90025654
Si       6.37802805       2.88865406       3.79397221
Si       4.89614827       4.81952208       8.95792173
Si       2.22591072       1.69373857       1.10149985
Si       2.90525714       4.65219833       2.67695494
Si       7.61980234       2.95612112       8.33071423
Si       3.77534602       2.85615915       1.95305553
Si       5.86413465       6.06133288       7.46524942
Si       3.11743514       1.52439301       8.72993774
Si       5.84451473       5.10944234       3.73863561
Si       4.49282724       2.88434477       5.89771930
Si       3.68204929       6.66976440       1.93684032
14
Lattice="5.299661603444612 0.040097613626902395 1.2850577353330133 2.4579951451476005 6.571098442078247 -0.187141936453458 1.7139343596797383 1.3706540553765472 8.947123293950865" Properties=species:S:1:pos:R:3 unique_starting_index=86 config_type=initial n_minim_iter=4 stress="-0.00694585091757982 -0.003003087670810209 -0.006692238400825884 -0.003003087670810209 0.007721120832447102 0.0055360378314381585 -0.006692238400825884 0.0055360378314381585 -0.006645101711543243" pbc="T T T"
Si       5.94412503       3.96173484       7.21060126
Si       5.53337194       1.34062262       4.89249189
Si       4.35676871       3.60938473       3.86190855
Si       6.37419079       2.93542498       3.74393124
Si       4.86246212       4.86613798       8.91479559
Si       2.22300319       1.70386552       1.08715420
Si       2.91419910       4.67780594       2.66646347
Si       7.57787081       3.02367901       8.26282238
Si       3.78228742       2.87627822       1.92700713
Si       5.84720525       6.10629201       7.42594692
Si       3.06016450       1.56975403       8.69160400
Si       5.85607250       5.14822195       3.70407855
Si       4.46939373       2.92650396       5.87034954
Si       3.70972063       6.68706786       1.92378653
14
Lattice="5.31749165190829 0.052866813938797434 1.2792824557793943 2.4826142562192426 6.5220325051907535 -0.188064037090783 1.7137270566488911 1.3666217160860716 8.945596266750918" Properties=species:S:1:pos:R:3 unique_starting_index=86 config_type=initial n_minim_iter=5 stress="-0.003502598218709525 -0.005640311902093427 0.0007612141224466448 -0.005640311902093427 -0.013809390839809272 0.003134326421838679 0.0007612141224466448 0.003134326421838679 -0.008686474897863262" pbc="T T T"
Si       5.96422234       3.95081395       7.20494895
Si       5.55048133       1.34368752       4.88458488
Si       4.38057193       3.59367908       3.85516193
Si       6.40406681       2.92563966       3.73571159
Si       4.88362070       4.83778913       8.90851294
Si       2.23077013       1.69340858       1.08598075
Si       2.92995104       4.65471458       2.66571283
Si       7.60506606       3.01709752       8.25399201
Si       3.79900891       2.85661232       1.92065435
Si       5.87340126       6.06859989       7.42418116
Si       3.06457765       1.56825498       8.68747481
Si       5.88985170       5.12020553       3.70121163
Si       4.48804832       2.91567764       5.87446504
Si       3.73328203       6.64180465       1.92136024
14
Lattice="5.32301835783342 0.06783341391155215 1.2602572586175256 2.5061852301015555 6.513953846996185 -0.19447261102579405 1.6855632093144681 1.3733295781438706 8.950722161373026" Properties=species:S:1:pos:R:3 unique_starting_index=86 config_type=initial n_minim_iter=6 stress="-0.004515022324924838 -0.005767804399592206 -0.008032449002982844 -0.005767804399592206 -0.0051057326151141575 -0.0067580256094358455 -0.008032449002982844 -0.0067580256094358455 0.005367050497368367" pbc="T T T"
Si       5.95358252       3.96687790       7.19130251
Si       5.54441320       1.35740422       4.86597675
Si       4.39381652       3.60123627       3.84601292
Si       6.41385520       2.93641646       3.71456799
Si       4.87323554       4.84089299       8.89987703
Si       2.23549772       1.69663979       1.07895491
Si       2.93250373       4.66690486       2.66061781
Si       7.59859335       3.03161310       8.23386685
Si       3.80125555       2.85190774       1.90439143
Si       5.87042681       6.07368395       7.41907585
Si       3.03897230       1.57958425       8.68501452
Si       5.90825687       5.12635832       3.68884981
Si       4.48479544       2.92742732       5.87525550
Si       3.74304797       6.63657346       1.91475875
14
Lattice="5.331072064312934 0.09536190546868457 1.2606700764045002 2.5375824220199372 6.516453167044171 -0.1692590944857366 1.7009637440149443 1.410640532970753 8.929928496663216" Properties=species:S:1:pos:R:3 unique_starting_index=86 config_type=initial n_minim_iter=7 stress="-0.005330555392828578 0.004264037491950574 0.0016659648524719251 0.004264037491950574 -0.005193819845598554 0.0003778643562579061 0.0016659648524719251 0.0003778643562579061 -0.003875325911401582" pbc="T T T"
Si       5.98000244       4.01474631       7.18616351
Si       5.55970624       1.39702096       4.85686917
Si       4.42768221       3.62984052       3.85316649
Si       6.44059390       2.97194791       3.71655516
Si       4.90901737       4.88387750       8.89069441
Si       2.24399423       1.70543998       1.08211426
Si       2.95454253       4.69394510       2.67073934
Si       7.63082256       3.08665320       8.22300546
Si       3.81632051       2.86647959       1.90954317
Si       5.90869630       6.11996782       7.42766346
Si       3.05528613       1.62300167       8.66483995
Si       5.94798060       5.15890585       3.70283792
Si       4.51113898       2.96694586       5.87727735
Si       3.77141596       6.65166167       1.93608087
14
Lattice="5.333063171543861 0.10894725325554036 1.241717587763029 2.560051758582679 6.488698010248596 -0.18420970970309822 1.6720439128645532 1.4016993591431732 8.932589973090673" Properties=species:S:1:pos:R:3 unique_starting_index=86 config_type=initial n_minim_iter=8 stress="5.0288175301946614e-05 -0.00022199116326468554 0.007758916007686076 -0.00022199116326468554 0.010614124230731298 -0.006522220085589487 0.007758916007686076 -0.006522220085589487 0.006035497118714546" pbc="T T T"
Si       5.95028760       3.99125320       7.15524455
Si       5.53664049       1.40783336       4.83034253
Si       4.45255328       3.62118210       3.84271926
Si       6.46826629       2.96204703       3.68652278
Si       4.89537447       4.84633183       8.86141905
Si       2.23824617       1.67829752       1.06622063
Si       2.95193774       4.70856503       2.65229383
Si       7.63091685       3.06969905       8.18731989
Si       3.79643978       2.85252135       1.90871107
Si       5.89848470       6.12777747       7.43552585
Si       3.02308690       1.62363329       8.65510879
Si       5.99099027       5.14540005       3.69199859
Si       4.52128993       2.96803336       5.89191353
Si       3.75973808       6.63022130       1.91611799
14
Lattice="5.3622761079651635 0.16783171423042026 1.1723998344537976 2.6497953147840754 6.3930512106752095 -0.18474028909041265 1.581445756076923 1.4400598854934974 8.920568913637313" Properties=species:S:1:pos:R:3 unique_starting_index=86 config_type=initial n_minim_iter=9 stress="0.024104595932677178 0.001252469036940354 -0.011144059808543843 0.001252469036940354 0.005546770196623768 -0.009629404670910379 -0.011144059808543843 -0.009629404670910379 -0.003384157840319277" pbc="T T T"
Si       5.93061207       4.01031171       7.09393051
Si       5.51520175       1.47387150       4.75958203
Si       4.49430267       3.61840847       3.81270647
Si       6.52466501       2.98728464       3.61665042
Si       4.86940074       4.83238713       8.80759752
Si       2.26481260       1.65453662       1.02870891
Si       2.98588405       4.68798895       2.63016179
Si       7.62922945       3.11994743       8.08926826
Si       3.79901406       2.84922896       1.89409807
Si       5.90566378       6.13595702       7.41749992
Si       2.94232055       1.67609958       8.61967765
Si       6.08246085       5.12954982       3.65175452
Si       4.52565356       2.99707487       5.86384869
Si       3.80255935       6.55333700       1.89839544
14
Lattice="5.32641530910807 0.21770343934998326 1.1828609579855558 2.676179680991221 6.343919444407906 -0.1113728708426584 1.5531513411667515 1.5545099578577821 9.098418313294932" Properties=species:S:1:pos:R:3 unique_starting_index=86 config_type=initial n_minim_iter=10 stress="0.012572871387909593 0.004904971052906967 -0.008639141325952147 0.004904971052906967 0.0022601644608767346 0.013161523343956818 -0.008639141325952147 0.013161523343956818 0.026789074663463246" pbc="T T T"
Si       5.89468150       4.10790155       7.26629541
Si       5.46244842       1.56445619       4.84403965
Si       4.48873726       3.66174222       3.92491656
Si       6.51191222       3.04513188       3.70518894
Si       4.84468685       4.91419955       9.00414644
Si       2.26771227       1.65009303       1.05102376
Si       2.98885785       4.70624715       2.72570520
Si       7.58752418       3.23754379       8.24289779
Si       3.75277908       2.87440261       1.97805882
Si       5.88192083       6.22844813       7.63985248
Si       2.90088373       1.79703371       8.78650608
Si       6.10325377       5.16622552       3.77945286
Si       4.50016314       3.07909376       6.00588393
Si       3.79334813       6.54144753       2.00246334
14
Lattice="5.319502195281406 0.2557194051645771 1.193524727881491 2.7159473529507605 6.379177349949936 -0.09665816683133782 1.5822837444388773 1.5812437020473198 9.082083293343281" Properties=species:S:1:pos:R:3 unique_starting_index=86 config_type=initial n_minim_iter=11 stress="0.024587338323863676 0.023561948270205364 -0.0020077037780281194 0.023561948270205364 0.007335645824012166 0.0035535912106716768 -0.0020077037780281194 0.0035535912106716768 0.014063436603559349" pbc="T T T"
Si       5.93146771       4.18029348       7.27999553
Si       5.46322187       1.61330574       4.83851441
Si       4.51168698       3.70566793       3.93883134
Si       6.55381530       3.09748307       3.71201856
Si       4.89212834       4.95373972       8.98802652
Si       2.29068653       1.66199193       1.04769390
Si       3.01821318       4.74295763       2.73381353
Si       7.62446151       3.30220763       8.23063341
Si       3.73255181       2.90997174       2.00352866
Si       5.92881629       6.30518272       7.66033780
Si       2.92207161       1.83659589       8.77231396
Si       6.17326122       5.22612736       3.79922840
Si       4.52045319       3.12749344       6.00218611
Si       3.81873291       6.59967168       2.00820443
14
Lattice="5.300554245705725 0.23317115929165635 1.2193086560973683 2.6783994899897188 6.4238146366865445 -0.09785831608043828 1.6184819756926225 1.5640624005264372 9.06543384898399" Properties=species:S:1:pos:R:3 unique_starting_index=86 config_type=initial n_minim_iter=12 stress="-0.010131018435619574 0.01814941664552776 0.007277408530612582 0.01814941664552776 0.011168997926312162 -0.0049050696892939906 0.007277408530612582 -0.0049050696892939906 0.004857028054302836" pbc="T T T"
Si       5.92656557       4.18837553       7.28850853
Si       5.44966537       1.59489143       4.84487438
Si       4.50779064       3.70617681       3.93912174
Si       6.53870401       3.08934799       3.72790726
Si       4.89823831       4.93213168       8.98227705
Si       2.28028631       1.65149772       1.04019601
Si       2.99426935       4.77206564       2.74721858
Si       7.63584653       3.27337647       8.23349081
Si       3.68999853       2.90914754       2.01887943
Si       5.91748832       6.31594113       7.66837976
Si       2.94533922       1.82461063       8.76796908
Si       6.18346891       5.22999561       3.81814078
Si       4.51459459       3.12548684       6.00826852
Si       3.77200957       6.64750925       1.99740360
14
Lattice="5.31541687104465 0.20662688850511893 1.2294539399427125 2.6530214891059347 6.441099430609821 -0.10271790082807312 1.639754580432651 1.54525188138271 9.044698393101923" Properties=species:S:1:pos:R:3 unique_starting_index=86 config_type=initial n_minim_iter=13 stress="-0.0050169811045631275 -0.005117131289133656 -0.0007435221820289569 -0.005117131289133656 0.021160179044501425 0.00028832698446529996 -0.0007435221820289569 0.00028832698446529996 0.007913412705883785" pbc="T T T"
Si       5.95158119       4.16877168       7.27486590
Si       5.46649990       1.56958984       4.84678696
Si       4.51596839       3.69134258       3.92589886
Si       6.54467406       3.06688317       3.72133508
Si       4.90421945       4.90871341       8.98189955
Si       2.27523208       1.65310303       1.04493695
Si       2.99522677       4.77260689       2.75443702
Si       7.66147548       3.24016879       8.22593948
Si       3.68659969       2.89605349       2.01243849
Si       5.92380648       6.29599633       7.64784025
Si       2.96652983       1.80330482       8.75645177
Si       6.18236648       5.21053724       3.81576546
Si       4.52027840       3.10636003       5.99271147
Si       3.75566996       6.66086387       1.98187509
14
Lattice="5.336361748832521 0.19454701197791047 1.2235871939644039 2.6484468207645753 6.390369779105937 -0.1045885455022695 1.640631368303844 1.530340655613594 9.019084311120865" Properties=species:S:1:pos:R:3 unique_starting_index=86 config_type=initial n_minim_iter=14 stress="-0.0035787894151051284 0.002974001330887025 0.005714163295318901 0.002974001330887025 -0.02034188032091158 -0.0175921847523257 0.005714163295318901 -0.0175921847523257 -0.017115823714988068" pbc="T T T"
Si       5.97621057       4.13068243       7.24285352
Si       5.47743137       1.55184365       4.81863728
Si       4.54418443       3.65299244       3.90576536
Si       6.58038163       3.02600816       3.68514301
Si       4.89962575       4.83491925       8.97765282
Si       2.27198224       1.63869935       1.03315048
Si       3.01100491       4.73784326       2.76390998
Si       7.69249012       3.20178677       8.18516782
Si       3.66186997       2.87360933       2.01809633
Si       5.93131000       6.24423907       7.63124439
Si       2.96289608       1.79239307       8.73737315
Si       6.22629741       5.14346493       3.81284529
Si       4.52168513       3.09047210       5.97606157
Si       3.72424354       6.61154432       1.96297487
14
Lattice="5.333401043972897 0.19837438213452918 1.223849011143392 2.6434703337129974 6.392559131651966 -0.07201498402741878 1.6345631160877858 1.5770473270973084 9.043714633477247" Properties=species:S:1:pos:R:3 unique_starting_index=86 config_type=initial n_minim_iter=15 stress="-0.009112069159355295 -0.0008316941791329293 0.0005849842158 -0.0008316941791329293 -0.01671495757024428 -0.00654009552498279 0.0005849842158 -0.00654009552498279 -0.007703075963656389" pbc="T T T"
Si       5.96896704       4.17752903       7.27494920
Si       5.45528929       1.59428442       4.83097944
Si       4.55837587       3.67092238       3.92461071
Si       6.59571357       3.03623104       3.68591291
Si       4.88862858       4.85010740       9.02200127
Si       2.26766825       1.63972447       1.03089595
Si       3.01871109       4.76607680       2.81542113
Si       7.69185245       3.24041311       8.19835873
Si       3.62496638       2.88508547       2.05588125
Si       5.91838798       6.28380439       7.68877369
Si       2.94157728       1.84265412       8.76163926
Si       6.25084289       5.14728274       3.85714960
Si       4.51798673       3.13189652       6.00101146
Si       3.68729150       6.62969317       1.98209934
14
Lattice="5.332332016118661 0.1668611502777963 1.2371588242277707 2.5916198124816625 6.4368301231692575 -0.026964237649382782 1.646356549462394 1.6290728629015647 9.054268421289823" Properties=species:S:1:pos:R:3 unique_starting_index=86 config_type=initial n_minim_iter=16 stress="0.02616424118869562 -0.009966894266849425 0.006837987622203083 -0.009966894266849425 0.004054273183680951 0.01391168063026112 0.006837987622203083 0.01391168063026112 0.008157956471084103" pbc="T T T"
Si       5.95631648       4.23675767       7.31704376
Si       5.43113361       1.63265756       4.83869498
Si       4.58048453       3.68987670       3.93726973
Si       6.60800897       3.02744837       3.68997263
Si       4.87617695       4.84722376       9.06709387
Si       2.25697231       1.63379339       1.01425646
Si       3.04192843       4.82225833       2.90660732
Si       7.69383600       3.26270080       8.20760365
Si       3.54905658       2.90644921       2.12650760
Si       5.88261489       6.32733944       7.75398267
Si       2.91704853       1.89455868       8.77585072
Si       6.24891115       5.13576803       3.92583025
Si       4.51381353       3.18634097       6.02178568
Si       3.57497280       6.70074245       2.00390595
14
Lattice="5.307263631424178 0.16948644298325163 1.2042303713623206 2.5841900604031083 6.501185333426211 -0.02535845189669639 1.5739109121169361 1.669596245274085 9.086922666630507" Properties=species:S:1:pos:R:3 unique_starting_index=86 config_type=initial n_minim_iter=17 stress="0.026809501055893033 0.0005888259818973401 -0.0030891285365748397 0.0005888259818973401 0.03303265554334391 0.015406138261218047 -0.0030891285365748397 0.015406138261218047 0.027706213856902653" pbc="T T T"
Si       5.88351915       4.31308407       7.32404123
Si       5.36013867       1.69577294       4.80332027
Si       4.58130245       3.73400327       3.92318755
Si       6.59925912       3.05259584       3.64598919
Si       4.81488827       4.87115848       9.08090108
Si       2.23505188       1.62219637       0.99875218
Si       3.05849281       4.89466070       2.95451630
Si       7.61192384       3.31757198       8.17135537
Si       3.45120257       2.95029984       2.15986582
Si       5.80172727       6.39748513       7.78367580
Si       2.80448456       1.93838673       8.78742188
Si       6.23640864       5.16011533       3.93765292
Si       4.46766821       3.26391405       6.02062538
Si       3.49211978       6.80031831       1.98840779
14
Lattice="5.300201294317545 0.1642642612821684 1.1998877095716245 2.5740825459171752 6.515966422919404 -0.023298467240434172 1.5635486776718261 1.676243293744957 9.084076735388512" Properties=species:S:1:pos:R:3 unique_starting_index=86 config_type=initial n_minim_iter=18 stress="0.01020419690847469 -0.00018959484419974777 -0.0019294261375661448 -0.00018959484419974777 0.03443717020878481 0.014509574798188927 -0.0019294261375661448 0.014509574798188927 0.026007116398960965" pbc="T T T"
Si       5.86836822       4.32548918       7.32216932
Si       5.34244607       1.70757462       4.79155887
Si       4.58242006       3.73866869       3.91597448
Si       6.60016041       3.05196240       3.63486180
Si       4.80375037       4.86699575       9.07853217
Si       2.22737037       1.61576308       0.99454147
Si       3.06249607       4.91458887       2.96640762
Si       7.59354285       3.32293864       8.15634737
Si       3.41840431       2.95930043       2.17137830
Si       5.78103426       6.40809877       7.78597738
Si       2.77931983       1.94427050       8.77957173
Si       6.23321963       5.15590071       3.94226417
Si       4.45794772       3.27998026       6.01620422
Si       3.45988146       6.82121275       1.98527776
14
Lattice="5.288005735310673 0.1158551153824124 1.1717318610690663 2.52807132042644 6.5287190609260835 -0.09573995873122935 1.5149832368418092 1.5828170021062278 9.025413817706786" Properties=species:S:1:pos:R:3 unique_starting_index=86 config_type=initial n_minim_iter=19 stress="-0.002109660556286501 0.004464196079062244 -0.001639291942299863 0.004464196079062244 0.012197998367442791 -0.0021373573856123033 -0.001639291942299863 -0.0021373573856123033 0.013993996371750788" pbc="T T T"
Si       5.81404706       4.22500644       7.23865177
Si       5.31132864       1.64541600       4.72041314
Si       4.54183034       3.67717982       3.83735174
Si       6.55540334       2.98543133       3.57523766
Si       4.75995451       4.77482379       8.98026105
Si       2.20089122       1.58200939       0.98908012
Si       3.02920655       4.89935973       2.89009824
Si       7.50761660       3.22023150       8.06041049
Si       3.38347970       2.95100889       2.12836542
Si       5.70439728       6.30444939       7.65731672
Si       2.69966530       1.82930170       8.69354940
Si       6.17404005       5.07305614       3.85248480
Si       4.41474349       3.21886733       5.93015544
Si       3.39620306       6.80423044       1.91506851
14
Lattice="5.28688402155426 0.10817075357502251 1.1696649570380333 2.5203807377497727 6.524353018111711 -0.10460582730986988 1.513174494562289 1.5678627373237848 9.010123786268549" Properties=species:S:1:pos:R:3 unique_starting_index=86 config_type=initial n_minim_iter=20 stress="-0.013229632581623876 0.009418768044247959 -0.0029666143304245664 0.009418768044247959 0.002290897500488476 -0.002362416149463862 -0.0029666143304245664 -0.002362416149463862 0.003086211183384786" pbc="T T T"
Si       5.81481738       4.20061406       7.22129527
Si       5.31036382       1.64054950       4.69733398
Si       4.53175164       3.65986226       3.81394552
Si       6.54832641       2.96879743       3.57256400
Si       4.76297404       4.75148318       8.97778104
Si       2.20330608       1.57092118       0.99356366
Si       3.02878364       4.90297786       2.87998544
Si       7.49830669       3.20358549       8.04356766
Si       3.37331996       2.95173684       2.12095633
Si       5.69860258       6.28536357       7.63308531
Si       2.67940055       1.80618787       8.66768369
Si       6.18246508       5.05058408       3.84254944
Si       4.41278768       3.20890477       5.90831185
Si       3.37806724       6.80102123       1.91860635
14
Lattice="5.289920544554856 0.07716987726330864 1.174605694235164 2.4887628528894585 6.534775159082367 -0.12694342151037055 1.5189148425325318 1.5279897968238276 8.995581154971044" Properties=species:S:1:pos:R:3 unique_starting_index=86 config_type=initial n_minim_iter=21 stress="-0.012916696613174234 -0.00042711494963437627 0.0004110262566223029 -0.00042711494963437627 -0.0019753620672430415 -0.00599349156262065 0.0004110262566223029 -0.00599349156262065 -0.006826132570384851" pbc="T T T"
Si       5.80998593       4.15652133       7.20331588
Si       5.30512343       1.60774578       4.68979466
Si       4.51994343       3.62860131       3.79168133
Si       6.53711385       2.92784967       3.56484749
Si       4.75972043       4.69920110       8.97755172
Si       2.19793795       1.55323866       0.99082779
Si       3.01749605       4.89541941       2.86297520
Si       7.50016576       3.14453187       8.03326958
Si       3.35649440       2.95014332       2.10950077
Si       5.68316664       6.24438241       7.60053537
Si       2.67174893       1.76295130       8.65342427
Si       6.17715681       5.01461845       3.82945923
Si       4.40310668       3.17619140       5.87927295
Si       3.34578028       6.80286691       1.89899433
