24
Lattice="6.788212030196624 -2.137630077159963 0.018045534746758962 0.5357131959710357 8.978285343826204 0.04694506470030899 1.624287008724882 2.8930834306147086 9.035311756811069" Properties=species:S:1:pos:R:3 unique_starting_index=94 config_type=initial n_minim_iter=1 energy=-3913.301306039464 free_energy=-3913.301306039464 pbc="T T T"
Si       7.06862375       5.92424283       7.13135315
Si       0.11048036       3.38945806       3.81245490
Si       2.10087467       7.53410684      -0.44633875
Si       5.29772826      10.20877166       6.92614016
Si       5.18929524       1.96890397       1.13574069
Si       4.97923763       4.83175855       9.07347289
Si       4.72752735       0.94058903       2.95168107
Si       3.62716102       0.24356248       1.27649770
Si       6.53137020       0.57433563       5.83139255
Si       7.07008695       7.42525801       5.60143782
Si       3.85585271       6.54523499       8.42675577
Si       5.07308805       1.76477305       4.83018846
Si       2.59225984       6.39393746       3.11117207
Si       1.68029568       6.06875852       8.25707419
Si       5.56450935       3.82359549       4.90874964
Si       5.07909290       4.85562830       6.93944563
Si       4.61062811       2.97715708       8.10504906
Si       1.90449803       5.76211830       0.82402790
Si       7.83957717       2.87156224       2.66655282
Si       3.16410161       4.57359749       7.97390853
Si       6.79135124       4.67517791       3.17508904
Si       1.60176988       0.38351874       0.64759553
Si       4.40522504       8.53729629       7.90395698
Si       5.73822464       2.81232386       3.03690324
24
Lattice="6.793606677808888 -2.141798334880677 0.0405029292351349 0.5319978656154436 8.982053186592958 0.035592937147937966 1.6498407535182538 2.8807431565620107 9.022550723872254" Properties=species:S:1:pos:R:3 unique_starting_index=94 config_type=initial n_minim_iter=2 stress="0.0007194784120044911 -0.0008186425711532425 0.001440427409731115 -0.0008186425711532425 -0.0016035373748986652 -0.0024916113219812987 0.001440427409731115 -0.0024916113219812987 -0.006422559847147155" pbc="T T T"
Si       7.09114230       5.91350652       7.13278340
Si       0.12044176       3.38527907       3.80231467
Si       2.09787069       7.53731249      -0.45031864
Si       5.31573741      10.20083537       6.91675874
Si       5.19532573       1.96568261       1.14678660
Si       5.00467866       4.81968303       9.06666894
Si       4.73861404       0.93412930       2.95931649
Si       3.63353534       0.23940033       1.28504919
Si       6.55225951       0.56296655       5.84097905
Si       7.08718744       7.41775261       5.60241810
Si       3.87960166       6.53348779       8.41631531
Si       5.08922117       1.75559353       4.83489806
Si       2.59941482       6.39116938       3.10471503
Si       1.70148779       6.05977191       8.24108850
Si       5.58048626       3.81599037       4.91160010
Si       5.09992495       4.84572640       6.93683154
Si       4.63483579       2.96451818       8.10244304
Si       1.90555960       5.76264207       0.81990228
Si       7.85050923       2.86541864       2.68106486
Si       3.18778754       4.56269332       7.96511599
Si       6.80259845       4.66997051       3.18294816
Si       1.60466165       0.38179580       0.64995576
Si       4.42681221       8.52826229       7.89303363
Si       5.74895601       2.80723046       3.04507434
24
Lattice="6.793588394036003 -2.1429050801522957 0.045283984210398254 0.5328975460319179 8.989483752739167 0.0386162603137264 1.6572748604802903 2.8858054364447 9.040488964731132" Properties=species:S:1:pos:R:3 unique_starting_index=94 config_type=initial n_minim_iter=3 stress="0.006132833544323721 0.00033439927344835807 0.002814374450702303 0.00033439927344835807 0.01106563339749814 -0.00040052938563197877 0.002814374450702303 -0.00040052938563197877 0.0066310768133581435" pbc="T T T"
Si       7.09799319       5.92114361       7.15269804
Si       0.12461570       3.38886726       3.80985468
Si       2.09869114       7.54373381      -0.44708253
Si       5.32162124      10.21117199       6.93617176
Si       5.19663680       1.96797805       1.15391392
Si       5.01076595       4.82766690       9.08767447
Si       4.74117389       0.93546955       2.96815918
Si       3.63503175       0.23992422       1.29030863
Si       6.55738884       0.56541134       5.85682258
Si       7.09251848       7.42665046       5.61931392
Si       3.88732370       6.54030591       8.43632362
Si       5.09327067       1.75780052       4.84768937
Si       2.60183832       6.39745141       3.11374763
Si       1.70782642       6.06821429       8.25857629
Si       5.58497608       3.82162698       4.92564800
Si       5.10597453       4.85235774       6.95406550
Si       4.64126180       2.96950641       8.12126988
Si       1.90701801       5.76778851       0.82435208
Si       7.85265746       2.86929828       2.69290536
Si       3.19586156       4.56891209       7.98355250
Si       6.80573263       4.67592140       3.19481287
Si       1.60541961       0.38232792       0.65203001
Si       4.43424211       8.53810323       7.91295182
Si       5.75132682       2.81150456       3.05558400
24
Lattice="6.783504852809241 -2.1392486475297257 0.047031639477740146 0.532720474428512 8.976095302952313 0.04366458706170197 1.6588996784314063 2.886384880800779 9.051540935567763" Properties=species:S:1:pos:R:3 unique_starting_index=94 config_type=initial n_minim_iter=4 stress="-0.0035149499745555923 -0.0017763810129057516 0.0031599809839156483 -0.0017763810129057516 -0.001795281508493825 0.0012734298702006784 0.0031599809839156483 0.0012734298702006784 0.005872282708346777" pbc="T T T"
Si       7.09196374       5.91675072       7.16609948
Si       0.12784935       3.38530892       3.81512534
Si       2.09666774       7.53257939      -0.44213310
Si       5.31620902      10.19910751       6.95100544
Si       5.18960928       1.96572452       1.15914113
Si       5.00476895       4.82686807       9.10105398
Si       4.73554872       0.93467604       2.97271938
Si       3.63093973       0.24023251       1.29330220
Si       6.55084098       0.56762196       5.86604545
Si       7.08507690       7.42000396       5.63065558
Si       3.88631982       6.53291927       8.45028415
Si       5.08799798       1.75610669       4.85527216
Si       2.59835965       6.38946321       3.12075476
Si       1.70796279       6.06530829       8.27051737
Si       5.57934005       3.81979517       4.93469522
Si       5.10176114       4.84950889       6.96510221
Si       4.63761718       2.96953588       8.13294788
Si       1.90534446       5.75973603       0.82882912
Si       7.84182835       2.86710372       2.70068494
Si       3.19714746       4.56655124       7.99646908
Si       6.79745107       4.67209005       3.20257946
Si       1.60372705       0.38201602       0.65282782
Si       4.43216748       8.53013435       7.92748018
Si       5.74347553       2.81027135       3.06228156
24
Lattice="6.786473068416155 -2.1322536900192235 0.03898957261656467 0.5432896804705654 8.979705154912438 0.04287868277935527 1.6527809980084054 2.8891069915990064 9.037654643447482" Properties=species:S:1:pos:R:3 unique_starting_index=94 config_type=initial n_minim_iter=5 stress="7.708392072154543e-06 0.0022734979080830625 -0.0011804784864254206 0.0022734979080830625 0.0017646638032531505 0.0005388108523445457 -0.0011804784864254206 0.0005388108523445457 9.679375948722999e-05" pbc="T T T"
Si       7.09736244       5.92707438       7.14864031
Si       0.12975896       3.38565749       3.80955116
Si       2.10803147       7.53759354      -0.44308322
Si       5.32215441      10.20777828       6.93573808
Si       5.19418842       1.97193114       1.15268583
Si       5.00013694       4.83481292       9.08352623
Si       4.73673231       0.93828890       2.96170922
Si       3.63373053       0.24466838       1.28735391
Si       6.55061804       0.57465079       5.85115753
Si       7.09264196       7.43188269       5.61316855
Si       3.88762034       6.53686335       8.43535069
Si       5.08834622       1.75946444       4.84269675
Si       2.60204308       6.39439393       3.11275943
Si       1.70469910       6.07154360       8.25740742
Si       5.58260012       3.82842821       4.92106153
Si       5.10313175       4.85746164       6.94939514
Si       4.63509936       2.97595733       8.11690265
Si       1.91302323       5.76384733       0.82517580
Si       7.84739205       2.87700704       2.68814369
Si       3.19808558       4.57165860       7.98399635
Si       6.80449462       4.68310692       3.18922238
Si       1.60512497       0.38366914       0.64925293
Si       4.43662262       8.53760976       7.91254562
Si       5.74563215       2.81913894       3.05137959
24
Lattice="6.796053645989231 -2.139743647311706 0.03985967486049618 0.5329592619625284 8.975924027694983 0.04114612008477775 1.6515340822111442 2.884341408208189 9.039397778685755" Properties=species:S:1:pos:R:3 unique_starting_index=94 config_type=initial n_minim_iter=6 stress="0.004421794505572558 -0.004351238526832166 -0.0021249326872758573 -0.004351238526832166 -0.00037989913091675037 -0.0005084072803915814 -0.0021249326872758573 -0.0005084072803915814 0.0008038303047628071" pbc="T T T"
Si       7.09979374       5.91562654       7.15003158
Si       0.12890941       3.38251225       3.80950243
Si       2.10172135       7.53293357      -0.44324005
Si       5.31393347      10.19598173       6.93586076
Si       5.19589610       1.96434778       1.15363011
Si       4.99867437       4.82369997       9.08745342
Si       4.74130150       0.93001631       2.96161022
Si       3.63799729       0.24059723       1.28674770
Si       6.55815030       0.56488967       5.85369632
Si       7.09145788       7.42101599       5.61151442
Si       3.88423826       6.52805805       8.43683497
Si       5.09202510       1.74933830       4.84337778
Si       2.59462267       6.38822604       3.11145803
Si       1.69863543       6.06770756       8.25795931
Si       5.58410368       3.81972578       4.92127273
Si       5.10300145       4.84900241       6.94995904
Si       4.63741318       2.96780125       8.11872719
Si       1.90867885       5.75937195       0.82433096
Si       7.85106423       2.86615048       2.68900861
Si       3.19686412       4.56554061       7.98657475
Si       6.80592030       4.67455662       3.18817350
Si       1.60691989       0.38098877       0.64925070
Si       4.43197096       8.52626120       7.91414429
Si       5.74574444       2.81174441       3.05189640
24
Lattice="6.78187892209184 -2.12889017864655 0.054080052256889666 0.5473683918925791 8.97934971579401 0.042817077579368784 1.6729753696427245 2.888435406673645 9.043008784261641" Properties=species:S:1:pos:R:3 unique_starting_index=94 config_type=initial n_minim_iter=7 stress="0.001127384726443268 0.0007258798616096619 0.001877511899696508 0.0007258798616096619 0.0012799670761580893 0.0014623964756060436 0.001877511899696508 0.0014623964756060436 -0.0014000901114214817" pbc="T T T"
Si       7.11869726       5.93137216       7.16613146
Si       0.14922811       3.38144556       3.80939428
Si       2.11191922       7.53869216      -0.43520127
Si       5.33358607      10.20735768       6.94736106
Si       5.18973193       1.97281312       1.16594253
Si       5.01602414       4.83025417       9.10431348
Si       4.74379702       0.93453991       2.96996819
Si       3.63672241       0.24799725       1.29128712
Si       6.56371474       0.57581060       5.86945818
Si       7.10523836       7.43852792       5.62182059
Si       3.90701655       6.53774157       8.44664194
Si       5.09862001       1.75287761       4.85305007
Si       2.60211532       6.39474632       3.11501310
Si       1.72258894       6.07654950       8.26069289
Si       5.59229772       3.83085318       4.93189420
Si       5.11805563       4.86128320       6.96029585
Si       4.65429289       2.97696192       8.12863556
Si       1.91869796       5.76422427       0.82880966
Si       7.84511618       2.88025290       2.70622549
Si       3.21582463       4.57532136       7.99650343
Si       6.80962906       4.69226356       3.19933656
Si       1.60821791       0.38269408       0.65267183
Si       4.45758824       8.53291310       7.92705445
Si       5.74221729       2.82477621       3.06416227
24
Lattice="6.775903294160167 -2.1273318903651255 0.05505791824694337 0.5488927940836842 8.979026548351612 0.031549046088259966 1.6700383346409007 2.877429043991631 9.045620604258575" Properties=species:S:1:pos:R:3 unique_starting_index=94 config_type=initial n_minim_iter=8 stress="-0.0017170769338883706 0.0009886443878264236 -0.00024744541084260446 0.0009886443878264236 6.722998009809932e-05 -0.00467770790226304 -0.00024744541084260446 -0.00467770790226304 0.0013306492779565796" pbc="T T T"
Si       7.11451636       5.92471340       7.16230351
Si       0.15088454       3.37624010       3.80759324
Si       2.11282051       7.53890563      -0.44440845
Si       5.32840367      10.19924445       6.93821759
Si       5.18415719       1.97229924       1.16316755
Si       5.00994821       4.81984889       9.10437090
Si       4.74038919       0.93059512       2.96923289
Si       3.63452238       0.24610336       1.29126438
Si       6.55806518       0.57009282       5.87205019
Si       7.09994258       7.43353080       5.61293391
Si       3.90314932       6.52855152       8.44433674
Si       5.09460844       1.74669543       4.85261327
Si       2.59841973       6.39143849       3.10781160
Si       1.72037964       6.06772574       8.25822524
Si       5.58711498       3.82518632       4.92925003
Si       5.11320002       4.85428859       6.95871120
Si       4.65007042       2.96771588       8.12957182
Si       1.91857501       5.76331641       0.82236400
Si       7.83688428       2.87847575       2.70261113
Si       3.21138205       4.56684495       7.99674956
Si       6.80399859       4.69111334       3.19270789
Si       1.60745373       0.38191471       0.65265399
Si       4.45459532       8.52266404       7.92207876
Si       5.73563170       2.82174695       3.06126936
24
Lattice="6.771864231281528 -2.129415644841137 0.05293526342567407 0.5450877759031326 8.976862639727509 0.0443868095076472 1.6690182788159045 2.889034075169863 9.043608912370722" Properties=species:S:1:pos:R:3 unique_starting_index=94 config_type=initial n_minim_iter=9 stress="-0.006057990642513483 -0.003602038218366543 -0.0004936097238856205 -0.003602038218366543 0.0021359379947637905 -0.0005917236614045966 -0.0004936097238856205 -0.0005917236614045966 -0.0030514754124562615" pbc="T T T"
Si       7.12127111       5.93728398       7.16669682
Si       0.16088787       3.37991857       3.80772474
Si       2.11409360       7.53227178      -0.42701193
Si       5.31294365      10.20236995       6.94634638
Si       5.17040060       1.97054072       1.16673681
Si       5.00073900       4.83209962       9.10752973
Si       4.74387416       0.92567561       2.96574755
Si       3.63889517       0.23761783       1.29402785
Si       6.56009462       0.57774878       5.87309044
Si       7.09409603       7.44041253       5.60836779
Si       3.89880016       6.54330173       8.45245993
Si       5.09756373       1.74527284       4.84962115
Si       2.58117565       6.39607389       3.10975628
Si       1.71699598       6.08635118       8.25793689
Si       5.58000315       3.82407289       4.93269303
Si       5.10784505       4.86557655       6.96761401
Si       4.65198842       2.97611391       8.12767974
Si       1.91690870       5.76199785       0.83507748
Si       7.81858452       2.87761841       2.70454710
Si       3.20232118       4.58017295       8.00348648
Si       6.79474110       4.70068032       3.18925455
Si       1.60965375       0.38129562       0.65545019
Si       4.45434789       8.52490228       7.93433902
Si       5.72022386       2.81809089       3.06269222
24
Lattice="6.7833511762900205 -2.1188041734800196 0.05451621293394689 0.5546239635964829 8.959676871351256 0.046063911096263746 1.6775319759736464 2.8863616176610627 9.051191518210196" Properties=species:S:1:pos:R:3 unique_starting_index=94 config_type=initial n_minim_iter=10 stress="0.001057415812792769 -0.0004523305827914703 0.0008719800743694585 -0.0004523305827914703 -0.006330951931401587 -0.0006337587799568035 0.0008719800743694585 -0.0006337587799568035 -2.4387157825112146e-05" pbc="T T T"
Si       7.14683034       5.93548666       7.17475217
Si       0.16801606       3.37408231       3.81058275
Si       2.12724995       7.51814556      -0.42392032
Si       5.33276724      10.18787278       6.95374706
Si       5.18052230       1.97167954       1.16920593
Si       5.01608849       4.82848636       9.11692403
Si       4.75709414       0.92645247       2.96927691
Si       3.64822739       0.23842220       1.29614010
Si       6.57705970       0.58448745       5.88029755
Si       7.11714413       7.43396811       5.61222507
Si       3.91463510       6.53649292       8.46219221
Si       5.11259758       1.74603736       4.85420203
Si       2.58935221       6.38731104       3.11230460
Si       1.72803925       6.08004677       8.26450911
Si       5.59532883       3.82082225       4.93862711
Si       5.12421278       4.86320010       6.97687705
Si       4.66755272       2.97601203       8.13526343
Si       1.92677200       5.75240286       0.83881165
Si       7.83423897       2.87961796       2.70860012
Si       3.21357452       4.57639701       8.01249081
Si       6.81229702       4.70021825       3.19173590
Si       1.61446562       0.38196898       0.65725873
Si       4.47501539       8.51286721       7.94416532
Si       5.73261404       2.81720499       3.06711682
24
Lattice="6.789738837458283 -2.113210554026842 0.048791110657885974 0.5630533112774663 8.961518414943868 0.05108677556431077 1.6761221157048334 2.8936342922696614 9.048245488992253" Properties=species:S:1:pos:R:3 unique_starting_index=94 config_type=initial n_minim_iter=11 stress="-0.0024944507345620428 -0.0010113268026576473 -0.0005827782640157857 -0.0010113268026576473 -0.004622553954981813 9.799653536197837e-05 -0.0005827782640157857 9.799653536197837e-05 -0.0029565673691593847" pbc="T T T"
Si       7.17746512       5.95923696       7.16850246
Si       0.17757931       3.37966885       3.80950671
Si       2.15041514       7.51725156      -0.41326711
Si       5.33479536      10.19668948       6.94502137
Si       5.17676082       1.97844579       1.16215786
Si       5.01133334       4.83078708       9.11656574
Si       4.77228876       0.91583936       2.96872471
Si       3.65638017       0.23154492       1.29052806
Si       6.59084956       0.60037593       5.87895525
Si       7.13120446       7.44431179       5.59113466
Si       3.91328480       6.54757446       8.46868177
Si       5.12735972       1.74675833       4.84773781
Si       2.57260187       6.39624824       3.10425713
Si       1.72612990       6.10522499       8.25860741
Si       5.59841715       3.81902310       4.93529972
Si       5.12810037       4.87937291       6.98531319
Si       4.67368221       2.98527375       8.13095501
Si       1.93488730       5.75384103       0.85129302
Si       7.82776472       2.89111617       2.69996865
Si       3.21122454       4.58612525       8.01772752
Si       6.81199824       4.71350399       3.17546648
Si       1.62547062       0.38333995       0.66219584
Si       4.49393700       8.52380229       7.94882338
Si       5.73431682       2.82132818       3.06695627
24
Lattice="6.8061140433650635 -2.0998130790001746 0.0483811352538413 0.5802702621930026 8.955830955747246 0.051614555771487235 1.6856226410893527 2.894911695255835 9.042306400850636" Properties=species:S:1:pos:R:3 unique_starting_index=94 config_type=initial n_minim_iter=12 stress="-0.0026190880083170826 0.0011036431609103149 -0.000672791588074569 0.0011036431609103149 -0.003748847023087428 0.0018354691213793677 -0.000672791588074569 0.0018354691213793677 -0.0026444093177934356" pbc="T T T"
Si       7.22882603       5.98014101       7.16032071
Si       0.18799998       3.38085703       3.80818317
Si       2.18401996       7.51724900      -0.40474138
Si       5.36352347      10.20241907       6.93228496
Si       5.18777487       1.98734200       1.16136636
Si       5.02494649       4.83205960       9.11977128
Si       4.79650350       0.90878057       2.96469285
Si       3.67356877       0.23059364       1.28988980
Si       6.62019490       0.61698688       5.87914306
Si       7.16766886       7.45010077       5.57082006
Si       3.92810211       6.54769343       8.47194969
Si       5.15228074       1.74790754       4.84247564
Si       2.56894589       6.40058538       3.09418004
Si       1.74183015       6.11786483       8.24818420
Si       5.61842433       3.82126866       4.93603397
Si       5.14963406       4.89143540       6.98865742
Si       4.69104908       2.98317900       8.12127212
Si       1.95238390       5.75156316       0.85862404
Si       7.84382732       2.90662480       2.69289320
Si       3.22043291       4.59304518       8.01941100
Si       6.82674223       4.72208723       3.16212481
Si       1.63992416       0.38506771       0.66747747
Si       4.53305170       8.52402570       7.95036674
Si       5.75081501       2.82326663       3.06186296
24
Lattice="6.823229120656575 -2.088659185792699 0.06069037005381804 0.5952928020618821 8.952108612153268 0.049192183929366 1.7100539568925381 2.8924700463018707 9.054631950708256" Properties=species:S:1:pos:R:3 unique_starting_index=94 config_type=initial n_minim_iter=13 stress="-0.0004139008166391853 0.003953810907996584 -0.000675164459981777 0.003953810907996584 0.0029978564479420716 0.00040872740764622315 -0.000675164459981777 0.00040872740764622315 0.0018878830012736408" pbc="T T T"
Si       7.30423618       6.00650031       7.17061944
Si       0.20058904       3.38409350       3.81719319
Si       2.21651135       7.51413365      -0.38670944
Si       5.40287468      10.20028291       6.93149927
Si       5.19751803       1.99372365       1.17534699
Si       5.04004792       4.81981718       9.15064654
Si       4.83224139       0.89492399       2.96502177
Si       3.69794183       0.22461552       1.30354942
Si       6.66696426       0.62848732       5.90421899
Si       7.21419803       7.45233592       5.55962288
Si       3.95106828       6.54652630       8.50187008
Si       5.18426739       1.74284393       4.84829946
Si       2.55655347       6.41264138       3.08723224
Si       1.77546630       6.13289336       8.24918378
Si       5.64638275       3.82199382       4.95466663
Si       5.18035113       4.90327272       7.01286799
Si       4.72436223       2.99471379       8.13325931
Si       1.97427690       5.75115976       0.86354505
Si       7.85672211       2.91821641       2.69859620
Si       3.23850040       4.59534327       8.04487051
Si       6.82889402       4.72121158       3.16055696
Si       1.66514671       0.38934663       0.68188404
Si       4.59491982       8.51762935       7.97644208
Si       5.76981298       2.81819321       3.06839646
24
Lattice="6.836437303248031 -2.0857732664624873 0.061995829065289006 0.597608005572791 8.943959551891579 0.0443112618919297 1.7138453564802667 2.885096200702799 9.060114498862477" Properties=species:S:1:pos:R:3 unique_starting_index=94 config_type=initial n_minim_iter=14 stress="0.005198430187130051 0.0038128793577087336 -0.0023201092217153513 0.0038128793577087336 0.00995170939539369 -0.0004777159058058698 -0.0023201092217153513 -0.0004777159058058698 0.006769622337413609" pbc="T T T"
Si       7.33938046       6.01104387       7.16668895
Si       0.20087052       3.38258581       3.82262990
Si       2.23138170       7.50414622      -0.37973292
Si       5.41419667      10.18541274       6.93025911
Si       5.19732418       1.99085733       1.17290927
Si       5.03907515       4.81235250       9.16916256
Si       4.85419228       0.88428323       2.96243584
Si       3.70975089       0.21661632       1.30782951
Si       6.68891502       0.62622388       5.91137666
Si       7.23243987       7.44243230       5.54337353
Si       3.95470569       6.53892799       8.51685337
Si       5.19453229       1.73451163       4.84515357
Si       2.54126667       6.41710588       3.07902573
Si       1.78399694       6.13373592       8.24602110
Si       5.65805398       3.81163392       4.95057782
Si       5.18856120       4.90111703       7.02112151
Si       4.73210968       2.98816583       8.12762302
Si       1.98453310       5.74643364       0.85757126
Si       7.86577223       2.91367318       2.69152068
Si       3.24065051       4.58359656       8.05613176
Si       6.81785787       4.70774856       3.15450970
Si       1.68236152       0.39204934       0.69015658
Si       4.62141764       8.50274831       7.98694808
Si       5.77519097       2.81375916       3.07565199
24
Lattice="6.841993770623602 -2.0872454100726787 0.06505939286924144 0.593244563512572 8.934698166095998 0.02911192018792878 1.7126647925721759 2.8661243762231723 9.054888443650206" Properties=species:S:1:pos:R:3 unique_starting_index=94 config_type=initial n_minim_iter=15 stress="0.004416614890281491 0.0010402923546754387 -0.001713611222778995 0.0010402923546754387 0.009303240167172253 -0.0016568837625615762 -0.001713611222778995 -0.0016568837625615762 0.004840810494664881" pbc="T T T"
Si       7.34716512       5.99337857       7.15120749
Si       0.20019539       3.37464546       3.81796041
Si       2.23396284       7.49615453      -0.38771652
Si       5.41572832      10.15785648       6.91735345
Si       5.19137672       1.98533641       1.16474399
Si       5.03617707       4.79202443       9.16726547
Si       4.86652344       0.87625271       2.96384954
Si       3.71300430       0.20986976       1.30579482
Si       6.68997303       0.61200497       5.90626698
Si       7.23377549       7.42165084       5.52245180
Si       3.95341024       6.51945035       8.51280985
Si       5.18864999       1.71674847       4.84829176
Si       2.53040112       6.41666546       3.06563778
Si       1.78483756       6.11514310       8.23146845
Si       5.66080259       3.79852535       4.94175657
Si       5.18655730       4.88380941       7.01820156
Si       4.72409297       2.97149220       8.11931870
Si       1.98577851       5.73707236       0.84339367
Si       7.87027009       2.89653203       2.67908709
Si       3.24255947       4.55976302       8.05039942
Si       6.80072452       4.68771630       3.14828871
Si       1.69291178       0.39021463       0.68752548
Si       4.63087679       8.47507277       7.97598546
Si       5.77417995       2.80107712       3.06584369
24
Lattice="6.844956349950268 -2.0891006392771 0.0820201131536574 0.5899293392157269 8.93082015294483 0.02585491934635768 1.7331253809344924 2.8597353425222836 9.062754043873412" Properties=species:S:1:pos:R:3 unique_starting_index=94 config_type=initial n_minim_iter=16 stress="0.0035015594566865493 -0.0020104175832845283 0.0006879677637225986 -0.0020104175832845283 0.002511317682430018 0.00012392994037896336 0.0006879677637225986 0.00012392994037896336 0.0009827261030397696" pbc="T T T"
Si       7.36628289       5.98503006       7.16495635
Si       0.20660538       3.37518575       3.81992331
Si       2.23462284       7.48712836      -0.38581054
Si       5.43579740      10.14243739       6.93873349
Si       5.18928259       1.98310672       1.17257355
Si       5.05592699       4.78395089       9.18736212
Si       4.87752992       0.86731750       2.97472166
Si       3.72755127       0.21236724       1.31604183
Si       6.69700429       0.60596119       5.91790654
Si       7.24622510       7.41318756       5.53159573
Si       3.97282902       6.51140734       8.53062773
Si       5.19462190       1.71028632       4.86864329
Si       2.52162566       6.42221417       3.06694927
Si       1.80748834       6.10624555       8.23317583
Si       5.67346346       3.79122267       4.95322826
Si       5.20029148       4.87779775       7.04086726
Si       4.73784534       2.96812572       8.12799465
Si       1.98734146       5.72937803       0.84327999
Si       7.88213082       2.88954447       2.69164210
Si       3.26547793       4.55566921       8.05928419
Si       6.79212517       4.67855497       3.16898881
Si       1.69309884       0.39103094       0.69327397
Si       4.66045619       8.46356984       7.98966107
Si       5.78550016       2.79485623       3.07750452
24
Lattice="6.842653986897789 -2.08694525985601 0.09601488310994646 0.5932310617651619 8.932463976105254 0.01899913346058165 1.7499619100434192 2.8529286133627703 9.06845657324097" Properties=species:S:1:pos:R:3 unique_starting_index=94 config_type=initial n_minim_iter=17 stress="-0.0016488451061663066 -0.002285692873391884 0.0010561974756881814 -0.002285692873391884 -0.006218037819686182 0.0025451574899594243 0.0010561974756881814 0.0025451574899594243 -0.002842418724853415" pbc="T T T"
Si       7.38574646       5.98462968       7.17097473
Si       0.21264483       3.37873262       3.82053442
Si       2.24434214       7.48604340      -0.38615362
Si       5.45938698      10.13655387       6.95072707
Si       5.18767100       1.98581717       1.18283878
Si       5.06431400       4.77677930       9.20118467
Si       4.88996805       0.86161523       2.98271226
Si       3.73344122       0.21685878       1.31813380
Si       6.69814324       0.60228852       5.92585967
Si       7.25785342       7.41315264       5.52899935
Si       3.99189716       6.50704701       8.54658645
Si       5.19924069       1.71042779       4.88105868
Si       2.50719151       6.43648146       3.06251816
Si       1.82735127       6.10370494       8.22997241
Si       5.68171377       3.78272248       4.95990415
Si       5.21127405       4.87823295       7.06110073
Si       4.74827116       2.96542908       8.13280142
Si       1.99270914       5.72449695       0.84081594