24
Lattice="6.876187118761656 -1.8281299551023216 0.25130667438438464 0.6857353867918516 8.151685598826312 0.27330649333516766 2.066134408018841 2.9559361546041054 9.645416406399407" Properties=species:S:1:pos:R:3 unique_starting_index=94 config_type=initial n_minim_iter=3 energy=-3922.030536345983 free_energy=-3922.030536345983 pbc="T T T"
Si       8.43899666       5.84223133       7.93585302
Si      -0.30952421       3.04330953       3.70044425
Si       2.77356898       6.93743033       1.46676358
Si       6.34800887       9.56474245       7.82180083
Si       5.33186599       1.53795467       1.82760316
Si       5.91919680       4.56112598       9.94342600
Si       4.52216138       0.73551686       3.61594804
Si       3.68791624       0.06977552       1.76324916
Si       6.75633711       0.43451217       5.93399144
Si       7.15312531       6.48503834       6.37721856
Si       4.70780878       6.28858112       9.62119744
Si       5.43686803       2.07114052       5.52625326
Si       1.24474380       6.23687142       2.75911361
Si       3.03393250       6.08346736       7.96196523
Si       6.97088804       3.29314399       4.51306831
Si       6.31520643       5.46997657       8.06071313
Si       5.18140621       2.67573399       9.20746921
Si       1.96424790       4.95588701       1.19702958
Si       6.99746231       2.70144604       2.46794684
Si       4.41126828       4.53982936       8.45762843
Si       6.02237423       4.67654265       3.18954013
Si       1.92257029       0.90755456       0.83003184
Si       4.77945491       9.00043439       9.17967162
Si       5.15609264       2.76823122       3.54277912
