20
Lattice="7.966870196669675 0.5006781483132537 0.5208946757733235 0.1971122090597856 7.980153263930565 0.5208946757731769 0.19711220906036958 0.20476225097742376 7.994513731281278" Properties=species:S:1:pos:R:3 unique_starting_index=58 config_type=initial n_minim_iter=1 energy=-3266.0095099744985 free_energy=-3266.0095099744985 pbc="T T T"
Si       4.88852078       7.18581644       6.30554391
Si       6.99456317       6.09651921       5.40388906
Si       5.82590332       5.11394796       7.42966110
Si       2.53519129       1.46407645       3.63241402
Si       3.47257383       2.66928435       1.60664198
Si       1.36653144       3.52713659       2.73075917
Si       5.03122719       7.49205034       0.54499381
Si       7.29514409       0.33437632       5.33011714
Si       0.05649542       5.03702646       7.50774642
Si       8.30459919       1.38300897       3.70618595
Si       3.32986742       8.43743998       1.52855667
Si       1.06595052       3.37287892       8.49130927
Si       5.74608140       0.93186492       6.50548309
Si       0.71250540       6.27181481       6.03024121
Si       6.24015453       5.98790731       1.18851646
Si       2.12094008       7.73491167       3.00606187
Si       2.61501321       2.22207209       7.84778662
Si       7.64858921       2.90821019       2.53081999
Si       1.60604603       1.66837763       1.73574387
Si       6.75504858       7.01721603       7.30055921
20
Lattice="8.00729935644185 0.49895616185278047 0.5191031584441995 0.19385281681749922 8.020487598677345 0.5191031584440519 0.19385281681808653 0.20137635978616214 8.034745607134221" Properties=species:S:1:pos:R:3 unique_starting_index=58 config_type=initial n_minim_iter=2 stress="0.01660027491990195 -0.0002773452376599601 -0.00028854396409152 -0.0002773452376599601 0.016579149200155432 -0.0002997425267311819 -0.00028854396409152 -0.0002997425267311819 0.016555412753835725" pbc="T T T"
Si       4.90839170       7.21494939       6.33147459
Si       7.02291877       6.12160012       5.42586382
Si       5.84988690       5.13474671       7.45979716
Si       2.54511808       1.47001332       3.64708810
Si       3.48661328       2.67975304       1.61315476
Si       1.37208621       3.54139779       2.74147733
Si       5.05032853       7.52775752       0.54112241
Si       7.33009845       0.32969901       5.35039440
Si       0.05049120       5.05591297       7.54327248
Si       8.34451378       1.38348441       3.72255752
Si       3.34467646       8.47794752       1.52967945
Si       1.06490654       3.38765894       8.53182952
Si       5.77114199       0.93303206       6.53470431
Si       0.71271793       6.30002062       6.05646452
Si       6.26833182       6.01405921       1.19083878
Si       2.12667316       7.76885229       3.01648740
Si       2.62386300       2.22814639       7.88211314
Si       7.68228705       2.91834980       2.53824762
Si       1.61354817       1.67617093       1.74385185
Si       6.78145682       7.04464919       7.32910007
20
Lattice="8.021336715598096 0.4821177606631277 0.5015848514084614 0.1764923805837518 8.03387395219424 0.5015848514083132 0.17649238058434152 0.1833421547102091 8.04742839031285" Properties=species:S:1:pos:R:3 unique_starting_index=58 config_type=initial n_minim_iter=3 stress="0.03492132557558685 -0.019175049878722886 -0.019949305603162798 -0.019175049878722886 0.03346073900381473 -0.020723550003368327 -0.019949305603162798 -0.020723550003368327 0.03181965244329795" pbc="T T T"
Si       4.90707542       7.18950010       6.32158112
Si       6.99753802       6.11180476       5.42319031
Si       5.84106458       5.13309348       7.43397638
Si       2.53325689       1.47426223       3.62740778
Si       3.46724605       2.66714564       1.61662172
Si       1.37678346       3.52219541       2.72901697
Si       5.02077185       7.53288433       0.51449834
Si       7.33634641       0.30425659       5.32002388
Si       0.02482943       5.02535752       7.54734192
Si       8.34949204       1.35672301       3.73057422
Si       3.35354962       8.48326732       1.50325617
Si       1.03797506       3.39551283       8.53609976
Si       5.76176720       0.93138259       6.52947726
Si       0.71142644       6.29517078       6.04683433
Si       6.26353465       6.00449493       1.18898380
Si       2.11078682       7.74884117       3.00376376
Si       2.61255427       2.21181783       7.86161429
Si       7.66289503       2.90629432       2.52112083
Si       1.62205023       1.68500296       1.75304050
Si       6.75227124       7.01433090       7.29755759
20
Lattice="8.038690897457078 0.6275024058565243 0.6528398799645362 0.3211112335901767 8.05674861156022 0.6528398799643905 0.3211112335907565 0.33357375130438244 8.07626935231792" Properties=species:S:1:pos:R:3 unique_starting_index=58 config_type=initial n_minim_iter=4 stress="0.016346294502718264 0.005621058043336645 0.005848026755020724 0.005621058043336645 0.0167744572428036 0.0060749921470689815 0.005848026755020724 0.0060749921470689815 0.01725553253956263" pbc="T T T"
Si       5.15310547       7.38265515       6.56070123
Si       7.18118971       6.34071999       5.68565545
Si       6.06282456       5.38774775       7.63644067
Si       2.61808880       1.60052242       3.69629366
Si       3.52780789       2.75434559       1.74550844
Si       1.49972365       3.58748341       2.82124788
Si       5.13626236       7.63763953       0.73892415
Si       7.43663038       0.52378304       5.44820313
Si       0.24038023       5.14914114       7.66089423
Si       8.44053313       1.56664785       3.93374598
Si       3.54465100       8.58165263       1.72105488
Si       1.24428298       3.59461012       8.64302496
Si       5.88887622       1.17073552       6.66459299
Si       0.94576846       6.42479506       6.18819966
Si       6.38414643       6.13628967       1.43349502
Si       2.29676693       7.82822658       3.19374945
Si       2.79203714       2.40476849       7.94845409
Si       7.73514490       3.08865899       2.71735612
Si       1.68499218       1.75038773       1.82106540
Si       6.99592118       7.26743704       7.56088372
20
Lattice="7.733961696197002 0.5079270643206294 0.5284362906133238 0.21321990714928968 7.7476893776213895 0.5284362906131821 0.2132199071498542 0.22149509839761614 7.762530227105711" Properties=species:S:1:pos:R:3 unique_starting_index=58 config_type=initial n_minim_iter=5 stress="-0.0016001236316942476 -0.003002026685602764 -0.0031232433896567244 -0.003002026685602764 -0.0018287916087164975 -0.003244458320795055 -0.0031232433896567244 -0.003244458320795055 -0.0020857184839500656" pbc="T T T"
Si       4.87616885       6.90181546       6.19386588
Si       6.71123803       5.98584457       5.37633729
Si       5.72609166       5.09778569       7.14146408
Si       2.43430985       1.54292627       3.44306551
Si       3.28423265       2.56115668       1.67793873
Si       1.44916348       3.34180596       2.62553693
Si       4.71837110       7.25661877       0.49442766
Si       7.07178977       0.29657305       5.00677885
Si       0.02721995       4.72282858       7.27049860
Si       8.13318156       1.39915808       3.81262396
Si       3.44203041       8.27016986       1.54890421
Si       1.08861174       3.48598629       8.32497514
Si       5.55696305       1.07802017       6.30178261
Si       0.86575223       6.07553055       5.83890671
Si       6.03818021       5.79095953       1.32649812
Si       2.12222130       7.38076393       2.98049610
Si       2.60343846       2.22291341       7.49290468
Si       7.29464928       2.88314703       2.51762020
Si       1.47563477       1.53290504       1.59480112
Si       6.68476673       6.94420650       7.22460169
20
Lattice="7.6897791462961775 0.48704250199616006 0.5067084453751545 0.19403197489106605 7.702744011732599 0.5067084453750133 0.19403197489162874 0.20156247109095157 7.716760416725676" Properties=species:S:1:pos:R:3 unique_starting_index=58 config_type=initial n_minim_iter=6 stress="-0.019886761260791988 -0.006357870897596244 -0.006614590852381867 -0.006357870897596244 -0.02037104792063578 -0.006871307052385227 -0.006614590852381867 -0.006871307052385227 -0.020915182958056493" pbc="T T T"
Si       4.84199515       6.82127542       6.13561448
Si       6.63205692       5.92911111       5.33684765
Si       5.67241277       5.06154281       7.05868246
Si       2.40543032       1.53844662       3.39332966
Si       3.23584794       2.53041345       1.67149485
Si       1.44578617       3.29325755       2.59456283
Si       4.65516013       7.18930407       0.44681420
Si       7.00692952       0.25159726       4.93921951
Si      -0.01525480       4.65795411       7.20135284
Si       8.09309789       1.37992047       3.79095780
Si       3.42268296       8.22932027       1.52882447
Si       1.07091357       3.46595077       8.28336311
Si       5.50655826       1.06086334       6.24187221
Si       0.85052613       6.01768565       5.78555515
Si       5.98095670       5.73833881       1.30698445
Si       2.09688640       7.31241790       2.94462216
Si       2.57128483       2.19633555       7.42319286
Si       7.22731696       2.84840570       2.48830509
Si       1.43926014       1.49511868       1.55548901
Si       6.63858296       6.89623031       7.17468829
20
Lattice="7.724230994796292 0.4703764921052657 0.4893694905040249 0.17606687025485435 7.736536625809766 0.4893694905038828 0.17606687025542117 0.18290013007266798 7.749840579208786" Properties=species:S:1:pos:R:3 unique_starting_index=58 config_type=initial n_minim_iter=7 stress="-0.0207540258087644 -0.0006630061860217815 -0.0006897772420711206 -0.0006630061860217815 -0.02080452778599002 -0.0007165479065596273 -0.0006897772420711206 -0.0007165479065596273 -0.02086127082175886" pbc="T T T"
Si       4.86665682       6.82916325       6.11922855
Si       6.63900047       5.91175113       5.36112383
Si       5.65480111       5.08555161       7.06591583
Si       2.42156362       1.53063305       3.36745573
Si       3.20970791       2.54556289       1.66266373
Si       1.43736426       3.26677781       2.60935101
Si       4.67656512       7.17746571       0.40855124
Si       6.99428511       0.21253584       4.95862822
Si      -0.05380670       4.67790634       7.18800992
Si       8.13017143       1.39250658       3.76995134
Si       3.39979961       8.26554916       1.54056964
Si       1.08207962       3.44347610       8.32002832
Si       5.52345708       1.01676266       6.24083868
Si       0.80581427       6.01605123       5.80071055
Si       5.98102510       5.75525249       1.26287741
Si       2.09533963       7.35562384       2.92786901
Si       2.55290765       2.19408776       7.46570215
Si       7.27055046       2.83166177       2.48774088
Si       1.42888157       1.48433732       1.54427232
Si       6.64748316       6.90547593       7.18430724
20
Lattice="7.753426584584539 0.45304410897642444 0.4713372553831102 0.15763591788585643 7.765051428330219 0.4713372553829675 0.15763591788642686 0.16375386149437812 7.777619633652095" Properties=species:S:1:pos:R:3 unique_starting_index=58 config_type=initial n_minim_iter=8 stress="-0.025416404178588255 -0.00558330016474643 -0.005808744277869192 -0.00558330016474643 -0.025841690855719936 -0.0060341850936484155 -0.005808744277869192 -0.0060341850936484155 -0.026319534664281132" pbc="T T T"
Si       4.88564456       6.84445067       6.09293328
Si       6.65355418       5.88470275       5.37962397
Si       5.62721844       5.10350262       7.08015094
Si       2.44147998       1.50915544       3.34067017
Si       3.18305386       2.56447855       1.64014321
Si       1.41514424       3.23925817       2.62736087
Si       4.68745938       7.17684758       0.35945286
Si       6.99325281       0.16304613       4.96754004
Si      -0.10322127       4.68692651       7.18544976
Si       8.17191969       1.38745777       3.75275411
Si       3.38123904       8.30662080       1.53484439
Si       1.07544561       3.42464941       8.36084128
Si       5.51707601       0.96999598       6.24866889
Si       0.75932432       6.02419801       5.79287043
Si       5.99093530       5.74924423       1.21645714
Si       2.07776312       7.39380621       2.92742372
Si       2.55162241       2.17644956       7.50383701
Si       7.30937410       2.83185422       2.47162525
Si       1.41477327       1.46968147       1.52902469
Si       6.65392514       6.91216793       7.19126945
20
Lattice="7.823202367388667 0.5118403827907786 0.5325076221914486 0.21373406832012157 7.837014329871469 0.532507622191306 0.21373406832069317 0.22202921446890553 7.851946319367228" Properties=species:S:1:pos:R:3 unique_starting_index=58 config_type=initial n_minim_iter=9 stress="0.00241877417775515 -0.002190579741922747 -0.002279031605984608 -0.002190579741922747 0.0022519150886969614 -0.002367482176339997 -0.002279031605984608 -0.002367482176339997 0.0020644354734416404" pbc="T T T"
Si       5.07500350       7.00407117       6.19037947
Si       6.80585241       5.97434598       5.57862299
Si       5.71100056       5.29618974       7.24350180
Si       2.53966994       1.54259043       3.33833857
Si       3.17566700       2.66245837       1.67345976
Si       1.44481809       3.23299610       2.72658210
Si       4.76577488       7.24273407       0.42619475
Si       7.05611103       0.22654035       5.05088364
Si      -0.04216531       4.76762415       7.25392522
Si       8.29283581       1.51126315       3.86607792
Si       3.48489561       8.43157241       1.66303635
Si       1.19455947       3.53291766       8.49076682
Si       5.58883919       1.04512565       6.34248289
Si       0.83166840       6.11498827       5.87109415
Si       6.07890650       5.82440987       1.29523962
Si       2.17176399       7.50709377       3.04586742
Si       2.66183131       2.27471596       7.62172194
Si       7.41900210       2.94631827       2.57447868
Si       1.42260241       1.47781446       1.53748608
Si       6.82806809       7.09306947       7.37947548
20
Lattice="7.818380020471729 0.5325762280501581 0.5540807454237523 0.23463842003417762 7.832984641567982 0.5540807454236103 0.2346384200347472 0.24374487649001955 7.848773299227947" Properties=species:S:1:pos:R:3 unique_starting_index=58 config_type=initial n_minim_iter=10 stress="0.005241061722536267 -0.0029974953913325542 -0.00311852912947496 -0.0029974953913325542 0.005012738899644055 -0.003239561097374764 -0.00311852912947496 -0.003239561097374764 0.00475619983285269" pbc="T T T"
Si       5.10912357       7.05493149       6.20919848
Si       6.85537735       5.99172474       5.61537032
Si       5.72648191       5.33092416       7.29506685
Si       2.56117494       1.53086179       3.34156447
Si       3.17853329       2.68408813       1.66186794
Si       1.43227951       3.23538693       2.74773631
Si       4.76603275       7.24161803       0.44505061
Si       7.05498599       0.24537293       5.05184468
Si      -0.02330355       4.76860056       7.25355606
Si       8.31096041       1.55009247       3.90509011
Si       3.52162411       8.45110897       1.70337873
Si       1.23267087       3.57112428       8.51188418
Si       5.59933932       1.08060584       6.34897499
Si       0.86672327       6.12100674       5.88318456
Si       6.08358650       5.83509585       1.33094888
Si       2.20407035       7.51025706       3.07375023
Si       2.68831753       2.30805448       7.62598591
Si       7.42093359       2.97289726       2.60795980
Si       1.41897316       1.47404436       1.53356375
Si       6.86868369       7.13526139       7.42337104
20
Lattice="7.809276209054308 0.5808517151091223 0.60430551409825 0.2832254059590674 7.825724694471855 0.604305514098109 0.28322540595963264 0.29421755219897655 7.843506115253151" Properties=species:S:1:pos:R:3 unique_starting_index=58 config_type=initial n_minim_iter=11 stress="0.0024641263923263265 0.00722553748548806 0.007517292333352264 0.00722553748548806 0.003014504257946975 0.007809042914027725 0.007517292333352264 0.007809042914027725 0.0036328980840562098" pbc="T T T"
Si       5.17410144       7.12697783       6.27839201
Si       6.92489856       6.05818671       5.68572763
Si       5.79024989       5.39837778       7.36979433
Si       2.58547713       1.55034975       3.36638951
Si       3.20162558       2.70928742       1.68232281
Si       1.45082845       3.25920241       2.77372513
Si       4.78076376       7.27082674       0.51314950
Si       7.08361290       0.31279213       5.07035850
Si       0.04297732       4.78586660       7.28543615
Si       8.33274969       1.61040866       3.98175864
Si       3.59496326       8.47570722       1.76668100
Si       1.29211411       3.64678053       8.53896764
Si       5.63673882       1.16706848       6.38054778
Si       0.95169992       6.15094603       5.92506486
Si       6.11027005       5.87353873       1.41859296
Si       2.26545696       7.51569076       3.12705228
Si       2.73898819       2.37141542       7.63352418
Si       7.42402710       3.02372247       2.67156937
Si       1.43830444       1.49412589       1.55445614
Si       6.93742258       7.20666807       7.49766100
20
Lattice="7.799253209401837 0.5701010901642992 0.5931207973019081 0.27286402490871897 7.815299808790605 0.593120797301767 0.272864024909284 0.28345403979547656 7.832646882682603" Properties=species:S:1:pos:R:3 unique_starting_index=58 config_type=initial n_minim_iter=12 stress="0.0030194132210621715 -0.002679095604867436 -0.0027872729040984054 -0.002679095604867436 0.0028153432921943712 -0.002895448621127173 -0.0027872729040984054 -0.002895448621127173 0.0025860543037018544" pbc="T T T"
Si       5.15848573       7.10913099       6.24956774
Si       6.90765895       6.03002924       5.66831637
Si       5.76276893       5.38170411       7.35082107
Si       2.58221232       1.53670946       3.35057211
Si       3.18649553       2.70544401       1.66806740
Si       1.43732230       3.24354700       2.76932074
Si       4.76242806       7.25388315       0.49192162
Si       7.06737941       0.29233128       5.05056624
Si       0.02314911       4.76676244       7.26766597
Si       8.32183214       1.59547007       3.96832224
Si       3.58255319       8.46430911       1.75122251
Si       1.27760184       3.63380876       8.52696686
Si       5.62313564       1.15776097       6.35649973
Si       0.94291686       6.12746863       5.91017679
Si       6.08714393       5.85904491       1.40834131
Si       2.25783733       7.49342194       3.10871169
Si       2.72184562       2.36313737       7.61054717
Si       7.40206439       3.00573101       2.66238875
Si       1.43402283       1.48967811       1.54982877
Si       6.91095842       7.17917683       7.46905971
20
Lattice="7.803299230494227 0.5812547504576467 0.6047248233249511 0.28385562122210584 7.819767384766795 0.60472482332481 0.2838556212226703 0.294872226490716 7.837570059262735" Properties=species:S:1:pos:R:3 unique_starting_index=58 config_type=initial n_minim_iter=13 stress="0.0005870854888632278 -0.0008432425570968934 -0.0008772912495997104 -0.0008432425570968934 0.0005228546908592624 -0.0009113394441022038 -0.0008772912495997104 -0.0009113394441022038 0.00045068622006355316" pbc="T T T"
Si       5.19165492       7.13338653       6.25671941
Si       6.93063457       6.03582745       5.70264092
Si       5.76768853       5.41508472       7.37534057
Si       2.60332194       1.54056925       3.34437879
Si       3.17935555       2.72629700       1.67167914
Si       1.44037590       3.23651815       2.79030030
Si       4.77010647       7.26335411       0.50058625
Si       7.07655129       0.30067130       5.05893605
Si       0.03113402       4.77475053       7.27747232
Si       8.33987644       1.61302686       3.98808366
Si       3.60090400       8.48306539       1.76954738
Si       1.29445918       3.65281489       8.54643346
Si       5.63824343       1.17578827       6.36107457
Si       0.96035612       6.13141545       5.92612836
Si       6.09042419       5.87428859       1.42653549
Si       2.28058628       7.50288452       3.12089134
Si       2.73276704       2.38631877       7.62048422
Si       7.41065434       3.01698750       2.68594514
Si       1.44055069       1.49645932       1.55688379
Si       6.93045978       7.19943504       7.49013592
20
Lattice="7.809635565304608 0.5954938069842408 0.6195388286050585 0.2978432137175956 7.8266410392370815 0.6195388286049177 0.2978432137181595 0.3094026857594867 7.845024429233065" Properties=species:S:1:pos:R:3 unique_starting_index=58 config_type=initial n_minim_iter=14 stress="0.003947217586062596 -0.0019846691474636295 -0.0020648066938276427 -0.0019846691474636295 0.003796042954219113 -0.0021449430680992613 -0.0020648066938276427 -0.0021449430680992613 0.003626186088914302" pbc="T T T"
Si       5.22924594       7.16981860       6.26506457
Si       6.96560960       6.04262505       5.74189091
Si       5.77315013       5.45291100       7.41207427
Si       2.63217186       1.54100402       3.34221117
Si       3.17607605       2.75504294       1.67202781
Si       1.43971239       3.23321099       2.81903752
Si       4.78127732       7.28316811       0.50462507
Si       7.09592579       0.30423549       5.07100335
Si       0.03395827       4.78603704       7.29743060
Si       8.37136372       1.62917392       4.01309874
Si       3.62404467       8.51545682       1.78667149
Si       1.30939620       3.67654122       8.57947702
Si       5.66266215       1.20125885       6.36774906
Si       0.98487893       6.13708097       5.95174295
Si       6.09515231       5.89890508       1.45225020
Si       2.31016968       7.51380703       3.13235913
Si       2.74265984       2.41630038       7.63185189
Si       7.42044305       3.02726028       2.71635303
Si       1.45318868       1.50958780       1.57054238
Si       6.95213330       7.22194973       7.51355971
20
Lattice="7.798609600333368 0.597332613558787 0.6214518830446949 0.3001003144035262 7.815693043545666 0.6214518830445545 0.300100314404089 0.31174738586373885 7.8341606928422385" Properties=species:S:1:pos:R:3 unique_starting_index=58 config_type=initial n_minim_iter=15 stress="-0.008431106728816397 0.00035568384910442303 0.00037004575469666014 0.00035568384910442303 -0.008404013862971722 0.0003844074502388131 0.00037004575469666014 0.0003844074502388131 -0.008373572847755062" pbc="T T T"
Si       5.23822159       7.17004927       6.24080546
Si       6.96549851       6.01802974       5.74990203
Si       5.74857686       5.46095727       7.41134499
Si       2.65023336       1.53528659       3.32716243
Si       3.16058863       2.77252769       1.66571947
Si       1.43331171       3.21746858       2.83625900
Si       4.76888435       7.28491907       0.48967528
Si       7.09814714       0.28978472       5.05810417
Si       0.01943344       4.77308190       7.29858872
Si       8.37937679       1.62073966       4.01896029
Si       3.62992588       8.52369969       1.77847574
Si       1.30066309       3.68209409       8.58738918
Si       5.67039451       1.20650641       6.34879899
Si       0.98982841       6.11783214       5.95891349
Si       6.07572906       5.90590330       1.45674391
Si       2.32308116       7.50282922       3.11815097
Si       2.72841571       2.42867874       7.62032055
Si       7.40898181       3.01256932       2.72826547
Si       1.45283125       1.50921649       1.57015607
Si       6.94597898       7.21555655       7.50690838
20
Lattice="7.784733233962616 0.5844680828805143 0.6080679046162026 0.28777321054105776 7.801337131746296 0.6080679046160623 0.28777321054162064 0.29894185977815513 7.819286500970505" Properties=species:S:1:pos:R:3 unique_starting_index=58 config_type=initial n_minim_iter=16 stress="0.01093417024496326 0.001301468602078034 0.001354019678684185 0.001301468602078034 0.01103330467099867 0.0014065699866897747 0.001354019678684185 0.0014065699866897747 0.01114469017695471" pbc="T T T"
Si       5.22530546       7.14546245       6.17026988
Si       6.94142107       5.94809705       5.73327971
Si       5.67961117       5.44540518       7.38398677
Si       2.68066848       1.52198212       3.30214260
Si       3.13497419       2.80200932       1.65143554
Si       1.41885858       3.19128511       2.86515243
Si       4.74174015       7.29288513       0.43571995
Si       7.10714047       0.23693279       5.02916913
Si      -0.03372247       4.74389354       7.30441386
Si       8.39400212       1.57373831       4.00625318
Si       3.61853950       8.53790197       1.73100845
Si       1.25313918       3.66888948       8.59970236
Si       5.68197826       1.19962742       6.30001486
Si       0.98251354       6.06863860       5.96828811
Si       6.02684955       5.91563385       1.44794022
Si       2.33343010       7.47198503       3.06713420
Si       2.67830139       2.43712654       7.58748209
Si       7.37776611       2.96122979       2.73540745
Si       1.44574099       1.50185106       1.56249324
Si       6.91453866       7.18289601       7.47292907
20
Lattice="7.755737325971469 0.5471366970676481 0.5692291412815234 0.25157239665184894 7.770941472176243 0.5692291412813831 0.25157239665241227 0.2613360707988783 7.7873780335470775" Properties=species:S:1:pos:R:3 unique_starting_index=58 config_type=initial n_minim_iter=17 stress="-0.006236321577082398 -0.0013196596803365895 -0.0013729452816014414 -0.0013196596803365895 -0.006336841639369581 -0.001426230103504379 -0.0013729452816014414 -0.001426230103504379 -0.006449784019116803" pbc="T T T"
Si       5.16229528       7.06542520       6.06278397
Si       6.86383984       5.84330692       5.66306827
Si       5.57784955       5.37847366       7.29975964
Si       2.68103256       1.49816241       3.26276805
Si       3.09658683       2.80091167       1.62607668
Si       1.39504227       3.15196287       2.86305234
Si       4.68934409       7.26989679       0.34912144
Si       7.08616287       0.15250818       4.97255166
Si      -0.11728756       4.68827687       7.27801736
Si       8.37616967       1.49258091       3.95328466
Si       3.56953803       8.51819034       1.64781896
Si       1.17271924       3.61678964       8.57671488
Si       5.66041142       1.14419222       6.21369129
Si       0.92793930       5.98331873       5.94123038
Si       5.94366848       5.89088337       1.38913315
Si       2.31521363       7.42443400       2.98460594
Si       2.59847069       2.41585647       7.53670316
Si       7.33094281       2.87955793       2.71214502
Si       1.42337384       1.47861583       1.53831981
Si       6.83550827       7.10079841       7.38751651
20
Lattice="7.759152487964245 0.5508092830467465 0.5730500200022728 0.2551123476941545 7.774493931300407 0.5730500200021326 0.25511234769471797 0.26501340944384205 7.791078879466298" Properties=species:S:1:pos:R:3 unique_starting_index=58 config_type=initial n_minim_iter=18 stress="-0.002650324355247943 4.8127920305928614e-05 5.0071243415615615e-05 4.8127920305928614e-05 -0.002646658393759986 5.201453811172623e-05 5.0071243415615615e-05 5.201453811172623e-05 -0.0026425393909670332" pbc="T T T"
Si       5.17765626       7.07320896       6.05668177
Si       6.87103335       5.83659048       5.67846068
Si       5.57086421       5.39357974       7.30729587
Si       2.69851297       1.50213211       3.25871824
Si       3.09172092       2.81821943       1.62988305
Si       1.39834383       3.14721916       2.88049714
Si       4.68831870       7.28590057       0.33306433
Si       7.10219408       0.13648008       4.97150113
Si      -0.13391416       4.68661750       7.29337333
Si       8.40329134       1.48807369       3.96567779
Si       3.58105848       8.54577044       1.64380559
Si       1.16718309       3.62810760       8.60411459
Si       5.67823949       1.15066171       6.19953371
Si       0.93372560       5.96845766       5.95871748
Si       5.92859796       5.90815039       1.39503744
Si       2.34077922       7.43011986       2.97846144
Si       2.59113769       2.44116130       7.54214147
Si       7.33565158       2.87239895       2.73764521
Si       1.42681798       1.48219364       1.54204208
Si       6.84255920       7.10812299       7.39513684
20
Lattice="7.769116890690444 0.5591972597500946 0.5817766888613177 0.2631150222494163 7.7847703448201315 0.5817766888611774 0.2631150222499798 0.27332667255212595 7.801692506588835" Properties=species:S:1:pos:R:3 unique_starting_index=58 config_type=initial n_minim_iter=19 stress="0.001856169229880336 0.0004289636482313695 0.00044628446679986273 0.0004289636482313695 0.0018888439060161905 0.0004636050320430345 0.00044628446679986273 0.0004636050320430345 0.001925556534319871" pbc="T T T"
Si       5.20087956       7.09322221       6.06344559
Si       6.89014828       5.84240073       5.70267765
Si       5.57594277       5.41701329       7.32756106
Si       2.71940416       1.50978756       3.26256823
Si       3.09446737       2.83923036       1.63768482
Si       1.40519865       3.15022868       2.90180030
Si       4.69210866       7.31237539       0.32490935
Si       7.12850549       0.12814178       4.97596953
Si      -0.14324778       4.69005473       7.31950478
Si       8.43859471       1.48907634       3.98927636
Si       3.60323827       8.58194413       1.64574110
Si       1.16684144       3.65029046       8.64033654
Si       5.70435201       1.15932977       6.18752328
Si       0.94139359       5.95541122       5.98464510
Si       5.91526915       5.93377421       1.40322354
Si       2.38007778       7.44993160       2.98060078
Si       2.59099492       2.48048293       7.56202234
Si       7.35395334       2.87295311       2.77772260
Si       1.43665761       1.49241515       1.55267632
Si       6.85868932       7.12487913       7.41256956
20