24
Lattice="7.4501925557485205 -1.913229247778798 0.36828779600677963 0.8780920988309322 8.973223453430423 -0.2677300509461249 2.218571705318268 2.6098242163138012 9.057740906489531" Properties=species:S:1:pos:R:3 unique_starting_index=94 config_type=initial n_minim_iter=1 energy=-3897.3495776818127 free_energy=-3897.3495776818127 pbc="T T T"
Si       9.16452577       5.65609901       7.72458185
Si       1.15192569       3.26021792       2.67379667
Si       1.66563149       7.76252233      -0.05036392
Si       6.53173252       9.74060610       6.96508609
Si       5.06460686       1.89312453       0.87635560
Si       5.43908229       4.17339981       9.00099897
Si       5.18092944       1.57322083       2.96812257
Si       4.26638666       0.03501140       1.81116459
Si       7.85449134       1.10374636       6.70689802
Si       8.89725522       7.59408886       6.18554361
Si       4.85181671       6.12290034       8.30947906
Si       5.83377517       1.61794104       4.99060524
Si       3.09124529       6.11563252       2.49415379
Si       2.34948905       5.57239584       8.28233495
Si       6.16201824       4.17563253       4.77974624
Si       6.37054462       4.98026283       7.25827463
Si       4.57518533       2.38239124       8.22770500
Si       2.82065989       5.90370534       0.29424473
Si       8.59797584       3.45276999       2.76297486
Si       3.91657164       4.34716947       7.53997323
Si       8.07040701       5.27977144       3.92911396
Si       2.21454186       0.26727605       1.29206982
Si       4.86100935       8.01685248       7.23253668
Si       6.58002574       3.11534279       2.98488093
24
Lattice="7.2813175637763345 -1.8654399081849078 0.3817018356364105 0.9245121354282771 9.012675178458581 -0.2498438532794597 2.216486853209934 2.647768668623989 8.94828948690441" Properties=species:S:1:pos:R:3 unique_starting_index=94 config_type=initial n_minim_iter=2 stress="0.005664494931655296 0.0016930506739739246 0.0007379011200622907 0.0016930506739739246 -0.008357810166070314 -0.00914378955303184 0.0007379011200622907 -0.00914378955303184 -0.0022635932472170567" pbc="T T T"
Si       8.99270352       5.76452805       7.64819303
Si       1.14129914       3.30719638       2.69382239
Si       1.69331658       7.79919514      -0.03698902
Si       6.45234358       9.80464401       6.87933722
Si       5.08849116       1.97074095       0.88310291
Si       5.38533694       4.24654759       8.91042064
Si       5.04297651       1.58322769       2.97731386
Si       4.18354833       0.05895317       1.78973081
Si       7.71251369       1.13706474       6.63570145
Si       8.76695160       7.71618003       6.13035725
Si       4.77056083       6.16721116       8.19704110
Si       5.77781537       1.69743537       4.97726953
Si       3.10487002       6.17906240       2.49576182
Si       2.35385986       5.64584903       8.21236169
Si       6.09687655       4.24850855       4.75818001
Si       6.31775460       5.04849683       7.16209906
Si       4.53689623       2.46318726       8.11191509
Si       2.75178452       5.90996592       0.32455950
Si       8.49396187       3.55742718       2.70848083
Si       3.90591516       4.43185451       7.41715650
Si       7.94965182       5.31764428       3.90604982
Si       2.12401007       0.25572473       1.27984017
Si       4.86671944       8.12371965       7.18684878
Si       6.45719872       3.16509177       2.96495108
24
Lattice="7.181388231762033 -1.8765915207656374 0.36232783077065966 0.9192421330688785 9.105883978384671 -0.15490106731587794 2.19076357448753 2.7722075786555824 8.95761558573535" Properties=species:S:1:pos:R:3 unique_starting_index=94 config_type=initial n_minim_iter=3 stress="0.003496194978725528 0.000512654184768372 -0.00015696201350629663 0.000512654184768372 0.014894724227707217 0.002803577623148575 -0.00015696201350629663 0.002803577623148575 0.01216679645128824" pbc="T T T"
Si       8.85984816       5.91623649       7.69072408
Si       1.12183283       3.38334294       2.74205962
Si       1.68017028       7.88091232       0.04351614
Si       6.36183781       9.97432151       6.95852133
Si       5.05894154       2.01426928       0.90066798
Si       5.32708236       4.38985192       8.94749510
Si       4.95893731       1.62187557       3.00042118
Si       4.12760823       0.07720568       1.78210203
Si       7.60947117       1.20919847       6.63202298
Si       8.64936624       7.87646561       6.19573236
Si       4.69581824       6.32121680       8.23715110
Si       5.71821683       1.78195688       4.99798558
Si       3.07995848       6.27938443       2.56275399
Si       2.32434218       5.80419270       8.26479025
Si       6.02679511       4.35017388       4.80090004
Si       6.24837731       5.17896221       7.18982893
Si       4.48521242       2.58831988       8.11270180
Si       2.69827758       5.96353341       0.39483410
Si       8.39758170       3.63579561       2.72263522
Si       3.86181612       4.56641591       7.43002920
Si       7.84752614       5.40241581       3.95379838
Si       2.07761481       0.26277689       1.27693531
Si       4.81998226       8.30056682       7.26746715
Si       6.36613434       3.22688595       2.99113595
24
Lattice="7.061456542950758 -1.8621133006617223 0.34733611634790257 0.9084567775124766 9.06132456033941 -0.0904961036209861 2.1598697420266877 2.8213897661961447 8.849491702571305" Properties=species:S:1:pos:R:3 unique_starting_index=94 config_type=initial n_minim_iter=4 stress="-0.0301216243214899 -0.012225994330284831 0.005540395549271013 -0.012225994330284831 -0.017136040236089684 0.006539277594131744 0.005540395549271013 0.006539277594131744 -0.02882684838446721" pbc="T T T"
Si       8.69915163       5.94839745       7.62144884
Si       1.09773138       3.40201411       2.74755666
Si       1.65971555       7.84198154       0.09610294
Si       6.25045344       9.96596964       6.91939615
Si       5.01343810       2.02173890       0.90046973
Si       5.25769906       4.43052647       8.86675736
Si       4.86103409       1.62434521       2.98245347
Si       4.06175424       0.08768607       1.75349993
Si       7.48596904       1.23480063       6.54549895
Si       8.50496724       7.89369440       6.16003113
Si       4.60726212       6.35243615       8.15747714
Si       5.64426884       1.82180445       4.95375189
Si       3.04708520       6.27604931       2.57818149
Si       2.28973069       5.84358429       8.19763358
Si       5.94001417       4.36466974       4.76914816
Si       6.16231948       5.20272958       7.11207835
Si       4.42391427       2.64695826       8.00756816
Si       2.63353012       5.92373222       0.44126942
Si       8.27605522       3.64448287       2.69162931
Si       3.80306180       4.60213038       7.33574543
Si       7.72304244       5.38726183       3.93582219
Si       2.02358369       0.26038662       1.25551910
Si       4.75877717       8.32432941       7.23320696
Si       6.25335386       3.22640361       2.97443564
24
Lattice="6.999309941911033 -1.7672340326307454 0.3110365201723641 1.0101590856019713 9.041742272373417 -0.05966765383689537 2.1468262407911824 2.871060090500276 8.776604401489516" Properties=species:S:1:pos:R:3 unique_starting_index=94 config_type=initial n_minim_iter=5 stress="0.001831324106567402 0.006960411590652744 -0.00028357756962979946 0.006960411590652744 -0.012642518747666734 -0.0035477005023880517 -0.00028357756962979946 -0.0035477005023880517 -0.012147625218682276" pbc="T T T"
Si       8.64984531       6.07160092       7.53957474
Si       1.10328323       3.44767251       2.77642100
Si       1.74718141       7.83029017       0.11768391
Si       6.27837192      10.01594748       6.85513902
Si       5.07744992       2.09643004       0.87256194
Si       5.27541925       4.50830986       8.82201604
Si       4.80645762       1.66531264       2.96842507
Si       4.03977199       0.13918126       1.71278417
Si       7.43199923       1.31093907       6.45965728
Si       8.51110243       8.01313254       6.09587407
Si       4.59072436       6.42958446       8.08300652
Si       5.65222335       1.92853481       4.92149510
Si       3.12479205       6.32006770       2.58535990
Si       2.31062729       5.89999117       8.16134465
Si       5.95802403       4.43737454       4.72813376
Si       6.18725810       5.28169757       7.01857505
Si       4.42090921       2.75195562       7.91347334
Si       2.63942949       5.90910177       0.47482367
Si       8.29015636       3.74966533       2.61011674
Si       3.80239819       4.66834596       7.23336691
Si       7.73220049       5.43978698       3.88953528
Si       1.96652317       0.26603513       1.22607938
Si       4.82452673       8.40330835       7.20387577
Si       6.22223179       3.28839431       2.94492458
24
Lattice="6.963077927654852 -1.901584862038612 0.3354065138168314 0.85051679424861 9.062676075503648 -0.09899196387696226 2.097405153587079 2.8054425608940834 8.864516512954872" Properties=species:S:1:pos:R:3 unique_starting_index=94 config_type=initial n_minim_iter=6 stress="-0.012416430172476622 -0.022459916773468255 -0.0026825061007607924 -0.022459916773468255 -0.017072048641531598 -0.008807138951512646 -0.0026825061007607924 -0.008807138951512646 -0.001032549518128673" pbc="T T T"
Si       8.45804785       5.91341073       7.60789770
Si       1.02916037       3.44404220       2.82013510
Si       1.60735213       7.83114647       0.08477499
Si       6.05628075       9.91763960       6.89243233
Si       5.02481376       2.00899597       0.88050043
Si       5.18021238       4.39068727       8.91655786
Si       4.73286544       1.57313771       3.00936896
Si       4.00683032       0.06144591       1.72960371
Si       7.35356009       1.13303643       6.53491044
Si       8.30042612       7.87646716       6.13556543
Si       4.44558485       6.34604783       8.15222559
Si       5.59690667       1.82742928       4.98312836
Si       3.01687027       6.29168933       2.60513230
Si       2.21183340       5.85142813       8.23636034
Si       5.84667087       4.31835057       4.76818853
Si       6.06525815       5.15904636       7.07105726
Si       4.36752306       2.65622254       7.99060287
Si       2.49152006       5.87274101       0.48347433
Si       8.14915354       3.60429337       2.61623211
Si       3.69661840       4.59897817       7.28395459
Si       7.58384544       5.28819939       3.91747782
Si       1.92795136       0.21790460       1.23521372
Si       4.66395869       8.32378481       7.25452898
Si       6.10500041       3.16735866       2.98517546
24
Lattice="6.907006900285087 -1.8928336997512134 0.3901491520715612 0.8766401423274153 9.167629580428923 -0.04248587987396804 2.172831337532587 2.8919029364365545 8.858447779195735" Properties=species:S:1:pos:R:3 unique_starting_index=94 config_type=initial n_minim_iter=7 stress="-0.012274280229601362 -0.009330793514524238 0.010340970000434834 -0.009330793514524238 0.00630734236759532 -0.00034261099141613503 0.010340970000434834 -0.00034261099141613503 0.0020146373378059773" pbc="T T T"
Si       8.46020166       6.05789555       7.68077923
Si       1.04633540       3.51387801       2.86227209
Si       1.63155104       7.92256030       0.13623667
Si       6.10303878      10.09974939       6.96738279
Si       5.02654401       2.05052490       0.93845605
Si       5.24685717       4.51109739       8.94849904
Si       4.72669286       1.62848262       3.05195693
Si       3.99421795       0.09067194       1.74855859
Si       7.36129410       1.18786010       6.57696713
Si       8.31254251       8.03874331       6.21939822
Si       4.50344039       6.48528903       8.19386727
Si       5.62638380       1.91107060       5.02396642
Si       3.06467440       6.40232895       2.67231090
Si       2.29899266       5.97065306       8.25481222
Si       5.86925759       4.40166586       4.81972464
Si       6.10821385       5.27623943       7.11491637
Si       4.43488915       2.74902063       8.00299210
Si       2.47239485       5.94099579       0.56035724
Si       8.11165754       3.68901793       2.67985337
Si       3.74379260       4.71400366       7.30031812
Si       7.59180872       5.38117310       3.99274701
Si       1.91373630       0.23046121       1.24410042
Si       4.73250369       8.47281655       7.30976123
Si       6.09203259       3.23695803       3.06068727
24
Lattice="6.901660569614826 -1.869786440088249 0.25958631807121685 0.9041402968827336 9.16896416900803 0.05184567809319095 2.051883380206356 3.0047406935665366 8.811348267225037" Properties=species:S:1:pos:R:3 unique_starting_index=94 config_type=initial n_minim_iter=8 stress="-0.0029245463747213387 -0.0026484596995941787 0.004140196529174563 -0.0026484596995941787 0.015864497519733373 0.011602341890430638 0.004140196529174563 0.011602341890430638 0.01767111660557478" pbc="T T T"
Si       8.34251501       6.17557679       7.57683195
Si       0.99756668       3.56439643       2.90299365
Si       1.66263960       7.92152982       0.19586986
Si       6.03107918      10.21770636       6.95294494
Si       5.04091683       2.06239209       0.88654054
Si       5.14014403       4.63502737       8.86717707
Si       4.68539033       1.67717434       2.97944093
Si       3.97048731       0.13048122       1.66552601
Si       7.27049427       1.26174235       6.43789902
Si       8.23809784       8.14259152       6.14202220
Si       4.40040408       6.60052912       8.15886848
Si       5.58375083       2.00202147       4.92749075
Si       3.07246753       6.45875615       2.70934283
Si       2.20059792       6.08081462       8.25000462
Si       5.81954497       4.46419192       4.76049065
Si       6.02503610       5.37587566       7.03725914
Si       4.34816172       2.86471838       7.91855166
Si       2.45254903       5.94308157       0.60575253
Si       8.07193559       3.73889230       2.56313354
Si       3.65069763       4.82067780       7.25497726
Si       7.56890163       5.42979186       3.90673293
Si       1.89192970       0.25014952       1.20770108
Si       4.65803892       8.56949462       7.30406528
Si       6.05672686       3.27931235       2.99725458
24
Lattice="6.899438762805776 -1.892015099460369 0.14378822666311455 0.9189159495547863 9.309976517654206 0.022782652817478693 1.9179300280117113 3.0274808264111948 8.620394651995158" Properties=species:S:1:pos:R:3 unique_starting_index=94 config_type=initial n_minim_iter=9 stress="0.00026180082084440424 0.0037066130189391017 -0.002739313655065743 0.0037066130189391017 0.021767817328764698 -0.005040803592938366 -0.002739313655065743 -0.005040803592938366 -0.016851711681193628" pbc="T T T"
Si       8.20841776       6.25929594       7.29598946
Si       0.93761773       3.61855835       2.86331467
Si       1.68840209       8.03911538       0.14271101
Si       5.94287220      10.38414431       6.71705715
Si       5.04132127       2.07832843       0.78869601
Si       5.02315618       4.68811019       8.61916534
Si       4.63734996       1.69176529       2.84268399
Si       3.94520681       0.14330113       1.55644646
Si       7.17105601       1.24468564       6.20026801
Si       8.14746874       8.26331061       5.87571459
Si       4.28182035       6.68180025       7.93545756
Si       5.53463364       2.03982050       4.73810258
Si       3.06210090       6.56658606       2.62687000
Si       2.08627088       6.15558352       8.06450077
Si       5.75828642       4.51028000       4.57906827
Si       5.92600973       5.44261853       6.80235786
Si       4.24469886       2.89371610       7.70615589
Si       2.42379622       6.02362785       0.55408825
Si       8.02872363       3.80033348       2.36206123
Si       3.54594044       4.89112965       7.06720693
Si       7.53745482       5.49082748       3.69328578
Si       1.87393806       0.25641321       1.14861416
Si       4.56283283       8.67898578       7.09982229
Si       6.01815223       3.32489212       2.85303259
24
Lattice="6.887370843254684 -1.8051330641616747 0.10738893423062461 0.9787272505248822 9.15060518940498 0.0994638815727135 1.9064461414566927 3.0788236529585222 8.767197502693445" Properties=species:S:1:pos:R:3 unique_starting_index=94 config_type=initial n_minim_iter=10 stress="-0.001396322524989383 0.011634588318412012 -0.0013173030391517091 0.011634588318412012 -0.0065207231189473745 0.0016564023499264769 -0.0013173030391517091 0.0016564023499264769 0.010529197292145106" pbc="T T T"
Si       8.16618217       6.28848141       7.42533506
Si       0.90679589       3.60142756       2.99735216
Si       1.77226831       7.89356962       0.18157734
Si       5.99499813      10.36691372       6.88454565
Si       5.06457167       2.04993675       0.80354264
Si       5.03958498       4.73060460       8.76114738
Si       4.62675786       1.71002949       2.87306869
Si       3.94316459       0.21363699       1.53444478
Si       7.14708867       1.29466687       6.26980580
Si       8.15785124       8.24459512       5.98002634
Si       4.29980815       6.67354962       8.09563581
Si       5.57835408       2.12639536       4.79166611
Si       3.11054305       6.51403774       2.76109989
Si       2.11460278       6.14609386       8.22711074
Si       5.77451086       4.49967163       4.68337625
Si       5.93057038       5.46096188       6.92461215
Si       4.25703719       2.96697749       7.84498865
Si       2.40287913       5.92814582       0.61205813
Si       8.02897984       3.83197616       2.38131937
Si       3.55052275       4.92942381       7.22760324
Si       7.59370290       5.45461811       3.74095042
Si       1.87360575       0.29758456       1.14214035
Si       4.59967108       8.61792618       7.28319708
Si       6.03332659       3.33057090       2.92044780
24
Lattice="7.018164584553091 -1.8445356508261634 0.11263322993582485 0.9428165205511563 9.146290718701502 0.15149917098941879 1.9482589957389183 3.11679845115718 8.756291953800046" Properties=species:S:1:pos:R:3 unique_starting_index=94 config_type=initial n_minim_iter=11 stress="0.027608715603596325 0.005006286967667828 0.00535147403948824 0.005006286967667828 -0.00924882007352906 0.004367074101554186 0.00535147403948824 0.004367074101554186 0.005860968397944444" pbc="T T T"
Si       8.26672498       6.28405158       7.44835815
Si       0.88737525       3.62050245       3.03900825
Si       1.77045008       7.88418081       0.21535084
Si       6.06733485      10.39651306       6.92811499
Si       5.15508304       2.01059696       0.82596744
Si       5.12897987       4.74965102       8.75868926
Si       4.70775071       1.69929008       2.88087108
Si       4.01837891       0.21178678       1.51954901
Si       7.27488227       1.26679706       6.26492516
Si       8.25959415       8.23231067       6.00868337
Si       4.36909251       6.69310600       8.11903590
Si       5.70134026       2.13367810       4.78803034
Si       3.13369597       6.51367360       2.81581793
Si       2.14613269       6.18294098       8.23524251
Si       5.86602760       4.48305835       4.71100143
Si       6.01642380       5.46624864       6.94341409
Si       4.34625160       2.99631250       7.85270774
Si       2.39141441       5.90518883       0.64042298
Si       8.14572079       3.80597016       2.41131402
Si       3.60470575       4.94509481       7.24512616
Si       7.72215969       5.41653952       3.75869859
Si       1.90679088       0.30336750       1.13196173
Si       4.65532580       8.63172781       7.32673579
Si       6.12686544       3.30270053       2.94914011
24
Lattice="6.972310447216213 -1.8488964979535858 0.05453200484982781 0.9489486962277948 9.199770209737762 0.13193042418195636 1.8631045170364482 3.123009641395926 8.775090064783772" Properties=species:S:1:pos:R:3 unique_starting_index=94 config_type=initial n_minim_iter=12 stress="0.022109717406989554 0.005670706716535391 -0.002513857938894674 0.005670706716535391 -0.0026844490355557443 -0.005507341891959569 -0.002513857938894674 -0.005507341891959569 0.010456953291241784" pbc="T T T"
Si       8.10669279       6.31761302       7.39671557
Si       0.81299586       3.65511050       3.10190900
Si       1.78879940       7.93268151       0.16750558
Si       5.99675708      10.49849368       6.88933306
Si       5.14733104       2.00226429       0.78040876
Si       5.03488213       4.77572091       8.73632698
Si       4.66147428       1.71043680       2.85539836
Si       3.98169185       0.23992565       1.45177242
Si       7.16021248       1.23082663       6.21741931
Si       8.14866480       8.27855173       5.92824130
Si       4.29951959       6.71515208       8.12906734
Si       5.67474201       2.16672670       4.73631429
Si       3.08979901       6.54923683       2.83308606
Si       2.08257430       6.21096780       8.24274107
Si       5.80344185       4.48856425       4.68558985
Si       5.91288767       5.49475094       6.91654066
Si       4.27229337       3.02491344       7.86015386
Si       2.34550666       5.91155479       0.60070945
Si       8.06109294       3.84105829       2.35415349
Si       3.51999767       4.94794508       7.25749534
Si       7.68091174       5.41964796       3.67148840
Si       1.88411237       0.32325335       1.10057679
Si       4.58517481       8.68410669       7.32666370
Si       6.06811351       3.30281535       2.91938524
24
Lattice="6.9479831571829065 -1.8795601079817696 -0.003697308302194358 0.917790456473005 9.232164133121525 0.1677410017334895 1.7865066157110956 3.1679906324663984 8.762337974867272" Properties=species:S:1:pos:R:3 unique_starting_index=94 config_type=initial n_minim_iter=13 stress="0.015369901101042707 0.0022099294801707094 -5.0867475458722706e-05 0.0022099294801707094 -0.0036446242856612836 0.0013175520459870436 -5.0867475458722706e-05 0.0013175520459870436 0.0034276155772257253" pbc="T T T"
Si       7.95277384       6.35010502       7.35116840
Si       0.73128703       3.70139938       3.16998915
Si       1.77510147       7.95369885       0.17282138
Si       5.90127522      10.58332607       6.87696933
Si       5.15432767       1.98337255       0.75422949
Si       4.95928464       4.82917189       8.71149591
Si       4.61383883       1.70184399       2.82591369
Si       3.95614387       0.25959164       1.38816059
Si       7.06552833       1.19930683       6.15023720
Si       8.03096289       8.31193828       5.87733659
Si       4.21559706       6.75625162       8.12891811
Si       5.66052888       2.19817932       4.68386079
Si       3.03416680       6.57652339       2.87249284
Si       2.00967950       6.27183039       8.24424850
Si       5.74731101       4.48844504       4.66155835
Si       5.81776727       5.52691635       6.88491467
Si       4.21226376       3.06660978       7.83293222
Si       2.27337208       5.90675988       0.61583104
Si       7.99099389       3.83928425       2.30255875
Si       3.43410356       4.98160096       7.24939790
Si       7.63153446       5.40644813       3.61614858
Si       1.85466179       0.33207352       1.07295589
Si       4.50614381       8.74180773       7.33378751
Si       6.01409617       3.29598997       2.90520256
24
Lattice="6.926403993141961 -1.918211833746712 -0.055239759219559155 0.879348319015142 9.263692407059017 0.15346558860389972 1.7027267717511578 3.1610652531974845 8.749627352380731" Properties=species:S:1:pos:R:3 unique_starting_index=94 config_type=initial n_minim_iter=14 stress="-5.792449003352264e-05 0.004236269772794146 0.0019953208645396643 0.004236269772794146 -0.004296255360758024 0.00937286270122998 0.0019953208645396643 0.00937286270122998 0.0011235283623533873" pbc="T T T"
Si       7.79935317       6.33180439       7.28270235
Si       0.63969155       3.73041434       3.22068931
Si       1.75219980       7.97005001       0.13361579
Si       5.79962934      10.61985033       6.81649091
Si       5.15997523       1.96800581       0.72499238
Si       4.87970540       4.83246666       8.68585452
Si       4.57476943       1.67216545       2.78376459
Si       3.92745929       0.26565707       1.32352983
Si       6.95849511       1.13712630       6.08118142
Si       7.90804108       8.29719085       5.79190695
Si       4.12824906       6.74732714       8.10735007
Si       5.63876929       2.17501946       4.63599428
Si       2.95344259       6.56972198       2.87158778
Si       1.92804087       6.28192805       8.22171471
Si       5.68857927       4.46044835       4.61697838
Si       5.70911563       5.51431477       6.84074821
Si       4.13929709       3.04677159       7.80522636
Si       2.21350393       5.90654845       0.58701295
Si       7.91523115       3.80277678       2.24720574
Si       3.33387564       4.96806208       7.23201931
Si       7.57043407       5.38181934       3.54313070
Si       1.82732639       0.33827152       1.04474714
Si       4.41686435       8.75293336       7.30330669
Si       5.96987692       3.27660412       2.86016010
24
Lattice="6.898906849055291 -2.002183334666239 -0.1285837263109702 0.8016158001856167 9.344713392718953 0.0886528794265097 1.5662179242948542 3.111546959001041 8.689325210195634" Properties=species:S:1:pos:R:3 unique_starting_index=94 config_type=initial n_minim_iter=15 stress="-0.016157931692911177 -0.0001572869739996884 -0.00528283378826141 -0.0001572869739996884 0.013759608531773358 0.001030376035774517 -0.00528283378826141 0.001030376035774517 0.010053136882142896" pbc="T T T"
Si       7.58375511       6.26887825       7.12718147
Si       0.51497399       3.76151002       3.23839052
Si       1.68985604       8.01747647       0.04613142
Si       5.60888878      10.63965645       6.65646596
Si       5.14719843       1.95235139       0.66430037
Si       4.73172237       4.80506573       8.58260390
Si       4.51820920       1.61513750       2.70699203
Si       3.88402960       0.22075976       1.24732204
Si       6.80516240       1.02434093       5.94892749
Si       7.71504850       8.25122305       5.61634806
Si       3.97463775       6.71869413       8.01128756
Si       5.57697303       2.09065461       4.54442382
Si       2.81034047       6.55343850       2.80644867
Si       1.78374606       6.26829790       8.13083281
Si       5.58668397       4.40655085       4.50583105
Si       5.53245149       5.46317558       6.72913015
Si       4.00697934       2.97607376       7.72185965
Si       2.12927087       5.94159626       0.52593809
Si       7.82378842       3.72474873       2.12907628
Si       3.17539989       4.91251617       7.16069668
Si       7.44727904       5.34818577       3.41034597
Si       1.79140233       0.33632682       1.00532933
Si       4.25802635       8.74978560       7.17691256
Si       5.88121287       3.23203723       2.76177686
24
Lattice="6.92528588987879 -2.031585988361736 -0.15746303214139254 0.7745984539965172 9.360345745809926 0.08390444678740812 1.5295714400202092 3.106944880862224 8.647035728566076" Properties=species:S:1:pos:R:3 unique_starting_index=94 config_type=initial n_minim_iter=16 stress="-0.0190642966897769 0.0028146082741168075 -0.012020724704714283 0.0028146082741168075 0.012080010142675493 0.007225222291635624 -0.012020724704714283 0.007225222291635624 0.0017327715779729932" pbc="T T T"
Si       7.54494918       6.25211177       7.06212810
Si       0.46600424       3.77332904       3.25181623
Si       1.67600202       8.02078438       0.02691660
Si       5.56107913      10.64586465       6.60172927
Si       5.17353923       1.94887698       0.64575850
Si       4.70945045       4.79918248       8.53526554
Si       4.52535554       1.59596316       2.68126632
Si       3.88428108       0.19979992       1.20941514
Si       6.79149080       0.99125817       5.87727684
Si       7.68424706       8.23143326       5.55180145
Si       3.94144049       6.71053678       7.96607176
Si       5.59195710       2.06451786       4.49801881
Si       2.77128050       6.53982807       2.78993956
Si       1.74760853       6.26876724       8.08172090
Si       5.58344644       4.39030568       4.46441265
Si       5.49854770       5.44894263       6.67410702
Si       3.98571235       2.96754551       7.67910220
Si       2.10652980       5.94752242       0.51419878
Si       7.82988967       3.68874844       2.08780341
Si       3.13389757       4.90275877       7.12843181
Si       7.43963256       5.33548193       3.36396852
Si       1.78944683       0.34004542       0.98658535
Si       4.22749109       8.75538452       7.12847135
Si       5.88371215       3.21656596       2.72491455
24
Lattice="6.979126681343283 -2.082816474526885 -0.10642720852436308 0.7210449729764009 9.365480747556882 0.03698171654116703 1.5743129092413741 3.042803917700111 8.625225157283861" Properties=species:S:1:pos:R:3 unique_starting_index=94 config_type=initial n_minim_iter=17 stress="0.00232302801414616 -0.0037309538253411864 0.005318916522173994 -0.0037309538253411864 0.03226414930802699 -0.003453241714997891 0.005318916522173994 -0.003453241714997891 0.0106569265978363" pbc="T T T"
Si       7.58726084       6.16196444       7.05677394
Si       0.43829181       3.75814385       3.25757647
Si       1.64089426       8.00992496      -0.01922400
Si       5.56007239      10.58165302       6.56231484
Si       5.21046931       1.92802815       0.67317574
Si       4.77618562       4.72758241       8.53488726
Si       4.57256133       1.53694469       2.69689223
Si       3.90568938       0.15009639       1.21868173
Si       6.85901849       0.89976649       5.88315768
Si       7.70861149       8.14178634       5.53607095
Si       3.98151211       6.63582823       7.94490635
Si       5.65734692       1.98966527       4.50094063
Si       2.74940236       6.49231814       2.77041422
Si       1.77759963       6.20854130       8.03297846
Si       5.62976243       4.33138529       4.47214789
Si       5.52839601       5.37056443       6.65953257
Si       4.04354338       2.89719640       7.67614929
Si       2.08290600       5.94418897       0.48868368
Si       7.86695920       3.59772373       2.11222454