14
Lattice="5.378934822566116 0.2632285385333742 0.8757627846823123 2.877951276934535 6.327114600329026 -0.5580659376044603 1.0966848060802388 1.1525758045516041 9.01974290985574" Properties=species:S:1:pos:R:3 unique_starting_index=86 config_type=initial n_minim_iter=1 energy=-2283.541949882789 free_energy=-2283.541949882789 pbc="T T T"
Si       5.66422715       3.58053283       7.02900265
Si       5.46946644       1.33677100       4.36774601
Si       4.48465013       3.69144908       3.35909066
Si       6.37861014       2.76050782       3.06600235
Si       4.84964439       4.19781082       8.96173549
Si       2.28479878       1.70169164       0.68060639
Si       3.30019764       5.34546947       2.45777349
Si       7.60860835       2.67853073       7.39629877
Si       2.94466623       3.32557282       1.90749506
Si       5.32376030       5.64430441       7.46696651
Si       2.43856089       1.39918893       8.45538230
Si       6.79467838       4.71104941       3.78998823
Si       4.31614439       2.83746425       5.43631227
Si       3.62938857       6.81220859       0.94198971
14
Lattice="5.381518509294697 0.267313611716886 0.8772700175099092 2.8838109265127745 6.327098797498466 -0.5570076578858054 1.0997655050842337 1.154114989605062 9.024493811116244" Properties=species:S:1:pos:R:3 unique_starting_index=86 config_type=initial n_minim_iter=2 stress="0.0031525797418845074 0.002405848988269667 -4.383263576168891e-05 0.002405848988269667 0.002128784375691899 8.533332996035325e-05 -4.383263576168891e-05 8.533332996035325e-05 0.0016551858394384478" pbc="T T T"
Si       5.67063964       3.58429298       7.03400194
Si       5.47361535       1.34075403       4.37091321
Si       4.49062357       3.69442848       3.36223141
Si       6.38281880       2.76424837       3.06936690
Si       4.85659854       4.20130104       8.96749088
Si       2.28733869       1.70304113       0.68138035
Si       3.30631242       5.34695842       2.45993082
Si       7.61510619       2.68441994       7.40183798
Si       2.94868871       3.32702277       1.90922964
Si       5.33157504       5.64706985       7.47220211
Si       2.44228212       1.40133679       8.46069709
Si       6.80203491       4.71572740       3.79385947
Si       4.32134287       2.83996405       5.44005899
Si       3.63593055       6.81265201       0.94387605
14
Lattice="5.379738392732137 0.26689813382601124 0.8777551490719614 2.8823948566337636 6.323649579597921 -0.5564341238009956 1.100197064799146 1.1538320933110122 9.02414874074987" Properties=species:S:1:pos:R:3 unique_starting_index=86 config_type=initial n_minim_iter=3 stress="-0.0015502400106338602 0.0017240691582634884 0.001550109067789541 0.0017240691582634884 -0.004186018774966323 0.0002113119160193824 0.001550109067789541 0.0002113119160193824 -0.0016426162936020684" pbc="T T T"
Si       5.66916260       3.58221317       7.03432709
Si       5.47210397       1.33979203       4.37110827
Si       4.48953233       3.69286951       3.36275010
Si       6.38017630       2.76218237       3.07014020
Si       4.85552999       4.19932539       8.96762344
Si       2.28662610       1.70216212       0.68149470
Si       3.30527295       5.34438228       2.46005346
Si       7.61296722       2.68301868       7.40239782
Si       2.94748073       3.32524310       1.90944179
Si       5.33004144       5.64392412       7.47243191
Si       2.44221841       1.40065662       8.46105791
Si       6.80006381       4.71358253       3.79456710
Si       4.32041800       2.83805504       5.44022124
Si       3.63419822       6.80892503       0.94428708
14
Lattice="5.376736845816881 0.26039830426109967 0.8755813309111096 2.8736852817692147 6.3228669564399 -0.5581424564584798 1.0933672811586828 1.1534991379670207 9.031495509057995" Properties=species:S:1:pos:R:3 unique_starting_index=86 config_type=initial n_minim_iter=4 stress="-0.0007042680966727119 -0.0017717732204374727 0.0008393135911351518 -0.0017717732204374727 0.0026799957424317004 0.004328428353673148 0.0008393135911351518 0.004328428353673148 0.0017631488394652456" pbc="T T T"
Si       5.65855912       3.57577643       7.03755039
Si       5.46572899       1.33320485       4.37145207
Si       4.48238369       3.69240349       3.36411370
Si       6.37007630       2.75349301       3.07047859
Si       4.84328956       4.19625827       8.97301601
Si       2.28377963       1.70069862       0.68010329
Si       3.29713259       5.34394987       2.45911200
Si       7.60198659       2.67591380       7.40559870
Si       2.93994058       3.32315578       1.90918846
Si       5.31618883       5.63889969       7.47556156
Si       2.43507088       1.39785737       8.47044793
Si       6.79092255       4.71055288       3.79478946
Si       4.31340096       2.83169326       5.44232261
Si       3.62274367       6.80728926       0.94213516
14
Lattice="5.376573340907457 0.2578206448957679 0.8719282851021084 2.872580399982976 6.321173531452437 -0.5676795367933711 1.0874312943613185 1.1419885414027477 9.03019311117105" Properties=species:S:1:pos:R:3 unique_starting_index=86 config_type=initial n_minim_iter=5 stress="0.0009204809238623691 -0.0012265063478030744 -0.0015512425391684523 -0.0012265063478030744 -0.0007314529973131272 -0.0015586151759647351 -0.0015512425391684523 -0.0015586151759647351 0.0019129811599989356" pbc="T T T"
Si       5.65359332       3.56391675       7.03026435
Si       5.46279274       1.32541194       4.36669008
Si       4.48010787       3.68852881       3.35743924
Si       6.36699590       2.74659537       3.06375588
Si       4.83692876       4.18353695       8.96563399
Si       2.28320221       1.69926433       0.67640404
Si       3.29539759       5.33930238       2.44967513
Si       7.59690442       2.66469450       7.39876124
Si       2.93731720       3.31934529       1.90328017
Si       5.30997982       5.62610809       7.46545015
Si       2.42964025       1.38580330       8.47001073
Si       6.78872439       4.70449157       3.78516924
Si       4.31043968       2.82141425       5.43628434
Si       3.61990597       6.80336529       0.93065202
14
Lattice="5.37394421884493 0.26009058484300196 0.8720503423348679 2.873503200192631 6.329494676990683 -0.5681665135903229 1.089809059506626 1.1407180782668227 9.016922922841797" Properties=species:S:1:pos:R:3 unique_starting_index=86 config_type=initial n_minim_iter=6 stress="-0.0019600788952592934 0.0012377409406642043 0.0005806537953266201 0.0012377409406642043 0.0034837976067277846 -0.0012238046402028011 0.0005806537953266201 -0.0012238046402028011 -0.003646254808800139" pbc="T T T"
Si       5.65375224       3.56579902       7.02051126
Si       5.46056567       1.32646551       4.36179587
Si       4.48076522       3.69871140       3.35309920
Si       6.36496961       2.75172663       3.06068267
Si       4.83882165       4.18870934       8.95222557
Si       2.28220944       1.70272354       0.67587426
Si       3.29932406       5.34671166       2.44242205
Si       7.59519835       2.66930542       7.39076613
Si       2.93593022       3.32432880       1.90052109
Si       5.31037847       5.62975120       7.45317558
Si       2.43104685       1.38294819       8.46119062
Si       6.78966965       4.71335746       3.77962183
Si       4.31271190       2.82041561       5.42770452
Si       3.61950205       6.81152052       0.92589143
14
Lattice="5.37701836690183 0.25784612184418765 0.872376288462473 2.8725240454402727 6.321069055568046 -0.5659409704050846 1.0891850299689487 1.1431195232161353 9.024286667306447" Properties=species:S:1:pos:R:3 unique_starting_index=86 config_type=initial n_minim_iter=7 stress="0.0036313860124284 -0.0006860939966043874 0.0009533329683227565 -0.0006860939966043874 -0.0027675120528950783 0.0007798316589496592 0.0009533329683227565 0.0007798316589496592 -0.0025812759266575663" pbc="T T T"
Si       5.65468046       3.56011859       7.02721617
Si       5.46191926       1.32319904       4.36562824
Si       4.48192725       3.70091144       3.35747610
Si       6.36693991       2.74881103       3.06491665
Si       4.83939166       4.18765801       8.96038029
Si       2.28191594       1.70114407       0.67754354
Si       3.30228378       5.34095240       2.44306066
Si       7.59727854       2.66745273       7.39921653
Si       2.93472586       3.32204263       1.90441633
Si       5.30915030       5.62227484       7.45974453
Si       2.43097431       1.38017296       8.47078962
Si       6.79309113       4.70855584       3.78340407
Si       4.31597177       2.81298976       5.43173112
Si       3.61673583       6.80284501       0.92741075
14
Lattice="5.369941574187781 0.2581537155504226 0.8717756849078456 2.8694310485192918 6.322034498544871 -0.56788488825419 1.0852250742207576 1.1426553375698376 9.034105256647944" Properties=species:S:1:pos:R:3 unique_starting_index=86 config_type=initial n_minim_iter=8 stress="-0.003022678484704863 0.0011418433248915499 -0.0002275938651817837 0.0011418433248915499 -0.000978500396070636 -0.00015762810883595838 -0.0002275938651817837 -0.00015762810883595838 0.002322803485924523" pbc="T T T"
Si       5.64538987       3.55876622       7.03329551
Si       5.45333931       1.32265359       4.36889226
Si       4.47605725       3.70518432       3.35973093
Si       6.35715329       2.75058124       3.06719270
Si       4.83074070       4.18837194       8.96924376
Si       2.27824953       1.70212466       0.67800412
Si       3.29982810       5.34142637       2.44281475
Si       7.58525341       2.66825565       7.40666020
Si       2.93045292       3.32344678       1.90612419
Si       5.29979038       5.62146234       7.46512889
Si       2.42543499       1.37725104       8.48052271
Si       6.78459856       4.71004133       3.78486094
Si       4.31041449       2.81026915       5.43581202
Si       3.61110719       6.80447039       0.92582450
14
Lattice="5.369246391616618 0.2523851849171975 0.8699248158998664 2.8626966958983684 6.32434376649526 -0.5699975270197661 1.0826234195941273 1.1391548513699312 9.023611696932186" Properties=species:S:1:pos:R:3 unique_starting_index=86 config_type=initial n_minim_iter=9 stress="0.00025322722414138006 0.0008745399707202949 -0.00024039482894177948 0.0008745399707202949 -0.0013870751141938594 -0.00043783489289722145 -0.00024039482894177948 -0.00043783489289722145 -0.0016293180885260253" pbc="T T T"
Si       5.63869447       3.54744712       7.02347944
Si       5.45095571       1.31410610       4.36091923
Si       4.47291936       3.71618859       3.35384209
Si       6.34812677       2.74813147       3.06543821
Si       4.82311675       4.18462396       8.96096924
Si       2.27298154       1.70401698       0.67882809
Si       3.30184949       5.34095826       2.43292765
Si       7.58021497       2.66132650       7.40251509
Si       2.92948133       3.32437881       1.90274660
Si       5.28965074       5.61290221       7.44925631
Si       2.42286249       1.36332112       8.47168134
Si       6.78135218       4.70787476       3.77632895
Si       4.31080373       2.79604925       5.42616906
Si       3.59898718       6.81087349       0.91937503
14
Lattice="5.367340993168732 0.24599062191707313 0.8739956340239597 2.8540073038137637 6.325724683778524 -0.5720967083750387 1.0865253644336323 1.1339035542845286 9.032349082451745" Properties=species:S:1:pos:R:3 unique_starting_index=86 config_type=initial n_minim_iter=10 stress="0.0003304678099347898 -4.554373300735839e-05 0.0023194616352335794 -4.554373300735839e-05 -0.0011050740117789371 -0.001247266237262508 0.0023194616352335794 -0.001247266237262508 0.0019363473133710053" pbc="T T T"
Si       5.63470231       3.53635376       7.03272751
Si       5.45163511       1.30184345       4.36491600
Si       4.47065246       3.72274859       3.35852334
Si       6.34235927       2.74463584       3.07233245
Si       4.82161478       4.17800469       8.97189476
Si       2.26631485       1.70446584       0.68154450
Si       3.30171813       5.34208535       2.43261239
Si       7.57884348       2.65143227       7.41841233
Si       2.92616419       3.32090876       1.90558508
Si       5.28343727       5.60042751       7.45241412
Si       2.42712306       1.35129863       8.48015085
Si       6.77860447       4.70354679       3.78005876
Si       4.31162949       2.78354961       5.43113735
Si       3.58505985       6.81617883       0.91931659
14
Lattice="5.364775004045648 0.24569152997513463 0.8658386706785293 2.853225039153026 6.326796489020449 -0.5730095541608312 1.073647675862086 1.1376678699159073 9.022694473145055" Properties=species:S:1:pos:R:3 unique_starting_index=86 config_type=initial n_minim_iter=11 stress="-0.0001580157887016889 0.0009160385085827707 -0.0016949355735177167 0.0009160385085827707 -0.0011776772048934714 0.0007338767389267797 -0.0016949355735177167 0.0007338767389267797 -4.762007483670804e-06" pbc="T T T"
Si       5.62188304       3.53770298       7.02039837
Si       5.44558214       1.30103345       4.35194739
Si       4.46542170       3.72995910       3.35081054
Si       6.33473690       2.74793194       3.06233956
Si       4.80778157       4.18245799       8.95823481
Si       2.26192974       1.70567980       0.67808773
Si       3.29956370       5.34408741       2.42704592
Si       7.56656288       2.65440709       7.40497525
Si       2.92317961       3.32201362       1.90282888
Si       5.26965742       5.60038121       7.43800956
Si       2.41600625       1.35230040       8.46913609
Si       6.77313867       4.70696320       3.76801528
Si       4.30341461       2.78296630       5.42031406
Si       3.57803738       6.82022568       0.91676833
14
Lattice="5.3686205301276315 0.24173565868139862 0.869113547862932 2.850227989157647 6.329814653259505 -0.5735383983940104 1.0803344351793744 1.1333356385863393 9.016264836069228" Properties=species:S:1:pos:R:3 unique_starting_index=86 config_type=initial n_minim_iter=12 stress="0.0006769023556134504 0.00017527118509068137 0.0005550765761360669 0.00017527118509068137 0.0005895347337022042 -0.00020805332763736714 0.0005550765761360669 -0.00020805332763736714 0.0009285189775239827" pbc="T T T"
Si       5.62664584       3.53061810       7.01916580
Si       5.45419203       1.29468427       4.35005990
Si       4.47073365       3.73464630       3.35104121
Si       6.33757988       2.74748041       3.06362622
Si       4.81483251       4.17733458       8.95306180
Si       2.25834926       1.70630543       0.67658880
Si       3.30245119       5.34135513       2.42477428
Si       7.57561948       2.64776440       7.40803773
Si       2.92470239       3.32175899       1.90511529
Si       5.27256936       5.59339922       7.43062918
Si       2.42557357       1.34427899       8.46445046
Si       6.78098602       4.70674727       3.76661614
Si       4.30834203       2.77644505       5.41685956
Si       3.56992943       6.82528962       0.91519808
14
Lattice="5.372736263267402 0.23909211469172917 0.8646420407010686 2.849592736732061 6.327232719318072 -0.5715847990430575 1.0750851947351159 1.1367663305175821 9.003095971316942" Properties=species:S:1:pos:R:3 unique_starting_index=86 config_type=initial n_minim_iter=13 stress="0.0010327243534926029 -0.0005336010033509204 -0.0005409129670031706 -0.0005336010033509204 0.0024160893491359412 3.2442649143221915e-05 -0.0005409129670031706 3.2442649143221915e-05 0.0004828009470122936" pbc="T T T"
Si       5.62416072       3.52536404       7.00942496
Si       5.46085797       1.29191317       4.33947052
Si       4.47501545       3.74118681       3.34778070
Si       6.33915850       2.75163194       3.05514563
Si       4.81015837       4.17512770       8.94080564
Si       2.25259914       1.70936725       0.67139936
Si       3.30557918       5.33805171       2.42113719
Si       7.57709356       2.64689524       7.39946167
Si       2.92483817       3.31631079       1.90522010
Si       5.26615123       5.59275665       7.41465020
Si       2.42632279       1.34057414       8.45239539
Si       6.78626800       4.70881978       3.75826168
Si       4.30605215       2.77376975       5.40520097
Si       3.55825471       6.82421470       0.91318736
14
Lattice="5.374697842740392 0.24001846536318383 0.8615578201587013 2.8517549774106006 6.318647540252363 -0.5671806750389475 1.0703192521525162 1.1439376175513585 9.002123167383981" Properties=species:S:1:pos:R:3 unique_starting_index=86 config_type=initial n_minim_iter=14 stress="0.00010419045368391242 -0.0006868271716692037 -0.0006654040787165182 -0.0006868271716692037 0.0019685198454273815 0.000674837780418395 -0.0006654040787165182 0.000674837780418395 0.0008006670309168174" pbc="T T T"
Si       5.62251177       3.52340279       7.01124502
Si       5.46653106       1.29464319       4.33719338
Si       4.47818760       3.74642354       3.35093724
Si       6.34019195       2.75494938       3.05062733
Si       4.80724372       4.17565622       8.94116919
Si       2.24245759       1.71015994       0.66921379
Si       3.31114873       5.33257526       2.42396167
Si       7.57716379       2.65130013       7.40119798
Si       2.92811778       3.30923340       1.91012050
Si       5.26094550       5.59170471       7.41180173
Si       2.42728937       1.34228667       8.45323545
Si       6.79019331       4.71187932       3.75845757
Si       4.30327222       2.77412478       5.40134887
Si       3.55245417       6.81966130       0.91148145
14
Lattice="5.375158734870514 0.24025457432036362 0.8620399590310542 2.85272274607292 6.309190154450782 -0.5673689251777533 1.0698651987946872 1.1431050781747363 9.011015789015877" Properties=species:S:1:pos:R:3 unique_starting_index=86 config_type=initial n_minim_iter=15 stress="-0.0005419170194437304 0.0001184744030807702 9.527253600817626e-05 0.0001184744030807702 8.658334757326342e-05 9.824959342253087e-05 9.527253600817626e-05 9.824959342253087e-05 0.0004161815248209416" pbc="T T T"
Si       5.62403041       3.51555022       7.02172555
Si       5.47322547       1.29717713       4.34481658
Si       4.47950920       3.74425849       3.35822056
Si       6.34020506       2.75390482       3.05112328
Si       4.80601021       4.16655223       8.95128084
Si       2.23499257       1.71582093       0.66674266
Si       3.31598627       5.32558963       2.42375269
Si       7.57891666       2.64872756       7.41179072
Si       2.93280160       3.30066098       1.91548017
Si       5.25684204       5.57694946       7.41628382
Si       2.43141569       1.34055758       8.46307236
Si       6.79355778       4.70777454       3.76207629
Si       4.30133225       2.77070977       5.40259644
Si       3.54527511       6.80979689       0.90690848
14
Lattice="5.374933612031231 0.2364742767888196 0.8609164583255102 2.8493263679758325 6.3091607054424585 -0.5738348685256691 1.0678002312586545 1.1341055917998741 9.00957543509938" Properties=species:S:1:pos:R:3 unique_starting_index=86 config_type=initial n_minim_iter=16 stress="0.00020701571610276686 0.00042472927304205445 0.0008862807391904721 0.00042472927304205445 -6.159671588273722e-05 -0.0005183368596814202 0.0008862807391904721 -0.0005183368596814202 -0.0005204593315922637" pbc="T T T"
Si       5.62357956       3.49889500       7.01839376
Si       5.47858860       1.29188338       4.34510146
Si       4.47664439       3.73957318       3.35834901
Si       6.33623172       2.74830001       3.04752396
Si       4.80346128       4.15568208       8.94785310
Si       2.22584183       1.71861952       0.66230230
Si       3.31373128       5.32634834       2.41323547
Si       7.57819883       2.63789816       7.40996991
Si       2.93262028       3.29779241       1.91489475
Si       5.24708286       5.56541365       7.40993089
Si       2.43218390       1.32840176       8.46002506
Si       6.79534599       4.70136830       3.75527426
Si       4.29738153       2.76435621       5.39623243
Si       3.53573322       6.80918355       0.89754816
14
Lattice="5.3743775033369 0.23271484096094253 0.8529978623800264 2.846400396269757 6.3067706985664715 -0.5790874407128506 1.0547671729028056 1.1310535374304116 9.003341725223333" Properties=species:S:1:pos:R:3 unique_starting_index=86 config_type=initial n_minim_iter=17 stress="0.0001696920204945638 -6.926563420093737e-05 -0.00023569456347982784 -6.926563420093737e-05 -0.000770721273425295 0.00028023037185558546 -0.00023569456347982784 0.00028023037185558546 -0.0011743853985695903" pbc="T T T"
Si       5.61374283       3.48582312       7.00774824
Si       5.48002453       1.28677416       4.33870957
Si       4.47055042       3.74083524       3.35485220
Si       6.32744211       2.74657863       3.03923076
Si       4.79069265       4.15140994       8.93912142
Si       2.21632945       1.72289960       0.65499892
Si       3.31178459       5.32454743       2.40077115
Si       7.57096046       2.63076900       7.39915837
Si       2.92687473       3.29471143       1.90931245
Si       5.22616019       5.55203228       7.39748246
Si       2.42205048       1.31606663       8.44961554
Si       6.79441995       4.69764210       3.74238790
Si       4.28856483       2.75809296       5.38366285
Si       3.52421894       6.81155177       0.88478099
14
Lattice="5.370620676368976 0.2325730218083115 0.8501210161948257 2.8451844012249246 6.306821368621245 -0.5831711730918326 1.0495103947271227 1.1273233383540882 9.00222936541115" Properties=species:S:1:pos:R:3 unique_starting_index=86 config_type=initial n_minim_iter=18 stress="7.900199129681605e-05 0.0007211832542664338 -0.0004888997114269394 0.0007211832542664338 0.0002254584627516592 0.0005916530764328155 -0.0004888997114269394 0.0005916530764328155 0.00014951548969820199" pbc="T T T"
Si       5.60776632       3.47722992       7.00523173
Si       5.48302354       1.28338703       4.33969028
Si       4.46355409       3.74581093       3.35498098
Si       6.32027422       2.74791525       3.03637245
Si       4.78321093       4.14558564       8.94233829
Si       2.20545401       1.72809031       0.64558355
Si       3.31475100       5.32610004       2.38886079
Si       7.56819938       2.62751640       7.39800070
Si       2.92341465       3.29631950       1.90891657
Si       5.21090121       5.54038102       7.38962563
Si       2.41873739       1.30411014       8.44588359
Si       6.79431226       4.70057073       3.73874307
Si       4.28319167       2.75394410       5.37728094
Si       3.51525373       6.81624388       0.87553179
14
Lattice="5.372369110045912 0.22879367810375892 0.8511027499383453 2.8424468322895358 6.305307172646379 -0.5880863414065366 1.0507371577460736 1.1192049567613362 9.00446147431509" Properties=species:S:1:pos:R:3 unique_starting_index=86 config_type=initial n_minim_iter=19 stress="0.0008748948871048383 -8.871029635663205e-06 -0.00038435897346693814 -8.871029635663205e-06 0.00127424938045534 -3.7401236267549094e-05 -0.00038435897346693814 -3.7401236267549094e-05 0.0014017103068366438" pbc="T T T"
Si       5.60962358       3.46781213       7.00642393
Si       5.48890499       1.27918085       4.34357493
Si       4.46273661       3.73782975       3.35329743
Si       6.31994483       2.74393533       3.03766719
Si       4.78587270       4.13376428       8.94354153
Si       2.20059463       1.72812892       0.64088730
Si       3.31450381       5.32257150       2.38188550
Si       7.57471848       2.61597593       7.39916721
Si       2.92150297       3.29133880       1.90768192
Si       5.20684299       5.52797772       7.38849408
Si       2.42109673       1.29481528       8.44772318
Si       6.79397426       4.69470784       3.74068108
Si       4.28331692       2.74820743       5.37773100
Si       3.51243417       6.81333483       0.86980550
14
Lattice="5.372468474961278 0.2309426663986455 0.8520149674564665 2.845080084750504 6.3045155929870775 -0.5887508386138011 1.0525070825303489 1.1179289315912857 9.006322009623094" Properties=species:S:1:pos:R:3 unique_starting_index=86 config_type=initial n_minim_iter=20 stress="0.00019584020653555122 3.5321670565630126e-05 0.00010991941051078475 3.5321670565630126e-05 0.0008141249166566506 -0.00019397492506745598 0.00010991941051078475 -0.00019397492506745598 0.0008808905164144395" pbc="T T T"
Si       5.61307753       3.46804556       7.00828076
Si       5.49201057       1.28184277       4.34605065
Si       4.46282229       3.73665439       3.35243801
Si       6.32185899       2.74468435       3.03865343
Si       4.79047890       4.13211492       8.94470576
Si       2.19976752       1.73161146       0.64009788
Si       3.31572369       5.32102836       2.38156808
Si       7.57929718       2.61660226       7.40063050
Si       2.92226063       3.28982292       1.90804787
Si       5.20798919       5.52678616       7.39072737
Si       2.42269331       1.29362766       8.44899987
Si       6.79675736       4.69714512       3.74434585
Si       4.28512700       2.74918146       5.37978339
Si       3.51587277       6.81243160       0.86961641
14
Lattice="5.375154632089282 0.23407674827478303 0.8529994007232583 2.8497398008950308 6.302863507029218 -0.5860314805387501 1.055478556788899 1.1208288239667128 9.00482704866874" Properties=species:S:1:pos:R:3 unique_starting_index=86 config_type=initial n_minim_iter=21 stress="-0.000669996266095829 -0.0003109533313638674 0.0005904288072760506 -0.0003109533313638674 -0.0010476723106825534 -0.00012026734540698182 0.0005904288072760506 -0.00012026734540698182 -0.0005599454475758952" pbc="T T T"
Si       5.62140809       3.47002807       7.00850196
Si       5.49855612       1.28436035       4.34744837
Si       4.46496578       3.73861070       3.35110391
Si       6.32634887       2.75007613       3.04136579
Si       4.79825572       4.13346717       8.94533179
Si       2.19929753       1.73576357       0.63771379
Si       3.31728090       5.32074593       2.38427269
Si       7.58907569       2.62090191       7.40052615
Si       2.92507738       3.28976950       1.90846570
Si       5.21097531       5.52867474       7.39222059
Si       2.42609579       1.29753849       8.44875923
Si       6.80467506       4.70044000       3.74946587
Si       4.29054692       2.75192663       5.38156712
Si       3.52307671       6.81197051       0.87135721
