24
Lattice="9.18680728746926 0.9362119309212403 -1.5951123233533955 -3.4181835542751156 6.178147723675892 1.2344990555512148 -2.0209331565348236 0.7023552035158241 8.738454015608944" Properties=species:S:1:pos:R:3 unique_starting_index=90 config_type=initial n_minim_iter=1 energy=-3911.795682549736 free_energy=-3911.795682549736 pbc="T T T"
Si       5.02275395       1.20511066       5.53267279
Si       0.77557758       3.02913260       0.89187955
Si       5.40190602       5.71913665       1.17138308
Si       0.53193677       0.67922766       1.13560053
Si       2.63413837       3.76524679       7.05137294
Si      -2.66822245       4.12649708       7.67713914
Si       0.32224991       2.17738273       2.78086642
Si       1.35643635       5.31014821       6.32031487
Si      -2.69275972       6.44883500       7.55133671
Si       5.36036702       2.60474860       3.95590867
Si       2.09716575       3.33995149       2.69288825
Si       3.23927423       6.94605148       1.78816771
Si       4.37050739       7.12509273      -0.02202948
Si       4.82067100       3.25770094       6.08608563
Si       0.41160042       4.55220400       2.31021233
Si      -2.59509757       6.89825355       9.96607166
Si      -1.88534397       1.83665423       3.21855367
Si       2.69115426       5.90023877       7.86083919
Si       1.28398033       2.12186309       7.20394367
Si      -1.95455588       3.31135716       5.60049019
Si       1.42943416       6.72627358       4.74941640
Si       4.53398827       1.67871884       0.18192614
Si       5.80544409       4.04692365       2.45744345
Si       2.23081257       5.42000086       3.25602997
24
Lattice="9.188673025903913 0.9314920244710663 -1.5949932453239013 -3.4223634980642594 6.1875141152863025 1.2381096498885453 -2.0194893749514797 0.7076529057245746 8.753668330278058" Properties=species:S:1:pos:R:3 unique_starting_index=90 config_type=initial n_minim_iter=2 stress="0.0038830455833398616 0.004095009361280831 -0.00027766862505381444 0.004095009361280831 0.004189030942056526 -0.002023283350291069 -0.00027766862505381444 -0.002023283350291069 0.00177669352037012" pbc="T T T"
Si       5.02511969       1.20563479       5.54422846
Si       0.77429572       3.03196586       0.89445870
Si       5.40076681       5.72275490       1.17743450
Si       0.53214747       0.68017487       1.13798160
Si       2.63492837       3.77075284       7.06605866
Si      -2.66921559       4.13569946       7.69166581
Si       0.32201145       2.18073849       2.78658613
Si       1.35553836       5.31778200       6.33403009
Si      -2.69505552       6.46061438       7.56651896
Si       5.36167411       2.60618464       3.96545168
Si       2.09673351       3.34325047       2.69977534
Si       3.23691196       6.95271923       1.79502189
Si       4.36781133       7.13090775      -0.01808499
Si       4.82205561       3.26118665       6.09958933
Si       0.40945969       4.55862893       2.31642597
Si      -2.59702313       6.91127333       9.98578569
Si      -1.88613532       1.84105423       3.22458124
Si       2.69111417       5.90833908       7.87791019
Si       1.28523601       2.12625155       7.21794663
Si      -1.95526796       3.31837590       5.61134545
Si       1.42748345       6.73502968       4.76069971
Si       4.53437202       1.67809403       0.18395774
Si       5.80561711       4.04920095       2.46464445
Si       2.22939986       5.42617689       3.26441479
24
Lattice="9.174608858583879 0.9107106925989561 -1.5921046941759787 -3.4299582990445154 6.190765714061727 1.2443929263248048 -2.015586230303621 0.7204544274542312 8.759168907313432" Properties=species:S:1:pos:R:3 unique_starting_index=90 config_type=initial n_minim_iter=3 stress="-0.0022068831128335725 -0.010394948652288207 0.0026894707699066695 -0.010394948652288207 0.00028386304519031295 0.005262459315215641 0.0026894707699066695 0.005262459315215641 -0.0005275338696667682" pbc="T T T"
Si       5.01793372       1.19995360       5.54990989
Si       0.76705657       3.02707814       0.89766480
Si       5.38308728       5.70772361       1.18688627
Si       0.53091805       0.67998328       1.13940863
Si       2.62653347       3.77021297       7.07508507
Si      -2.67170639       4.14629732       7.70019243
Si       0.31861647       2.18153837       2.78961656
Si       1.34506584       5.31773705       6.34448042
Si      -2.70195736       6.46946802       7.57752771
Si       5.35085340       2.59749915       3.97242386
Si       2.08842196       3.33806959       2.70656891
Si       3.21966355       6.94253592       1.80479126
Si       4.34775124       7.11714000      -0.00934090
Si       4.81137923       3.25596033       6.10858877
Si       0.39922599       4.55888066       2.32353037
Si      -2.60453801       6.92155783       9.99864503
Si      -1.88684207       1.84698095       3.22850891
Si       2.67895298       5.90661985       7.89000434
Si       1.28183174       2.12912637       7.22560045
Si      -1.95718693       3.32569933       5.61820083
Si       1.41399521       6.73239816       4.77095792
Si       4.52459301       1.66770155       0.18611533
Si       5.79105666       4.03703204       2.47110698
Si       2.21676258       5.42118778       3.27252455
24
Lattice="9.16615703923621 0.9262515274510286 -1.6031407524163623 -3.4161207339117152 6.174450055701255 1.2447494468582487 -2.019034298298793 0.7093647582494986 8.775709010526013" Properties=species:S:1:pos:R:3 unique_starting_index=90 config_type=initial n_minim_iter=4 stress="-0.0009164771116094066 -0.005501804908746137 -0.0006156881485528617 -0.005501804908746137 -0.00017180717879568632 -0.0010177290899015489 -0.0006156881485528617 -0.0010177290899015489 0.0075120853988006496" pbc="T T T"
Si       5.00901623       1.20074696       5.55330450
Si       0.76894716       3.01873652       0.89407185
Si       5.38547692       5.70506513       1.18249447
Si       0.53199731       0.67970431       1.13999529
Si       2.62524268       3.76493924       7.08191108
Si      -2.66774918       4.13070402       7.71352436
Si       0.31886878       2.17547455       2.79006848
Si       1.34704280       5.30725063       6.35215683
Si      -2.69322090       6.45071481       7.58913606
Si       5.34534403       2.59938676       3.97334627
Si       2.09104669       3.33286117       2.70967298
Si       3.22666733       6.93566043       1.80088868
Si       4.35417547       7.11464277      -0.01879182
Si       4.80624934       3.25602850       6.11368982
Si       0.40180151       4.55572228       2.32518138
Si      -2.59841446       6.89818153      10.01437613
Si      -1.88549475       1.83911644       3.23621303
Si       2.68106157       5.89633407       7.89766169
Si       1.27830674       2.12107690       7.23672732
Si      -1.95249511       3.31324970       5.62847934
Si       1.42081757       6.72232239       4.77201318
Si       4.51963762       1.67216638       0.17800772
Si       5.78972188       4.03892006       2.46406795
Si       2.22058666       5.41531350       3.27138399
24
Lattice="9.167329171593234 0.9343537188241947 -1.596740711551676 -3.4099013272631034 6.1761892231378575 1.2477673556983448 -2.014495092375033 0.7157565478650961 8.768459741622712" Properties=species:S:1:pos:R:3 unique_starting_index=90 config_type=initial n_minim_iter=5 stress="0.0021772021166580977 -0.0007330493297440419 0.0017480902344934204 -0.0007330493297440419 0.0026553717193478752 0.006532358733939948 0.0017480902344934204 0.006532358733939948 0.0012524658853899548" pbc="T T T"
Si       5.01321068       1.21113781       5.55178005
Si       0.77140044       3.02093005       0.89646407
Si       5.39199538       5.71455765       1.18985166
Si       0.53392888       0.68194918       1.13971547
Si       2.63316461       3.77650947       7.08077421
Si      -2.66050602       4.13817651       7.71022523
Si       0.32193422       2.17929326       2.78856521
Si       1.35488631       5.31775277       6.35288957
Si      -2.68361934       6.45926279       7.58791930
Si       5.35033105       2.60991105       3.97508941
Si       2.09604998       3.33914032       2.71256392
Si       3.23496240       6.94470192       1.80749182
Si       4.36148492       7.12360010      -0.01016260
Si       4.81288655       3.26891590       6.11437698
Si       0.40685938       4.56206754       2.32772202
Si      -2.58769818       6.90891231      10.01180150
Si      -1.88272069       1.84135101       3.23509791
Si       2.69169976       5.90971344       7.89828729
Si       1.28377966       2.12982464       7.23381216
Si      -1.94661257       3.31859012       5.62637566
Si       1.43011246       6.73270876       4.77467097
Si       4.52130806       1.67763507       0.18047518
Si       5.79577280       4.04932693       2.46773204
Si       2.22764782       5.42439421       3.27424780
24
Lattice="9.159955392336627 0.9373893905886532 -1.5914637843609922 -3.406488837451032 6.181436864143385 1.2388580578252681 -2.0081589467936607 0.7077039089845829 8.76063819297103" Properties=species:S:1:pos:R:3 unique_starting_index=90 config_type=initial n_minim_iter=6 stress="0.0017557732073144277 -0.0027290660479441366 0.004472383126000112 -0.0027290660479441366 0.008308925157725905 0.0006564839601535993 0.004472383126000112 0.0006564839601535993 -0.0008011369295402513" pbc="T T T"
Si       5.01252838       1.20715640       5.54874730
Si       0.76933710       3.02239713       0.89350830
Si       5.38857273       5.71926940       1.18725330
Si       0.53559112       0.68200026       1.13798815
Si       2.63674779       3.77328732       7.07347733
Si      -2.65428399       4.13581789       7.69999350
Si       0.32296882       2.17812828       2.78272185
Si       1.35660234       5.31766882       6.34446706
Si      -2.67704450       6.45880913       7.57514892
Si       5.34898124       2.60942366       3.97258896
Si       2.09527397       3.33957473       2.71060062
Si       3.23473586       6.95018697       1.80158954
Si       4.35849000       7.13173632      -0.01472853
Si       4.81324140       3.26764444       6.11023726
Si       0.40824665       4.56458629       2.32104431
Si      -2.58087301       6.90593228       9.99729179
Si      -1.87952253       1.83945401       3.23105322
Si       2.69636041       5.90793108       7.88903556
Si       1.28663190       2.12478694       7.22716536
Si      -1.94196302       3.31649893       5.61807000
Si       1.43281066       6.73595013       4.76497425
Si       4.51771592       1.67923007       0.17985780
Si       5.79388472       4.05141532       2.46511506
Si       2.22816766       5.42800464       3.26673607
24
Lattice="9.140108918221479 0.9431662536141722 -1.6030062321191607 -3.3944282160219537 6.171193286447805 1.2463361402661814 -2.0116346335221107 0.70809944538437 8.776397072731005" Properties=species:S:1:pos:R:3 unique_starting_index=90 config_type=initial n_minim_iter=7 stress="-0.015175995833966846 0.0017134157536908856 -0.001608382428074453 0.0017134157536908856 -0.004594905038612969 0.002471956214257725 -0.001608382428074453 0.002471956214257725 -0.005440925917255532" pbc="T T T"
Si       4.99502405       1.21200467       5.55011594
Si       0.76157719       3.01773692       0.89398530
Si       5.37599353       5.71668615       1.18730527
Si       0.53857942       0.68326382       1.13720810
Si       2.63045073       3.77130047       7.08222885
Si      -2.65284667       4.13455179       7.71831005
Si       0.31921512       2.17291603       2.78275261
Si       1.34759967       5.31601816       6.35617513
Si      -2.67254410       6.45155277       7.59276648
Si       5.33467378       2.61347589       3.97326410
Si       2.08581826       3.33651161       2.72116851
Si       3.23321634       6.94330174       1.80532788
Si       4.35441960       7.12544920      -0.01564778
Si       4.79893806       3.27300337       6.11787037
Si       0.41022258       4.55835546       2.32262920
Si      -2.58224590       6.89783028      10.01928761
Si      -1.87591511       1.83380676       3.24192624
Si       2.69321017       5.90397270       7.90185179
Si       1.27607065       2.12495747       7.23603535
Si      -1.94050299       3.31263168       5.62938045
Si       1.43254885       6.73228284       4.77149197
Si       4.50686525       1.68010113       0.17236657
Si       5.78227126       4.05192923       2.46493877
Si       2.22406390       5.42705739       3.26688989
24
Lattice="9.168048910457143 0.9358900162539925 -1.6094215826945553 -3.40890477662007 6.157430912382882 1.2479031548534325 -2.02351567602053 0.706086273260651 8.780535967657878" Properties=species:S:1:pos:R:3 unique_starting_index=90 config_type=initial n_minim_iter=8 stress="-0.003304061454520168 0.0011957485925157265 -0.0020035232339280654 0.0011957485925157265 -0.012055143699711763 -0.0009621846588147125 -0.0020035232339280654 -0.0009621846588147125 -0.006143752575886093" pbc="T T T"
Si       5.00562962       1.20619506       5.54682595
Si       0.75388752       3.00858211       0.89133571
Si       5.38549130       5.69857972       1.18582088
Si       0.54419843       0.68233819       1.13479550
Si       2.63573028       3.75745966       7.08157736
Si      -2.66848902       4.12818546       7.72441379
Si       0.31387117       2.16190346       2.77939622
Si       1.34166120       5.30311865       6.35865972
Si      -2.68857487       6.43604046       7.59696145
Si       5.34737638       2.60496722       3.97018559
Si       2.08618628       3.32501866       2.72844604
Si       3.24051207       6.92244240       1.80484234
Si       4.36359271       7.10447867      -0.01950233
Si       4.80878985       3.26428526       6.11843929
Si       0.40814174       4.54515077       2.31866913
Si      -2.60317315       6.88055178      10.02417607
Si      -1.88320225       1.82627067       3.24716077
Si       2.69928255       5.88537882       7.90277898
Si       1.27198411       2.11699521       7.23585752
Si      -1.95172188       3.30464855       5.63183637
Si       1.43281122       6.71572132       4.76995108
Si       4.51872759       1.67263858       0.16612525
Si       5.79682769       4.03845189       2.46236174
Si       2.22578047       5.41481389       3.26112357
24
Lattice="9.15915304165921 0.9333888515340506 -1.6257557879296562 -3.409307261755917 6.169857578727911 1.2561444889295494 -2.0396207821619674 0.7123302961103964 8.770759648853163" Properties=species:S:1:pos:R:3 unique_starting_index=90 config_type=initial n_minim_iter=9 stress="0.0014066540625214388 0.0009619681923831296 -0.01025588610259958 0.0009619681923831296 0.0017533827704894847 -0.0025691823308697194 -0.01025588610259958 -0.0025691823308697194 -0.005218338720515041" pbc="T T T"
Si       4.98858068       1.21394564       5.52896309
Si       0.73604299       3.01395221       0.88127882
Si       5.36945519       5.70622932       1.18021710
Si       0.55004603       0.68538683       1.12718108
Si       2.62048297       3.76428787       7.06377149
Si      -2.68377351       4.14694597       7.72404619
Si       0.30021169       2.15664899       2.77267438
Si       1.32271488       5.31630906       6.35427981
Si      -2.70393878       6.44880435       7.59329807
Si       5.33216050       2.61299152       3.95332425
Si       2.07355006       3.32624047       2.73806203
Si       3.23522321       6.93164057       1.80157519
Si       4.35390159       7.11381281      -0.02815495
Si       4.79072292       3.27561036       6.10295135
Si       0.40059945       4.55299766       2.30873718
Si      -2.62867626       6.90025206      10.01649331
Si      -1.88561721       1.82491402       3.25297692
Si       2.68506074       5.89716787       7.88467197
Si       1.25087332       2.12563360       7.22146411
Si      -1.96209458       3.31412436       5.62844715
Si       1.42371956       6.73074549       4.76043278
Si       4.51206530       1.67291530       0.15252468
Si       5.78490730       4.04453059       2.44937019
Si       2.21397310       5.43106660       3.24512580
24
Lattice="9.134707183022066 0.9413696061222556 -1.5987060412774903 -3.391125559928607 6.153526314970699 1.2470433539379202 -2.0073867782767216 0.7092539097792783 8.771929280706637" Properties=species:S:1:pos:R:3 unique_starting_index=90 config_type=initial n_minim_iter=10 stress="-0.0019767921110039398 0.006193868973521165 -0.0024895066365893657 0.006193868973521165 -0.005890064659557211 -0.0071278232349196394 -0.0024895066365893657 -0.0071278232349196394 -0.0038613634688375816" pbc="T T T"
Si       4.99738476       1.22188870       5.55078992
Si       0.72665077       3.00872964       0.87660247
Si       5.36328769       5.69980079       1.20315756
Si       0.56160875       0.68569785       1.12493513
Si       2.64357529       3.75831161       7.07538331
Si      -2.65049168       4.14262757       7.72698534
Si       0.30484943       2.14376803       2.77332021
Si       1.34417462       5.30862430       6.37049705
Si      -2.66833915       6.42972613       7.59132533
Si       5.33603517       2.61689840       3.97368495
Si       2.07720530       3.31667905       2.76378032
Si       3.24625101       6.91877954       1.81635817
Si       4.35024411       7.10281067      -0.01734357
Si       4.80457290       3.27816155       6.12584025
Si       0.41167025       4.54285400       2.30487131
Si      -2.58962796       6.88634450      10.01654298
Si      -1.86737942       1.81303262       3.25643077
Si       2.71669146       5.88806485       7.89721872
Si       1.26843979       2.12541371       7.22963331
Si      -1.93586835       3.30608176       5.62848416
Si       1.44761150       6.71967949       4.76780150
Si       4.50573984       1.67369320       0.16403453
Si       5.78607076       4.04222456       2.46950583
Si       2.22449826       5.42843814       3.24677114
24
Lattice="9.14850056815977 0.9485355966802023 -1.60379545220091 -3.3921065957474634 6.150913170385182 1.2456012002074466 -2.0130565275331134 0.7029344458303481 8.777767597206648" Properties=species:S:1:pos:R:3 unique_starting_index=90 config_type=initial n_minim_iter=11 stress="0.007330556327410718 0.00613259177460299 -0.0011729005874323813 0.00613259177460299 -0.002346294007717603 -0.009234007166205245 -0.0011729005874323813 -0.009234007166205245 0.0008714173963216709" pbc="T T T"
Si       5.00697242       1.22665725       5.55422813
Si       0.69910932       3.00142203       0.86502998
Si       5.36538948       5.70751746       1.20559116
Si       0.57760464       0.68439362       1.11343705
Si       2.64933295       3.75679923       7.06867595
Si      -2.65615928       4.14874259       7.73916368
Si       0.30052978       2.13317028       2.75885585
Si       1.35255865       5.31112051       6.38669870
Si      -2.67201793       6.41913694       7.59231260
Si       5.34404120       2.62192042       3.97781132
Si       2.06770867       3.30703000       2.79929721
Si       3.26464691       6.91619198       1.81849704
Si       4.36122566       7.10220528      -0.02960926
Si       4.81577335       3.28368120       6.12964234
Si       0.41776500       4.53988494       2.29349865
Si      -2.60311064       6.88387515      10.01832047
Si      -1.86464099       1.79423441       3.27080991
Si       2.72981795       5.88750430       7.88565068
Si       1.25964082       2.12811364       7.22415315
Si      -1.93365898       3.30376404       5.63728009
Si       1.46271984       6.71745855       4.77122951
Si       4.51862470       1.67592211       0.15885615
Si       5.79848319       4.04638475       2.46105864
Si       2.22750674       5.43812845       3.22676950
24
Lattice="9.141150231693961 0.9463472668733858 -1.5897083024574101 -3.3913241843353807 6.1615164937123375 1.2381529931926563 -1.996667547919974 0.7008850600406219 8.785432432870197" Properties=species:S:1:pos:R:3 unique_starting_index=90 config_type=initial n_minim_iter=12 stress="0.009980334904239264 0.00780952076403995 0.0024387736939335057 0.00780952076403995 0.010992539257478206 -0.003422326088749203 0.0024387736939335057 -0.003422326088749203 0.012024964248733483" pbc="T T T"
Si       5.01490230       1.22528483       5.56437767
Si       0.67065087       2.99495764       0.84882347
Si       5.35789742       5.72002059       1.22221606
Si       0.58946289       0.67774556       1.10198204
Si       2.65456057       3.75695690       7.07209410
Si      -2.64478220       4.16202563       7.75083601
Si       0.29327469       2.12488278       2.75158979
Si       1.36230975       5.31894056       6.39976014
Si      -2.66058805       6.42879966       7.59442954
Si       5.34803190       2.62634445       3.99720055
Si       2.05688426       3.31068280       2.84304737
Si       3.27368200       6.92126973       1.82789343
Si       4.35784621       7.11352588      -0.02672424
Si       4.82787577       3.28575743       6.14596305
Si       0.43050781       4.54387691       2.29284515
Si      -2.59459429       6.90123491      10.01482367
Si      -1.85552041       1.78013377       3.28497744
Si       2.75269116       5.89954278       7.89147289
Si       1.26946434       2.12980779       7.23855684
Si      -1.92333862       3.30939943       5.64325952
Si       1.47812571       6.71797948       4.79132573
Si       4.51668879       1.67483820       0.15577953
Si       5.80878229       4.04469901       2.47302974
Si       2.22346149       5.45053614       3.21400825
24
Lattice="9.148792197377587 0.9394151214988132 -1.5906555125053208 -3.3994914729148418 6.163360181503753 1.2361553694585898 -1.9980290668265992 0.6984576389602467 8.79408968481465" Properties=species:S:1:pos:R:3 unique_starting_index=90 config_type=initial n_minim_iter=13 stress="0.015998212917591504 0.0034383509142549198 0.0036465599573785477 0.0034383509142549198 0.013215861203972392 -0.001866236093480204 0.0036465599573785477 -0.001866236093480204 0.011685783079603548" pbc="T T T"
Si       5.01931348       1.21971729       5.57266912
Si       0.65794943       2.99218695       0.84629677
Si       5.35580684       5.72016895       1.22309974
Si       0.59148396       0.67164880       1.09685868
Si       2.65095676       3.75118140       7.07404146
Si      -2.65054785       4.16275118       7.75963934
Si       0.28937605       2.12256272       2.74860297
Si       1.35854236       5.31148538       6.40352607
Si      -2.66714303       6.43082294       7.59926091
Si       5.35209332       2.62397675       4.00106777
Si       2.05379825       3.30373790       2.86169772
Si       3.27517176       6.91641626       1.82815313
Si       4.36022422       7.10864309      -0.02603333
Si       4.83227950       3.27878609       6.15109097
Si       0.42782931       4.54311844       2.28800493
Si      -2.60323608       6.90071446      10.01931016
Si      -1.85804779       1.77331704       3.29371705
Si       2.75783123       5.89878511       7.89615251
Si       1.27123166       2.12625214       7.24683738
Si      -1.92809711       3.30928581       5.64803473
Si       1.47911887       6.70817144       4.79477113
Si       4.51926637       1.67048274       0.14995714
Si       5.81723015       4.03628537       2.47512722
Si       2.21735163       5.44987496       3.20880204
24
Lattice="9.151752953288915 0.9354336924147127 -1.6039500535898106 -3.4028341971575493 6.164065280731453 1.249371693586951 -2.0109267190352234 0.7091274596219916 8.804405303979266" Properties=species:S:1:pos:R:3 unique_starting_index=90 config_type=initial n_minim_iter=14 stress="0.01091021763238357 0.001557377774554463 0.000457105723609461 0.001557377774554463 0.011708535497952614 0.0011586369555248632 0.000457105723609461 0.0011586369555248632 0.009948831123394184" pbc="T T T"
Si       5.01171575       1.22508814       5.57405066
Si       0.65100791       2.99335417       0.85107086
Si       5.35564110       5.71769836       1.22886356
Si       0.58869893       0.66813102       1.09395030
Si       2.63750072       3.75840160       7.07753770
Si      -2.66331474       4.17151614       7.77548739
Si       0.28330189       2.12643013       2.75024407
Si       1.34721923       5.31498849       6.41204875
Si      -2.67904953       6.44320065       7.61644601
Si       5.34686345       2.62946503       3.99885472
Si       2.04556541       3.30584120       2.87355075
Si       3.27334567       6.91624329       1.83306474
Si       4.36021579       7.10996286      -0.02347956
Si       4.82420855       3.28411021       6.15197614
Si       0.42613742       4.54338391       2.29082019
Si      -2.61872932       6.91117469      10.03839296
Si      -1.86289684       1.77214696       3.30472959
Si       2.74875745       5.90989390       7.90321003
Si       1.26132130       2.13410237       7.25222842
Si      -1.93807782       3.31654982       5.65938826
Si       1.47410339       6.70688192       4.80279806
Si       4.52015612       1.66964577       0.14313149
Si       5.81622021       4.03772681       2.47302612
Si       2.20812100       5.45366281       3.21161175
24
Lattice="9.13939114732397 0.9294386541828479 -1.6038482649592407 -3.4029848744486193 6.1772439798260725 1.2528896051442322 -2.013587157208948 0.7188175039140368 8.781190506060552" Properties=species:S:1:pos:R:3 unique_starting_index=90 config_type=initial n_minim_iter=15 stress="0.0022355877088942044 -0.0036801210367413224 -0.0018855149631807982 -0.0036801210367413224 0.004192627454131502 0.001941844494328864 -0.0018855149631807982 0.001941844494328864 0.0012556241587308313" pbc="T T T"
Si       5.00033598       1.22550359       5.55358712
Si       0.64320877       3.00210284       0.84809614
Si       5.34503965       5.72497046       1.23322861
Si       0.58304360       0.66307379       1.08646082
Si       2.62687695       3.76668879       7.05689415
Si      -2.66794299       4.18498663       7.75943575
Si       0.27684809       2.13213202       2.74571191
Si       1.33493667       5.32966768       6.39817165
Si      -2.68361907       6.46757581       7.60010147
Si       5.33540524       2.63331973       3.98712353
Si       2.03389955       3.31029158       2.87978182
Si       3.26595902       6.92691198       1.83015871
Si       4.35387303       7.12056316      -0.01378368
Si       4.81281744       3.29188590       6.13352722
Si       0.42310042       4.55400308       2.28232192
Si      -2.62314883       6.92876915      10.01873667
Si      -1.86359129       1.77143634       3.30407109
Si       2.73918918       5.92857742       7.87905163
Si       1.25285949       2.14382813       7.22738342
Si      -1.94171959       3.32979227       5.64912566
Si       1.47019310       6.71543946       4.79401549
Si       4.51771229       1.67098077       0.14213522
Si       5.80749527       4.04302748       2.46323646
Si       2.19307807       5.46599817       3.20180930
24
Lattice="9.142895997200073 0.9294612816019303 -1.5981890641186178 -3.404864833639575 6.1811870488810285 1.2474196907074604 -2.0127085143056482 0.7171268105774077 8.758686501048588" Properties=species:S:1:pos:R:3 unique_starting_index=90 config_type=initial n_minim_iter=16 stress="-0.0052387096527237035 -0.003486715695916119 -0.0018809990789385818 -0.003486715695916119 -0.004554316622120717 0.002047184592966366 -0.0018809990789385818 0.002047184592966366 -0.007019011164715358" pbc="T T T"
Si       5.00341560       1.22496202       5.54266210
Si       0.63620932       3.00487251       0.84002767
Si       5.34666037       5.73067870       1.23584997
Si       0.58060214       0.65840839       1.07896356
Si       2.63076602       3.76497608       7.03586587
Si      -2.66984067       4.18559905       7.73982227
Si       0.27429163       2.13118938       2.73597654
Si       1.33062612       5.33244966       6.38598006
Si      -2.68455263       6.47253770       7.57408453
Si       5.33845057       2.63333485       3.97599557
Si       2.02381531       3.31006509       2.89131267
Si       3.26984269       6.93007130       1.82523778
Si       4.36017169       7.12238379      -0.01597826
Si       4.81779970       3.29169444       6.11753928
Si       0.42934225       4.55879451       2.27092746
Si      -2.61935885       6.92972560       9.99003760
Si      -1.86425659       1.76080452       3.30428285
Si       2.74637568       5.93724393       7.85397419
Si       1.25390564       2.14592121       7.21002194
Si      -1.93953989       3.33394436       5.64066452
Si       1.47857481       6.71741077       4.77879263
Si       4.52389501       1.67300720       0.13986485
Si       5.81144275       4.04074725       2.45283190
Si       2.18590690       5.47082887       3.18394913
24
Lattice="9.13761738823038 0.9325283858750906 -1.5946840168554723 -3.4005758358685543 6.180768585810233 1.2459722507397328 -2.0091391543437185 0.7169588160735437 8.751905246176696" Properties=species:S:1:pos:R:3 unique_starting_index=90 config_type=initial n_minim_iter=17 stress="-0.004415857674451517 -0.0030485867780145315 0.0007722330702829216 -0.0030485867780145315 -0.004587374916324229 0.00220109225280899 0.0007722330702829216 0.00220109225280899 -0.008225375969947274" pbc="T T T"
Si       5.00068151       1.23050797       5.54096202
Si       0.62198402       3.00374394       0.83170753
Si       5.34479567       5.73709707       1.24793124
Si       0.57895422       0.65380048       1.07068389
Si       2.63320472       3.76770587       7.02490180
Si      -2.66876939       4.18725453       7.73670535
Si       0.26681049       2.12537157       2.72344251
Si       1.32782135       5.33481984       6.39409215
Si      -2.67962182       6.47687094       7.56058702
Si       5.33760801       2.63500412       3.97210710
Si       2.01105420       3.30829528       2.92748437
Si       3.27586181       6.93029753       1.82774890
Si       4.36680806       7.12359142      -0.01798650
Si       4.82182406       3.29370835       6.11392889
Si       0.43938282       4.56654533       2.26107096
Si      -2.60840262       6.92909981       9.98034555
Si      -1.86233224       1.74138564       3.31865481
Si       2.75868780       5.94676203       7.84047594
Si       1.25107436       2.15034648       7.20242622