6
Lattice="3.37246899733145 0.7740076587280207 -1.3812208174893015e-14 0.5682520978035882 5.438705187426402 -2.2046540612469704e-14 3.0400519385433977e-14 3.465287317326198e-14 9.322273044847723" Properties=species:S:1:pos:R:3 unique_starting_index=22 config_type=initial n_minim_iter=1 energy=-976.8310751657399 free_energy=-976.8310751657399 pbc="T T T"
Si       3.06387153       2.52217813       0.14983694
Si       0.87684957       3.69053472       0.14983694
Si       2.64763804       4.32550087       5.76437535
Si       1.29308306       1.88721198       5.76437535
Si       1.26652747       2.31255119       7.90992346
Si       2.67419362       3.90016165       7.90992346
6
Lattice="3.4122224453985277 0.7751265686456132 -1.3946005612891271e-14 0.5738160276136286 5.451510255351329 -2.211228404877924e-14 3.0394460672001053e-14 3.464593213403587e-14 9.32040455989899" Properties=species:S:1:pos:R:3 unique_starting_index=22 config_type=initial n_minim_iter=2 stress="0.06703855126781284 0.004570692530987912 -2.3059880171772516e-16 0.004570692530987912 0.022841125999560227 -1.6827480125347512e-16 -2.3059880171772516e-16 -1.6827480125347512e-16 -0.009462942317632833" pbc="T T T"
Si       3.08011965       2.54915889       0.15456299
Si       0.90591882       3.67747793       0.15456299
Si       2.67618793       4.31226272       5.76266606
Si       1.30985054       1.91437410       5.76266606
Si       1.28596280       2.31416626       7.90413589
Si       2.70007567       3.91247057       7.90413589
6
Lattice="3.3723348214779714 0.7459739534347675 -1.3707568144449128e-14 0.5357228420231577 5.3833576763229 -2.1734699769933553e-14 3.066755828316221e-14 3.4958827639613635e-14 9.404623061705056" Properties=species:S:1:pos:R:3 unique_starting_index=22 config_type=initial n_minim_iter=3 stress="0.04627615361179075 -0.018472385495853047 -1.582445653054571e-16 -0.018472385495853047 -0.028733529290706255 -3.6402898951570484e-17 -1.582445653054571e-16 -3.6402898951570484e-17 -0.014516848165606885" pbc="T T T"
Si       2.92805893       2.61811586       0.18558287
Si       0.97999873       3.51121577       0.18558287
Si       2.61451194       4.11716931       5.81125890
Si       1.29354572       2.01216232       5.81125890
Si       1.27611286       2.27156932       7.94941203
Si       2.63194480       3.85776231       7.94941203
6
Lattice="3.364263597474444 0.7531165408509626 -1.3707785698895325e-14 0.542162915913888 5.399560342513401 -2.18158987952128e-14 3.074341401911412e-14 3.504574475709761e-14 9.428006810607307" Properties=species:S:1:pos:R:3 unique_starting_index=22 config_type=initial n_minim_iter=4 stress="0.015342175087437983 -0.004694977255029263 -1.1174162113799703e-16 -0.004694977255029263 -0.028469309787181225 6.134183949712003e-17 -1.1174162113799703e-16 6.134183949712003e-17 -0.012098627349183757" pbc="T T T"
Si       2.90860089       2.64890283       0.19103053
Si       0.99782562       3.50377405       0.19103053
Si       2.61217811       4.11217659       5.82505309
Si       1.29424840       2.04050029       5.82505309
Si       1.27501392       2.27789683       7.96484629
Si       2.63141259       3.87478005       7.96484629
6
Lattice="3.3549674152184323 0.7303746418263509 -1.3592911684802718e-14 0.4857678299189525 5.478657259919605 -2.192594289543895e-14 3.109673224255789e-14 3.545053858771212e-14 9.536944184409597" Properties=species:S:1:pos:R:3 unique_starting_index=22 config_type=initial n_minim_iter=5 stress="0.007297895017508576 -0.018717913048778456 8.831425024006262e-17 -0.018717913048778456 0.01451526937256351 1.2754708901215626e-16 8.831425024006262e-17 1.2754708901215626e-16 0.02040458970489964" pbc="T T T"
Si       2.88534184       2.68494117       0.20515980
Si       0.95539341       3.52409073       0.20515980
Si       2.56741450       4.10954179       5.89103888
Si       1.27332075       2.09949011       5.89103888
Si       1.22630610       2.30046453       8.04627605
Si       2.61442914       3.90856737       8.04627605
6
Lattice="3.3621002914060125 0.7443217806009217 -1.3667998050437369e-14 0.5120409806444185 5.467419982967907 -2.1969786522985757e-14 3.090158725842303e-14 3.522707689886602e-14 9.476760940335875" Properties=species:S:1:pos:R:3 unique_starting_index=22 config_type=initial n_minim_iter=6 stress="-0.0009386650138503371 0.009841135610333698 -1.0925525286195875e-16 0.009841135610333698 0.02370025479953639 1.24305306309064e-16 -1.0925525286195875e-16 1.24305306309064e-16 0.0004547817785254736" pbc="T T T"
Si       2.90541594       2.69115181       0.20573916
Si       0.96872534       3.52058996       0.20573916
Si       2.59035341       4.10288583       5.85506847
Si       1.28378786       2.10885593       5.85506847
Si       1.22881408       2.30259754       7.99242049
Si       2.64532719       3.90914422       7.99242049
6
Lattice="3.3990783186535074 0.7418929981453771 -1.3779569201112557e-14 0.5342209292586594 5.3808604011698336 -2.1720306925827826e-14 3.1028201512575793e-14 3.53722539924858e-14 9.515819203315203" Properties=species:S:1:pos:R:3 unique_starting_index=22 config_type=initial n_minim_iter=7 stress="-0.0025440756548439835 0.0062761764874289475 -1.321373427185388e-16 0.0062761764874289475 -0.025307451722128553 3.468783534989059e-16 -1.321373427185388e-16 3.468783534989059e-16 0.019173027429542352" pbc="T T T"
Si       2.95182967       2.65035963       0.21311013
Si       0.98146958       3.47239377       0.21311013
Si       2.63604873       4.01107245       5.87528558
Si       1.29725052       2.11168095       5.87528558
Si       1.23935530       2.28515513       8.02275248
Si       2.69394395       3.83759826       8.02275248
6
Lattice="3.396309177215629 0.7379999939792236 -1.3756084795928862e-14 0.5225275123576764 5.402422479269328 -2.176228323548338e-14 3.080770826996455e-14 3.5119841683457246e-14 9.447849123690741" Properties=species:S:1:pos:R:3 unique_starting_index=22 config_type=initial n_minim_iter=8 stress="-0.005628086443561898 -0.0071131334380825735 -1.6720781698605143e-16 -0.0071131334380825735 -0.0223425322720546 2.7901360633642623e-16 -1.6720781698605143e-16 2.7901360633642623e-16 -0.008217934029031294" pbc="T T T"
Si       2.94575894       2.64993296       0.21449187
Si       0.97307775       3.49048951       0.21449187
Si       2.63016736       4.00822003       5.83365212
Si       1.28866933       2.13220244       5.83365212
Si       1.23534165       2.29761820       7.96221037
Si       2.68349504       3.84280427       7.96221037
6
Lattice="3.3933144256799475 0.7489787227883269 -1.3787154586438878e-14 0.5327339804215929 5.4328967234180325 -2.1908807719245705e-14 3.0888323943679225e-14 3.521236200763059e-14 9.472734312409678" Properties=species:S:1:pos:R:3 unique_starting_index=22 config_type=initial n_minim_iter=9 stress="0.01098467534283965 0.008307995951777664 -1.1168499443319445e-16 0.008307995951777664 0.007786721089040503 8.723613383363699e-17 -1.1168499443319445e-16 8.723613383363699e-17 0.0087361845809004" pbc="T T T"
Si       2.94617219       2.66227063       0.21737603
Si       0.97987622       3.51960482       0.21737603
Si       2.63925365       4.02361853       5.84639367
Si       1.28679476       2.15825691       5.84639367
Si       1.24264605       2.31132408       7.98348727
Si       2.68340235       3.87055136       7.98348727
6
Lattice="3.3759929041323415 0.7472377966891368 -1.3724201499804055e-14 0.5251542940005983 5.440972719347305 -2.1914083907539978e-14 3.072729625918302e-14 3.502798791616351e-14 9.423088122520031" Properties=species:S:1:pos:R:3 unique_starting_index=22 config_type=initial n_minim_iter=10 stress="0.026594182618502223 -0.0023253316806480188 -7.299701614441349e-17 -0.0023253316806480188 0.01630575876596734 3.047686869329048e-17 -7.299701614441349e-17 3.047686869329048e-17 -0.005340035746698915" pbc="T T T"
Si       2.92726843       2.66713461       0.22238659
Si       0.97387877       3.52107591       0.22238659
Si       2.63259891       3.98917813       5.80971336
Si       1.26854829       2.19903238       5.80971336
Si       1.24386829       2.29833954       7.94153596
Si       2.65727891       3.88987097       7.94153596
6
Lattice="3.3653416605709596 0.7517844414190237 -1.3706365900470251e-14 0.5297364992404288 5.445135370236841 -2.1944483247857155e-14 3.060105685571906e-14 3.488341543485918e-14 9.3841615324453" Properties=species:S:1:pos:R:3 unique_starting_index=22 config_type=initial n_minim_iter=11 stress="-0.012457754680754118 -0.0010622624320625355 3.704040844969938e-17 -0.0010622624320625355 -0.0005935823326062298 -4.916722368824238e-17 3.704040844969938e-17 -4.916722368824238e-17 4.020580669103687e-05" pbc="T T T"
Si       2.92324407       2.67483895       0.22300696
Si       0.97183409       3.52208086       0.22300696
Si       2.63470597       3.97392450       5.77807396
Si       1.26037219       2.22299531       5.77807396
Si       1.24169608       2.30556032       7.91483017
Si       2.65338208       3.89135949       7.91483017
6
Lattice="3.373723007258736 0.75536769327602 -1.3747016434596422e-14 0.5385202031033219 5.4381951279814436 -2.194732128818938e-14 3.047657690660817e-14 3.4740840448172074e-14 9.345777273405771" Properties=species:S:1:pos:R:3 unique_starting_index=22 config_type=initial n_minim_iter=12 stress="-0.010112958330767032 -6.201843321345983e-05 -5.835351990854341e-17 -6.201843321345983e-05 -0.0055441491703148195 -8.094998931993681e-17 -5.835351990854341e-17 -8.094998931993681e-17 0.0010420923222577648" pbc="T T T"
Si       2.93715580       2.67504257       0.22914894
Si       0.97508741       3.51852025       0.22914894
Si       2.65290291       3.94489548       5.74653530
Si       1.25934030       2.24866734       5.74653530
Si       1.24662408       2.30710880       7.88330628
Si       2.66561913       3.88645402       7.88330628
6
Lattice="3.3783842210749917 0.7572513198597741 -1.3769217831039523e-14 0.5423400375944103 5.438209289088742 -2.1959832325705128e-14 3.038371668938618e-14 3.463446598449878e-14 9.317142319455746" Properties=species:S:1:pos:R:3 unique_starting_index=22 config_type=initial n_minim_iter=13 stress="-0.009260252574950362 -0.0006271908332164123 4.212640961544419e-17 -0.0006271908332164123 -0.006843929212069762 -1.5938377811197583e-16 4.212640961544419e-17 -1.5938377811197583e-16 0.0021920133653603392" pbc="T T T"
Si       2.94287248       2.67795798       0.23439325
Si       0.97785178       3.51750262       0.23439325
Si       2.66279351       3.92588705       5.72263831
Si       1.25793075       2.26957355       5.72263831
Si       1.24962092       2.30918335       7.85949576
Si       2.67110334       3.88627726       7.85949576
6
Lattice="3.3873542738120315 0.7597195546640476 -1.3807642261489931e-14 0.5467652758724926 5.442856883695632 -2.1991543845625698e-14 3.0242337812746624e-14 3.4472505049641086e-14 9.273544848883086" Properties=species:S:1:pos:R:3 unique_starting_index=22 config_type=initial n_minim_iter=14 stress="0.000862828544704962 -0.0008600464794417765 1.2455893299626371e-17 -0.0008600464794417765 -0.001944669297142737 -2.444676658273336e-16 1.2455893299626371e-17 -2.444676658273336e-16 0.0013624597706114986" pbc="T T T"
Si       2.95088285       2.68429607       0.24209129
Si       0.98323670       3.51828036       0.24209129
Si       2.67351998       3.91617744       5.68718358
Si       1.26059957       2.28639900       5.68718358
Si       1.25415534       2.31388890       7.82260112
Si       2.67996421       3.88868754       7.82260112
6
Lattice="3.4001238586639064 0.7677520772543351 -1.3879088771174114e-14 0.5582989882336618 5.458419750757855 -2.2087019273303812e-14 2.989348441045211e-14 3.4072689160452606e-14 9.16592503799754" Properties=species:S:1:pos:R:3 unique_starting_index=22 config_type=initial n_minim_iter=15 stress="0.022942408807872412 0.0026161442767721806 -2.2025339136354059e-16 0.0026161442767721806 0.011910712726911249 -1.9457455995338374e-16 -2.2025339136354059e-16 -1.9457455995338374e-16 -0.0023857781811991168" pbc="T T T"
Si       2.96414197       2.70187239       0.25795955
Si       0.99428088       3.52429943       0.25795955
Si       2.68926452       3.92967869       5.60059283
Si       1.26915832       2.29649314       5.60059283
Si       1.26441328       2.32592736       7.73373261
Si       2.69400957       3.90024447       7.73373261
6
Lattice="3.40007221962054 0.7688176970864462 -1.3882822890084136e-14 0.5591828790182585 5.46201836352936 -2.2103289430842016e-14 2.974205574972907e-14 3.3899002594010484e-14 9.119178635890282" Properties=species:S:1:pos:R:3 unique_starting_index=22 config_type=initial n_minim_iter=16 stress="0.021444797489170404 0.0023832112005429413 -2.5241616955490704e-16 0.0023832112005429413 0.01228515128904119 -3.6138546309157174e-16 -2.5241616955490704e-16 -3.6138546309157174e-16 -0.00822804011237375" pbc="T T T"
Si       2.96439797       2.70537944       0.26478868
Si       0.99485712       3.52545662       0.26478868
Si       2.68934636       3.93087738       5.56253243
Si       1.26990874       2.29995868       5.56253243
Si       1.26500407       2.32801239       7.69564295
Si       2.69425103       3.90282366       7.69564295
6
Lattice="3.386714976963882 0.76321279966682 -1.381840805224434e-14 0.549526011329088 5.454904507643737 -2.2045368721644383e-14 2.974979276184744e-14 3.390775752962067e-14 9.121544335535571" Properties=species:S:1:pos:R:3 unique_starting_index=22 config_type=initial n_minim_iter=17 stress="0.0056651193706617605 -0.0016740426238315944 -1.5791694647492361e-16 -0.0016740426238315944 0.003849692490096382 -2.6948687023842353e-16 -1.5791694647492361e-16 -2.6948687023842353e-16 0.0009618140002661726" pbc="T T T"
Si       2.95027203       2.69598041       0.26907413
Si       0.98596896       3.52213690       0.26907413
Si       2.66900679       3.93804441       5.55953899
Si       1.26723420       2.28007289       5.55953899
Si       1.25681731       2.32004842       7.69785907
Si       2.67942368       3.89806889       7.69785907
6
Lattice="3.378753593980625 0.76548171876053 -1.3800870209409425e-14 0.5533131500785998 5.448501342891716 -2.203393437156219e-14 2.972293561273301e-14 3.387692129423856e-14 9.113252419415366" Properties=species:S:1:pos:R:3 unique_starting_index=22 config_type=initial n_minim_iter=18 stress="-0.0036707059015622322 0.002087069561087757 -1.378403912106934e-16 0.002087069561087757 -0.0009072286797452737 -3.501891019947346e-16 -1.378403912106934e-16 -3.501891019947346e-16 -0.00026439781664480786" pbc="T T T"
Si       2.94788389       2.69120550       0.27290558
Si       0.98418286       3.52277756       0.27290558
Si       2.66640891       3.94217661       5.55160849
Si       1.26565783       2.27180645       5.55160849
Si       1.25690403       2.31625166       7.68966192
Si       2.67516271       3.89773140       7.68966192
6
Lattice="3.3796416068031334 0.7632272127901453 -1.3795378665723453e-14 0.5503752395319615 5.446112521656395 -2.2015493433257742e-14 2.971460449534901e-14 3.386731020786659e-14 9.110675019202413" Properties=species:S:1:pos:R:3 unique_starting_index=22 config_type=initial n_minim_iter=19 stress="-0.00022223414309148116 -0.00025728704673251963 -2.1236343016657346e-16 -0.00025728704673251963 -0.0009169860867175353 -3.5485653934115367e-16 -2.1236343016657346e-16 -3.5485653934115367e-16 0.00019846914072193313" pbc="T T T"
Si       2.94739435       2.68774054       0.27592401
Si       0.98262250       3.52159920       0.27592401
Si       2.66369102       3.94057803       5.54824772
Si       1.26632582       2.26876171       5.54824772
Si       1.25540672       2.31459919       7.68618218
Si       2.67461013       3.89474054       7.68618218
6
Lattice="3.3794344609643083 0.7634633261623912 -1.3795573851129537e-14 0.5504872084718951 5.447131669435499 -2.2019668074520484e-14 2.971090814226332e-14 3.3863004668668665e-14 9.10952649414531" Properties=species:S:1:pos:R:3 unique_starting_index=22 config_type=initial n_minim_iter=20 stress="0.0002704571647902106 -9.212098560701692e-05 -1.5566405189621872e-16 -9.212098560701692e-05 1.5064927765141386e-05 -3.26064526550839e-16 -1.5566405189621872e-16 -3.26064526550839e-16 0.0001973686279216735" pbc="T T T"
Si       2.94723308       2.68833833       0.27652138
Si       0.98268859       3.52225667       0.27652138
Si       2.66399245       3.94100393       5.54710791
Si       1.26592922       2.26959106       5.54710791
Si       1.25554990       2.31497812       7.68502147
Si       2.67437177       3.89561688       7.68502147
6
Lattice="3.3794382250059356 0.7633341791642528 -1.3795099115253393e-14 0.5503177087868684 5.44696549395919 -2.2018518811833657e-14 2.970891559249806e-14 3.3860650639683373e-14 9.108903376943365" Properties=species:S:1:pos:R:3 unique_starting_index=22 config_type=initial n_minim_iter=21 stress="1.9761993730140645e-05 0.00011776836866304644 -1.726175446367147e-16 0.00011776836866304644 9.355150636830453e-05 -2.380055448622023e-16 -1.726175446367147e-16 -2.380055448622023e-16 -7.804865605833167e-05" pbc="T T T"
Si       2.94701226       2.68824460       0.27692031
Si       0.98274367       3.52205507       0.27692031
Si       2.66408456       3.94037702       5.54652833
Si       1.26567138       2.26992265       5.54652833
Si       1.25541992       2.31482050       7.68427809
Si       2.67433602       3.89547917       7.68427809
