14
Lattice="7.889896838974399 -0.9416775227153918 1.776578121922952 -0.9560288300963629 8.749530495777003 -1.0721682530846617 -2.02024018961889 -0.5240768246130515 5.579275522828828" Properties=species:S:1:pos:R:3 unique_starting_index=20 config_type=initial n_minim_iter=1 energy=-2278.1794025258578 free_energy=-2278.1794025258578 pbc="T T T"
Si       3.62049797       4.35342800       5.87243077
Si       5.53418866       2.61144185       1.30301309
Si       1.29312985       2.93034815       0.41125462
Si      -0.62056084       4.67233430       4.98067230
Si       4.93413356       4.58452326       4.17547989
Si       5.72483530       2.02082197       3.37601013
Si      -0.02050574       2.69925289       2.10820550
Si      -0.81120748       5.26295418       2.90767527
Si       1.00565075       4.76690834       1.45120422
Si       0.32778980       2.92231973       4.21430561
Si       3.90797707       2.51686781       4.83248117
Si       4.58583801       4.36145642       2.06937978
Si       3.20457193       5.04629477       0.56355259
Si       1.70905589       2.23748138       5.72013280
14
Lattice="7.756681921856757 -1.563470063274037 1.6697418914135989 -1.6280622328580154 8.229601191617272 -1.2893388879712997 -2.0060395531863535 -0.4796083329633205 5.5391747511509495" Properties=species:S:1:pos:R:3 unique_starting_index=20 config_type=initial n_minim_iter=2 stress="-0.03063687627154109 0.014957019567826907 -0.003119852243451891 0.014957019567826907 -0.010255665984155298 0.0008966465361626717 -0.003119852243451891 0.0008966465361626717 -0.10501278551980656" pbc="T T T"
Si       3.08136431       3.60422765       5.61466718
Si       5.14512743       1.93980146       1.14312277
Si       1.04121583       2.58229515       0.30491057
Si      -1.02254729       4.24672134       4.77645498
Si       4.40614304       3.72121808       3.91837152
Si       5.39233272       1.33932558       3.19076537
Si      -0.28356291       2.46530471       2.00120624
Si      -1.26975258       4.84719721       2.72881239
Si       0.54839573       4.33226287       1.30149085
Si       0.04809459       2.56550471       4.08040441
Si       3.57418440       1.85425992       4.61808690
Si       4.07448554       3.62101808       1.83917335
Si       2.70252748       4.37575482       0.36010224
Si       1.42005266       1.81076798       5.55947551
14
Lattice="7.743739973305165 -1.765915967730499 1.6534302782242616 -1.8486924692099316 8.087922245020659 -1.3648272768340035 -2.0051064297788197 -0.46492334504770333 5.566025437976158" Properties=species:S:1:pos:R:3 unique_starting_index=20 config_type=initial n_minim_iter=3 stress="-0.02639062161772864 -0.0021474088091996343 -0.0038964345775716956 -0.0021474088091996343 -0.033801414616706174 0.0016793622589235187 -0.0038964345775716956 0.0016793622589235187 -0.10271697981968417" pbc="T T T"
Si       2.92385696       3.37871134       5.57877581
Si       5.04128939       1.73246564       1.10603164
Si       0.96608412       2.47837159       0.27585262
Si      -1.15134831       4.12461729       4.74859680
Si       4.25815018       3.45778521       3.87203802
Si       5.30773272       1.12622287       3.16041865
Si      -0.36820910       2.39929772       1.98259042
Si      -1.41779165       4.73086006       2.69420979
Si       0.40443017       4.20768078       1.26624238
Si      -0.03721682       2.45938491       4.07003384
Si       3.48551091       1.64940215       4.58838606
Si       3.92715789       3.39769803       1.78459460
Si       2.55462081       4.17604914       0.30341285
Si       1.33532026       1.68103379       5.55121559
14
Lattice="7.607097499794223 -1.9614156672366865 1.6531736963154013 -1.9880797348368155 8.21516869980044 -1.5674893846571374 -1.9901067971000375 -0.5560239347787718 5.663371568109144" Properties=species:S:1:pos:R:3 unique_starting_index=20 config_type=initial n_minim_iter=4 stress="-0.018103843429025355 0.004207226230819258 -0.02431723877946019 0.004207226230819258 0.029422428828250496 0.0035033110978866877 -0.02431723877946019 0.0035033110978866877 -0.01117843611055668" pbc="T T T"
Si       2.72526968       3.23788373       5.53710317
Si       4.86685684       1.62537986       1.03931125
Si       0.90364129       2.45984537       0.21195271
Si      -1.23794588       4.07234924       4.70974463
Si       4.07783883       3.31373493       3.79453454
Si       5.15184100       0.98018856       3.12260563
Si      -0.44892787       2.38399417       1.95452134
Si      -1.52293003       4.71754054       2.62645025
Si       0.27261566       4.24045045       1.17254100
Si      -0.10117980       2.37821017       4.07076347
Si       3.35629531       1.45727865       4.57651487
Si       3.73009077       3.31951892       1.67829241
Si       2.40348210       4.12061485       0.18527218
Si       1.22542886       1.57711425       5.56378370
14
Lattice="7.579680256007542 -2.112301774235881 1.7793363332043837 -2.1235600149800664 8.19252903637531 -1.7823025226153724 -1.9022542424605895 -0.6466347571539643 5.697081131950437" Properties=species:S:1:pos:R:3 unique_starting_index=20 config_type=initial n_minim_iter=5 stress="-0.004912367025977106 0.014515523578518553 -0.010497626693146658 0.014515523578518553 0.01007330028847557 -0.018496824863918737 -0.010497626693146658 -0.018496824863918737 0.023335702195392067" pbc="T T T"
Si       2.68199017       3.03354595       5.52252400
Si       4.78527312       1.49534557       1.06150449
Si       0.87187583       2.40004656       0.17159094
Si      -1.23140712       3.93824694       4.63261045
Si       4.03512254       3.11048802       3.77899510
Si       5.11713799       0.82088493       3.16355912
Si      -0.48125654       2.32310448       1.91511984
Si      -1.56327199       4.61270757       2.53055582
Si       0.19602095       4.19446236       1.08117994
Si      -0.07875380       2.24923615       4.05029943
Si       3.35784505       1.23913015       4.61293500
Si       3.63261980       3.18435635       1.64381551
Si       2.31950318       3.98947532       0.12571940
Si       1.23436282       1.44411718       5.56839555
14
Lattice="7.585202225915077 -2.1536308617830495 1.7949280736344047 -2.170917296604223 8.206151538746125 -1.7806894061119714 -1.8866143648417641 -0.6347962095736257 5.688776177907446" Properties=species:S:1:pos:R:3 unique_starting_index=20 config_type=initial n_minim_iter=6 stress="0.014029471657345697 -0.013101285493309398 -0.0021141009774612207 -0.013101285493309398 0.025329047861655546 -0.011612870336310616 -0.0021141009774612207 -0.011612870336310616 0.036722075655842124" pbc="T T T"
Si       2.66685194       3.02334861       5.52578984
Si       4.77030773       1.46949535       1.07425609
Si       0.86081862       2.39437586       0.17722501
Si      -1.24263716       3.94822912       4.62875876
Si       4.02180654       3.08915129       3.78752678
Si       5.11140543       0.79741018       3.17315602
Si      -0.49413598       2.32857318       1.91548806
Si      -1.58373486       4.62031428       2.52985883
Si       0.17117758       4.20164102       1.08212967
Si      -0.07966722       2.24914202       4.04805149
Si       3.35649299       1.21608345       4.62088518
Si       3.60733779       3.16858245       1.65496336
Si       2.29530012       3.97164905       0.13754660
Si       1.23237044       1.44607541       5.56546824
14
Lattice="7.541474758244235 -2.1081595949999365 1.8031904589653247 -2.1439031470593113 8.108847635849974 -1.709749358484866 -1.8675895312286765 -0.5875458459581782 5.691589623270929" Properties=species:S:1:pos:R:3 unique_starting_index=20 config_type=initial n_minim_iter=7 stress="-0.04914021948503373 -0.014155562435484988 -0.01709441394029883 -0.014155562435484988 -0.01229414899245437 0.004131888125435315 -0.01709441394029883 0.004131888125435315 0.02526845372057847" pbc="T T T"
Si       2.66462439       3.04123270       5.57122820
Si       4.74341512       1.47163435       1.10602803
Si       0.86535769       2.37190950       0.21380253
Si      -1.21343304       3.94150785       4.67900270
Si       4.02061498       3.08714220       3.84221646
Si       5.09009325       0.82659500       3.20468564
Si      -0.49063290       2.32599999       1.94281427
Si      -1.56011117       4.58654719       2.58034508
Si       0.18047836       4.17770324       1.12156663
Si      -0.05495138       2.25295346       4.07262593
Si       3.34950372       1.23543895       4.66346410
Si       3.58493346       3.16018873       1.71240479
Si       2.29257030       3.92960885       0.19513603
Si       1.23741178       1.48353335       5.58989470
14
Lattice="7.664999800681143 -1.9602714517335231 1.853993179045935 -2.0620155099927935 7.94413381097395 -1.5295169585334485 -1.851543716334621 -0.48498506721411255 5.65014293748513" Properties=species:S:1:pos:R:3 unique_starting_index=20 config_type=initial n_minim_iter=8 stress="0.014371045538661446 -0.0021407617034423848 -0.01110639014807955 -0.0021407617034423848 0.0010393900777109725 0.005966283550763652 -0.01110639014807955 0.005966283550763652 0.047224157367319414" pbc="T T T"
Si       2.82366729       3.14586457       5.66259044
Si       4.85804480       1.53230869       1.20450474
Si       0.92777328       2.35301273       0.31202872
Si      -1.10660423       3.96656860       4.77011441
Si       4.20287184       3.15566193       3.97626350
Si       5.22883380       0.94998917       3.29213251
Si      -0.45143127       2.34321536       1.99835566
Si      -1.47739323       4.54888812       2.68248665
Si       0.27031570       4.16080427       1.21528529
Si       0.05253121       2.29636353       4.10114381
Si       3.48112488       1.33807303       4.75933387
Si       3.69890937       3.20251376       1.87347535
Si       2.40605352       3.90274424       0.35031786
Si       1.34538705       1.59613306       5.62430130
14
Lattice="7.745012766422934 -1.8958943018342505 2.0088958082035693 -2.0506074987286365 7.855541937974387 -1.4466270233182756 -1.7505144370974377 -0.42325403794008665 5.610674139908238" Properties=species:S:1:pos:R:3 unique_starting_index=20 config_type=initial n_minim_iter=9 stress="0.03677742549813382 -0.015766063437158 0.046393761907292934 -0.015766063437158 -0.007276171504351637 -0.0065451382877281215 0.046393761907292934 -0.0065451382877281215 0.03703850126478806" pbc="T T T"
Si       2.97309218       3.19543121       5.77694962
Si       4.90798380       1.56290754       1.33800101
Si       0.97079865       2.34096239       0.39599330
Si      -0.96409297       3.97348606       4.83494192
Si       4.35997720       3.17620234       4.13479912
Si       5.33649620       1.01721628       3.43651522
Si      -0.41608637       2.36019126       2.03814381
Si      -1.39260537       4.51917732       2.73642770
Si       0.33070752       4.16786541       1.26825630
Si       0.17501408       2.32035088       4.11759439
Si       3.61318331       1.36852819       4.90468663
Si       3.76887675       3.21604271       2.05534854
Si       2.43869031       3.89013966       0.48893128
Si       1.50520052       1.64625394       5.68401165
14
Lattice="7.853318582808192 -1.8590210442211694 1.9214155583233696 -2.0360381469627398 7.752030410971633 -1.390086534767517 -1.8382491662342009 -0.39442199904905667 5.6068262063133805" Properties=species:S:1:pos:R:3 unique_starting_index=20 config_type=initial n_minim_iter=10 stress="0.027556201325996402 -0.027598346650453597 -0.00967726008942906 -0.027598346650453597 0.008477387575242688 0.0072950071639802045 -0.00967726008942906 0.0072950071639802045 -0.004990022824124911" pbc="T T T"
Si       2.96328011       3.18663494       5.73276278
Si       4.96549096       1.56302170       1.30012068
Si       1.01575116       2.31195243       0.40539245
Si      -0.98645969       3.93556566       4.83803455
Si       4.43188193       3.14502164       4.07937719
Si       5.39152442       1.04747945       3.37223599
Si      -0.45285066       2.35356573       2.05877804
Si      -1.41249315       4.45110792       2.76591924
Si       0.34327434       4.15389542       1.25944810
Si       0.16829872       2.30605818       4.09047717
Si       3.63575693       1.34469195       4.87870713
Si       3.81073255       3.19252919       2.04767806
Si       2.47829331       3.84733733       0.49910727
Si       1.50073796       1.65125004       5.63904796
14
Lattice="7.884053369370798 -1.758582681957429 1.9628876432104994 -1.9534585054838127 7.683865672356543 -1.3398742400410362 -1.8133161106468645 -0.37919702605218736 5.569829745699348" Properties=species:S:1:pos:R:3 unique_starting_index=20 config_type=initial n_minim_iter=11 stress="0.020969529157308785 0.005598197498529806 -0.009986385443469878 0.005598197498529806 0.013116370898698451 0.00755870778640065 -0.009986385443469878 0.00755870778640065 -0.04000394892125359" pbc="T T T"
Si       3.04107495       3.23194279       5.75653791
Si       5.00194529       1.61874812       1.38114525
Si       1.07620380       2.31414317       0.43630524
Si      -0.88466654       3.92733785       4.81169790
Si       4.55281943       3.17536147       4.12128228
Si       5.44419907       1.14665721       3.40322336
Si      -0.43554067       2.37072450       2.07156087
Si      -1.32692032       4.39942875       2.78961979
Si       0.41073152       4.17257187       1.28081049
Si       0.25088346       2.31337779       4.09162329
Si       3.70654723       1.37351409       4.91203266
Si       3.86639529       3.23270817       2.10121986
Si       2.52689047       3.86814232       0.58002568
Si       1.59038828       1.67794365       5.61281747
14
Lattice="7.856769306867928 -1.7521444455330522 2.0108980889388377 -1.9322379522085091 7.689807785891581 -1.413550595320318 -1.7846743744300197 -0.4248084747370078 5.598355434001419" Properties=species:S:1:pos:R:3 unique_starting_index=20 config_type=initial n_minim_iter=12 stress="0.017080654293466634 -0.00793846186751578 0.0075102157678787205 -0.00793846186751578 -0.004049719003981422 -0.016050677223703177 0.0075102157678787205 -0.016050677223703177 0.03970126981947716" pbc="T T T"
Si       3.05231828       3.18883269       5.76947621
Si       4.97912858       1.61893889       1.40947778
Si       1.08753870       2.32402218       0.42622672
Si      -0.83927160       3.89391598       4.78622515
Si       4.56629537       3.14283411       4.12603861
Si       5.42933544       1.15435658       3.43698668
Si      -0.42643839       2.37002076       2.06966432
Si      -1.28947846       4.35849829       2.75871625
Si       0.42868484       4.17145991       1.26158029
Si       0.28345018       2.27588299       4.09124139
Si       3.71117214       1.34139495       4.93412264
Si       3.85640680       3.23697188       2.10446154
Si       2.51177637       3.87960171       0.57441903
Si       1.62808061       1.63325316       5.62128389
14
Lattice="7.867693043780369 -1.6963307370742169 2.0525589920807636 -1.8804952897857534 7.68246085804754 -1.40337928151518 -1.7546751259747617 -0.43077233480599963 5.563913607857759" Properties=species:S:1:pos:R:3 unique_starting_index=20 config_type=initial n_minim_iter=13 stress="-0.001511397961958198 -0.0003584119286142128 0.009585834133917824 -0.0003584119286142128 0.016616004000148545 -0.005986914703596263 0.009585834133917824 -0.005986914703596263 0.036125971454852024" pbc="T T T"
Si       3.11429189       3.21062717       5.78353783
Si       4.99981537       1.64849484       1.44922422
Si       1.11823073       2.34473062       0.42955549
Si      -0.76729274       3.90686294       4.76386909
Si       4.63510077       3.15469235       4.14662472
Si       5.45821466       1.22431914       3.48652466
Si      -0.40257814       2.40066544       2.06646860
Si      -1.22569203       4.33103865       2.72656865
Si       0.48236969       4.18903062       1.27048603
Si       0.34477960       2.26853234       4.08857094
Si       3.75015294       1.36632716       4.94260729
Si       3.88774303       3.28682544       2.12452238
Si       2.53191812       3.91524692       0.61425344
Si       1.70060451       1.64011087       5.59883988
14
Lattice="7.907040701308383 -1.6264643758560138 2.061749502360302 -1.8177510182032577 7.6319583661863115 -1.3914328897120671 -1.7563598469814337 -0.43888276478392296 5.530604740249064" Properties=species:S:1:pos:R:3 unique_starting_index=20 config_type=initial n_minim_iter=14 stress="-0.026398045673866746 0.02386397788243389 0.015507113051436575 0.02386397788243389 -0.022098390736618186 -0.012194376296718445 0.015507113051436575 -0.012194376296718445 0.017564589461206658" pbc="T T T"
Si       3.17674325       3.21611570       5.77749831
Si       5.05108130       1.66585395       1.46429619
Si       1.15618659       2.35049552       0.42342305
Si      -0.71815147       3.90075727       4.73662517
Si       4.71679988       3.14898268       4.14442721
Si       5.50888681       1.28901410       3.50985324
Si      -0.38387005       2.41762854       2.05649414
Si      -1.17595698       4.27759713       2.69106811
Si       0.53835350       4.18609716       1.27456413
Si       0.38701033       2.24743909       4.07306504
Si       3.79457633       1.38051407       4.92635722
Si       3.94591950       3.31917213       2.12785631
Si       2.57691069       3.92036097       0.62412444
Si       1.75601914       1.64625026       5.57679691
14
Lattice="7.918963874052912 -1.616972655800399 2.019800409776628 -1.8059867658109472 7.672063885287173 -1.3567744585069834 -1.78405525926242 -0.42724710381900327 5.511671363713211" Properties=species:S:1:pos:R:3 unique_starting_index=20 config_type=initial n_minim_iter=15 stress="-0.018249056655031924 0.01461993500875269 0.018971719682219678 0.01461993500875269 -0.00100524621361114 0.009548848608650426 0.018971719682219678 0.009548848608650426 -0.003189221069479346" pbc="T T T"
Si       3.17834360       3.25246870       5.76700953
Si       5.07442223       1.67620045       1.44424024
Si       1.15057825       2.37537542       0.40768779
Si      -0.74550038       3.95164368       4.73045708
Si       4.70095544       3.18373346       4.13210980
Si       5.52171016       1.31430458       3.49897532
Si      -0.37203359       2.44411067       2.04258752
Si      -1.19278831       4.31353955       2.67572199
Si       0.54670561       4.20869074       1.29086259
Si       0.35418457       2.27180381       4.07251755
Si       3.78221624       1.41915339       4.88383472
Si       3.97473728       3.35604032       2.10217977
Si       2.59004046       3.94726376       0.60246632
Si       1.73888139       1.68058036       5.57223099
14
Lattice="7.913422424631489 -1.6435228601716954 1.9562577856068204 -1.8159113296579696 7.706223331219569 -1.3840204800078943 -1.8260609428470032 -0.4503257929938396 5.500568798320432" Properties=species:S:1:pos:R:3 unique_starting_index=20 config_type=initial n_minim_iter=16 stress="-0.02207010036380794 0.005845845662196218 -0.023336428198760365 0.005845845662196218 0.010765529610416 0.014710299155990892 -0.023336428198760365 0.014710299155990892 -0.028066078048765646" pbc="T T T"
Si       3.13968516       3.22661607       5.69022178
Si       5.07502401       1.65552142       1.38849494
Si       1.13176499       2.38575861       0.38258432
Si      -0.80357385       3.95685326       4.68431116
Si       4.65149779       3.16319044       4.06532317
Si       5.50324673       1.29799045       3.44038690
Si      -0.38004764       2.44918424       2.00748293
Si      -1.23179658       4.31438423       2.63241920
Si       0.53668324       4.21788019       1.25107669
Si       0.30953803       2.25730846       4.03380476
Si       3.73476691       1.39449449       4.82172941
Si       3.96191212       3.35506622       2.03900134
Si       2.57602183       3.94813260       0.54583981
Si       1.69542832       1.66424208       5.52696630
14
Lattice="7.926501247970919 -1.580193043110068 1.9448501119249322 -1.7626948354153946 7.6863031949789535 -1.3191753806649043 -1.8415016214992348 -0.4198790670811685 5.515900378884237" Properties=species:S:1:pos:R:3 unique_starting_index=20 config_type=initial n_minim_iter=17 stress="0.004609310620016483 0.008015546608797056 -0.0210420771866281 0.008015546608797056 0.023294532560286785 0.004081412187002493 -0.0210420771866281 0.004081412187002493 -0.0059089360511745265" pbc="T T T"
Si       3.17123385       3.28951859       5.73026754
Si       5.10181404       1.69358418       1.41704594
Si       1.15107094       2.39671249       0.41130757
Si      -0.77950925       3.99264691       4.72452917
Si       4.65595416       3.20834777       4.11016718
Si       5.53172731       1.37184485       3.48297038
Si      -0.33364937       2.47788331       2.03140793
Si      -1.20942252       4.31438624       2.65860473
Si       0.58559222       4.25869971       1.29095763
Si       0.30366617       2.29298289       4.04900738
Si       3.73671257       1.42753137       4.85061748
Si       4.01863862       3.39324819       2.09256773
Si       2.60194790       3.95675101       0.58982931
Si       1.72035689       1.72948008       5.55174580
14
Lattice="7.97344172490465 -1.5831259474332706 1.9338699431505135 -1.7799106537411742 7.619550492029021 -1.3111790455899328 -1.8602894373965762 -0.40856038479469703 5.518341656408514" Properties=species:S:1:pos:R:3 unique_starting_index=20 config_type=initial n_minim_iter=18 stress="-0.023817522539268155 -0.01054254134013753 -0.003114385770387428 -0.01054254134013753 -0.032626145493468775 -0.0054917156676172075 -0.003114385770387428 -0.0054917156676172075 -0.005129652599332547" pbc="T T T"
Si       3.17651888       3.25043784       5.72158531
Si       5.12386482       1.66446799       1.41416117
Si       1.15672275       2.37742632       0.41944725
Si      -0.79062319       3.96339617       4.72687138
Si       4.64038151       3.16595299       4.12279395
Si       5.55320568       1.35437667       3.48147814
Si      -0.30713987       2.46191117       2.01823860
Si      -1.21996404       4.27348749       2.65955441
Si       0.60001946       4.24266167       1.28493109
Si       0.29139391       2.26821189       4.06399500
Si       3.73322217       1.38520249       4.85610147
Si       4.04184772       3.35965227       2.07703756
Si       2.60357206       3.90221083       0.59866308
Si       1.72966958       1.72565333       5.54236947
14
Lattice="7.986061140371558 -1.5505413434464475 1.9379875808592308 -1.7537511555653023 7.60405176077223 -1.2843690159991525 -1.8622616392969755 -0.3962721695935246 5.522582592786001" Properties=species:S:1:pos:R:3 unique_starting_index=20 config_type=initial n_minim_iter=19 stress="-0.01018823134383276 -0.009169366824466516 0.0023607575716658715 -0.009169366824466516 -0.013648912891375273 0.0023816101409592566 0.0023607575716658715 0.0023816101409592566 -0.011872163646609398" pbc="T T T"
Si       3.20191853       3.27101411       5.74983792
Si       5.14644418       1.67871643       1.43146306
Si       1.16812981       2.38622414       0.42636324
Si      -0.77639584       3.97852182       4.74473810
Si       4.66313273       3.18955375       4.14319151
Si       5.57058125       1.37795705       3.49020987
Si      -0.29308438       2.46768450       2.03300965
Si      -1.20053290       4.27928119       2.68599129
Si       0.62358649       4.24995517       1.30419107
Si       0.30044429       2.27672995       4.08011369
Si       3.74646186       1.40728307       4.87201009
Si       4.06960405       3.38050830       2.09608746
Si       2.62305780       3.91052254       0.61795628
Si       1.74699054       1.74671571       5.55824487
14
Lattice="7.978421318320808 -1.5393944713193217 1.937374956535142 -1.7362456771025214 7.609587826582916 -1.299799019337751 -1.863601002797647 -0.4103937123958181 5.524521127696645" Properties=species:S:1:pos:R:3 unique_starting_index=20 config_type=initial n_minim_iter=20 stress="0.0025884407873127476 0.003275981477426945 0.005960657983277375 0.003275981477426945 0.005368444807852611 0.001557572704554775 0.005960657983277375 0.001557572704554775 -0.00849233958269943" pbc="T T T"
Si       3.21119526       3.26596515       5.74822722
Si       5.15140659       1.68120737       1.42411661
Si       1.16737938       2.39383449       0.41386985
Si      -0.77283195       3.97859227       4.73798046
Si       4.66048461       3.19157764       4.13121058
Si       5.57394634       1.38000398       3.48846315
Si      -0.28190997       2.46822201       2.03088649
Si      -1.19537170       4.27979567       2.67363392
Si       0.63304826       4.25803972       1.29762446
Si       0.29790742       2.26803487       4.07941027
Si       3.74552638       1.40175992       4.86447261
Si       4.08066721       3.39176477       2.08268680
Si       2.63468767       3.92026922       0.60990308
Si       1.74388697       1.73953042       5.55219398
14
Lattice="7.989073757192766 -1.5337814321732028 1.9229189813954974 -1.7346222855620808 7.579602317419005 -1.2922667953463982 -1.8791644575901565 -0.4042517188921073 5.5377273090599015" Properties=species:S:1:pos:R:3 unique_starting_index=20 config_type=initial n_minim_iter=21 stress="0.0135868079534335 0.0035375831125092705 -0.002416687673758431 0.0035375831125092705 0.005004873253128357 0.0007154857730212149 -0.002416687673758431 0.0007154857730212149 0.006304980194232837" pbc="T T T"
Si       3.21149108       3.25523932       5.75106028
Si       5.15605630       1.66999872       1.41679979
Si       1.16379594       2.38632985       0.41731921
Si      -0.78076929       3.97157044       4.75157971
Si       4.65135030       3.17527447       4.13243255
Si       5.58094423       1.37600625       3.48207481
Si      -0.27606328       2.46629469       2.03594694
Si      -1.20565722       4.26556291       2.68630468
Si       0.63060399       4.25853919       1.30166490
Si       0.28427902       2.26112707       4.09064538
Si       3.74468303       1.38302998       4.86671460
Si       4.09100800       3.38044209       2.07773411
Si       2.63916222       3.90759986       0.61126370
Si       1.73612480       1.73396931       5.55711580
