20
Lattice="8.46133652025897 -3.7841653116460274e-49 -3.164168453412552e-33 1.1559485738652267e-48 7.200681013926555 2.2299739271669665e-15 1.8646751614164084e-33 -1.5442185686591993e-15 4.986347684712004" Properties=species:S:1:pos:R:3 unique_starting_index=96 config_type=initial n_minim_iter=1 energy=-3254.848140869573 free_energy=-3254.848140869573 pbc="T T T"
Si       6.58035196       4.29246894       1.39402393
Si       1.88098456       2.90821208       1.39402393
Si       4.98825980       1.53293757       3.87031030
Si       3.47307672       5.66774344       3.87031030
Si       6.11165282       0.69212843       1.39402393
Si       2.34968370       6.50855258       1.39402393
Si       7.70374498       5.13327808       3.87031030
Si       0.75759154       2.06740294       3.87031030
Si       2.69049596       0.77433321       4.32118594
Si       5.77084056       6.42634780       4.32118594
Si       0.50555548       4.98196585       1.66360197
Si       7.95578104       2.21871517       1.66360197
Si       1.54017230       4.37467372       4.32118594
Si       6.92116422       2.82600730       4.32118594
Si       3.72511278       1.38162534       1.66360197
Si       4.73622374       5.81905568       1.66360197
Si      -0.00000000      -0.00000000       5.13945515
Si      -0.00000000       7.20068101       2.72759026
Si       4.23066826       3.60034051       5.13945515
Si       4.23066826       3.60034051       2.72759026
20
Lattice="8.486703548794937 -3.808493184025164e-49 -3.1675909404568624e-33 1.1564019609661647e-48 7.198364598025056 2.2301444469787246e-15 1.862715427985581e-33 -1.5390215102581903e-15 4.971551531340857" Properties=species:S:1:pos:R:3 unique_starting_index=96 config_type=initial n_minim_iter=2 stress="0.0029774918555842524 1.296784517197798e-16 4.972200918713485e-17 1.296784517197798e-16 0.00024188746477389443 -4.6605312930098454e-17 4.972200918713485e-17 -4.6605312930098454e-17 -0.0011780595692334004" pbc="T T T"
Si       6.60045347       4.29032152       1.38956144
Si       1.88625008       2.90804308       1.38956144
Si       5.00355590       1.53248389       3.85819616
Si       3.48314765       5.66588071       3.85819616
Si       6.12960185       0.69113922       1.38956144
Si       2.35710170       6.50722537       1.38956144
Si       7.72649942       5.13166619       3.85819616
Si       0.76020412       2.06669841       3.85819616
Si       2.69921249       0.77461588       4.30939691
Si       5.78749106       6.42374872       4.30939691
Si       0.50856454       4.98140877       1.65762262
Si       7.97813901       2.21695583       1.65762262
Si       1.54413929       4.37379818       4.30939691
Si       6.94256426       2.82456642       4.30939691
Si       3.73478724       1.38222647       1.65762262
Si       4.75191631       5.81613813       1.65762262
Si      -0.00000000      -0.00000000       5.12658138
Si      -0.00000000       7.19836460       2.71905014
Si       4.24335177       3.59918230       5.12658138
Si       4.24335177       3.59918230       2.71905014
20
Lattice="8.474936808421758 -3.800708040096247e-49 -3.161346207218316e-33 1.1566554411442745e-48 7.194065847687835 2.229460292690019e-15 1.8619731920347987e-33 -1.537058010003238e-15 4.966660028048749" Properties=species:S:1:pos:R:3 unique_starting_index=96 config_type=initial n_minim_iter=3 stress="-0.0013596765920184555 7.653523208343514e-18 9.587338530015369e-17 7.653523208343514e-18 -0.0031275641982420575 3.456365155068203e-17 9.587338530015369e-17 3.456365155068203e-17 -0.004010404587674999" pbc="T T T"
Si       6.59183931       4.28695500       1.38790975
Si       1.88309750       2.90711085       1.38790975
Si       4.99703275       1.53160900       3.85379113
Si       3.47790406       5.66245684       3.85379113
Si       6.12056590       0.68992207       1.38790975
Si       2.35437091       6.50414377       1.38790975
Si       7.71537247       5.12864193       3.85379113
Si       0.75956434       2.06542392       3.85379113
Si       2.69622748       0.77485018       4.30624752
Si       5.77870933       6.41921567       4.30624752
Si       0.50953510       4.97959743       1.65471618
Si       7.96540171       2.21446842       1.65471618
Si       1.54124093       4.37188310       4.30624752
Si       6.93369588       2.82218274       4.30624752
Si       3.72793331       1.38256450       1.65471618
Si       4.74700350       5.81150135       1.65471618
Si      -0.00000000      -0.00000000       5.12410418
Si      -0.00000000       7.19406585       2.71596471
Si       4.23746840       3.59703292       5.12410418
Si       4.23746840       3.59703292       2.71596471
20
Lattice="8.44594840318622 -3.7598844292939824e-49 -3.157525176704758e-33 1.1612295142753487e-48 7.220995710365337 2.2370554911889918e-15 1.8640620322753986e-33 -1.5427267885801114e-15 4.983305435363399" Properties=species:S:1:pos:R:3 unique_starting_index=96 config_type=initial n_minim_iter=4 stress="-0.0020188308110129995 -1.319182152616884e-16 1.6526743038023183e-16 -1.319182152616884e-16 0.002568520460159858 -5.1688822472932276e-17 1.6526743038023183e-16 -5.1688822472932276e-17 -0.00060872881296219" pbc="T T T"
Si       6.57240542       4.29873323       1.39117878
Si       1.87354299       2.92226248       1.39117878
Si       4.98234598       1.53742227       3.86342352
Si       3.46360242       5.68357344       3.86342352
Si       6.09651719       0.68823538       1.39117878
Si       2.34943121       6.53276034       1.39117878
Si       7.68657662       5.14792013       3.86342352
Si       0.75937178       2.07307558       3.86342352
Si       2.69099945       0.78165172       4.32649484
Si       5.75494895       6.43934399       4.32649484
Si       0.51674388       5.00429314       1.65327032
Si       7.92920452       2.21670257       1.65327032
Si       1.53197475       4.39214957       4.32649484
Si       6.91397365       2.82884614       4.32649484
Si       3.70623032       1.39379528       1.65327032
Si       4.73971808       5.82720043       1.65327032
Si      -0.00000000      -0.00000000       5.15486698
Si      -0.00000000       7.22099571       2.72316146
Si       4.22297420       3.61049786       5.15486698
Si       4.22297420       3.61049786       2.72316146
20
Lattice="8.455041449928649 -3.6278314347191686e-49 -3.168488620778574e-33 1.1578644087482275e-48 7.1940960799338916 2.2057471257768893e-15 1.8662846162582943e-33 -1.5642916697488937e-15 5.001166423438354" Properties=species:S:1:pos:R:3 unique_starting_index=96 config_type=initial n_minim_iter=5 stress="-0.000871869278247304 3.307462797351904e-17 2.063715167295064e-16 3.307462797351904e-17 -0.0009242289728103255 1.0731830520033981e-17 2.063715167295064e-16 1.0731830520033981e-17 0.0008633723003274823" pbc="T T T"
Si       6.58149584       4.28073935       1.39577032
Si       1.87354561       2.91335673       1.39577032
Si       4.98897678       1.53192966       3.87546779
Si       3.46606467       5.66216642       3.87546779
Si       6.10106634       0.68369131       1.39577032
Si       2.35397511       6.51040477       1.39577032
Si       7.69358539       5.12897770       3.87546779
Si       0.76145606       2.06511838       3.87546779
Si       2.69561457       0.78026708       4.34450682
Si       5.75942688       6.41382900       4.34450682
Si       0.52106352       4.98821061       1.65616138
Si       7.93397793       2.20588547       1.65616138
Si       1.53190615       4.37731512       4.34450682
Si       6.92313530       2.81678096       4.34450682
Si       3.70645720       1.39116257       1.65616138
Si       4.74858425       5.80293351       1.65616138
Si      -0.00000000      -0.00000000       5.17860896
Si      -0.00000000       7.19409608       2.73310958
Si       4.22752072       3.59704804       5.17860896
Si       4.22752072       3.59704804       2.73310958
20
Lattice="8.476946779088477 -3.6655463258151224e-49 -3.1701756021668805e-33 1.1581340856146504e-48 7.2002111288785375 2.207501386872126e-15 1.864213435476356e-33 -1.559563903359043e-15 4.985382438943984" Properties=species:S:1:pos:R:3 unique_starting_index=96 config_type=initial n_minim_iter=6 stress="0.0031329982539444767 -9.563910558386612e-17 8.124980149677297e-17 -9.563910558386612e-17 0.000667821581415178 -5.168753405562192e-17 8.124980149677297e-17 -5.168753405562192e-17 -0.0020046550907953102" pbc="T T T"
Si       6.61587569       4.27531377       1.39240957
Si       1.86107109       2.92489736       1.39240957
Si       5.00757887       1.53658682       3.85097040
Si       3.46936791       5.66362431       3.85097040
Si       6.09954448       0.67520821       1.39240957
Si       2.37740230       6.52500292       1.39240957
Si       7.70784130       5.13669238       3.85097040
Si       0.76910548       2.06351875       3.85097040
Si       2.71174392       0.78824580       4.34122412
Si       5.76520286       6.41196533       4.34122412
Si       0.53569178       5.00281773       1.63734747
Si       7.94125500       2.19739339       1.63734747
Si       1.52672947       4.38835137       4.34122412
Si       6.95021731       2.81185976       4.34122412
Si       3.70278161       1.40271217       1.63734747
Si       4.77416517       5.79749896       1.63734747
Si      -0.00000000      -0.00000000       5.18130714
Si      -0.00000000       7.20021113       2.73420140
Si       4.23847339       3.60010556       5.18130714
Si       4.23847339       3.60010556       2.73420140
20
Lattice="8.454194396978165 -3.624799500455056e-49 -3.17230854039761e-33 1.1582178913930405e-48 7.1923013664004225 2.209185291789158e-15 1.86746340207893e-33 -1.5644891487902278e-15 5.010835623385132" Properties=species:S:1:pos:R:3 unique_starting_index=96 config_type=initial n_minim_iter=7 stress="-0.0003982049787269795 -6.467825950332608e-17 2.2628041724385137e-17 -6.467825950332608e-17 0.00013988171455360429 -1.8073429770342868e-16 2.2628041724385137e-17 -1.8073429770342868e-16 0.0014714496554103559" pbc="T T T"
Si       6.61255525       4.26946585       1.40474076
Si       1.84163915       2.92283552       1.40474076
Si       4.99662143       1.53681490       3.86291938
Si       3.45757297       5.65548647       3.86291938
Si       6.06873635       0.67331516       1.40474076
Si       2.38545805       6.51898620       1.40474076
Si       7.68467016       5.13296558       3.86291938
Si       0.76952423       2.05933579       3.86291938
Si       2.70834445       0.78844388       4.36338331
Si       5.74584994       6.40385749       4.36338331
Si       0.53318926       5.00145193       1.64273109
Si       7.92100513       2.19084944       1.64273109
Si       1.51875274       4.38459456       4.36338331
Si       6.93544165       2.80770681       4.36338331
Si       3.69390793       1.40530125       1.64273109
Si       4.76028646       5.78700012       1.64273109
Si      -0.00000000      -0.00000000       5.20532551
Si      -0.00000000       7.19230137       2.76153894
Si       4.22709720       3.59615068       5.20532551
Si       4.22709720       3.59615068       2.76153894
20
Lattice="8.460725804011986 -3.658534754228918e-49 -3.172110592653861e-33 1.1598777336795606e-48 7.1927720899787095 2.218710705646559e-15 1.8664910257155338e-33 -1.5559147093641608e-15 5.004076995547179" Properties=species:S:1:pos:R:3 unique_starting_index=96 config_type=initial n_minim_iter=8 stress="-0.0039616869052059465 -1.9420250705494284e-16 1.465976526687305e-16 -1.9420250705494284e-16 -0.0029736635942376314 -1.334161843171228e-16 1.465976526687305e-16 -1.334161843171228e-16 -0.002395736915422074" pbc="T T T"
Si       6.66549000       4.26095474       1.41782853
Si       1.79523580       2.93181735       1.41782853
Si       5.01361346       1.53964567       3.83102798
Si       3.44711235       5.65312642       3.83102798
Si       6.02559870       0.66456869       1.41782853
Si       2.43512710       6.52820340       1.41782853
Si       7.67747525       5.13603171       3.83102798
Si       0.78325055       2.05674038       3.83102798
Si       2.73083740       0.79740173       4.36771308
Si       5.72988840       6.39537036       4.36771308
Si       0.54788165       5.03610102       1.61789332
Si       7.91284415       2.15667107       1.61789332
Si       1.49952550       4.39378777       4.36771308
Si       6.96120030       2.79898432       4.36771308
Si       3.68248125       1.43971497       1.61789332
Si       4.77824455       5.75305712       1.61789332
Si      -0.00000000      -0.00000000       5.21877267
Si      -0.00000000       7.19277209       2.78555712
Si       4.23036290       3.59638604       5.21877267
Si       4.23036290       3.59638604       2.78555712
20
Lattice="8.496324578829066 -3.688890142948745e-49 -3.181253555165542e-33 1.1608790931709025e-48 7.211029529946515 2.2195281887159442e-15 1.865187775185084e-33 -1.5561924369999852e-15 4.9940297299675365" Properties=species:S:1:pos:R:3 unique_starting_index=96 config_type=initial n_minim_iter=9 stress="-0.0005314166872459081 2.02744122692547e-17 4.035491052637372e-17 2.02744122692547e-17 -0.0034027079864756625 -1.0047681234199868e-16 4.035491052637372e-17 -1.0047681234199868e-16 -0.006530876478441335" pbc="T T T"
Si       6.75888467       4.26830523       1.44360260
Si       1.73743991       2.94272430       1.44360260
Si       5.05577259       1.53970689       3.79304626
Si       3.44055199       5.67132264       3.79304626
Si       5.98560220       0.66279046       1.44360260
Si       2.51072238       6.54823907       1.44360260
Si       7.68871428       5.14522165       3.79304626
Si       0.80761030       2.06580788       3.79304626
Si       2.76917911       0.80609017       4.36395485
Si       5.72714547       6.40493936       4.36395485
Si       0.56562068       5.11470260       1.58671640
Si       7.93070390       2.09632693       1.58671640
Si       1.47898318       4.41160494       4.36395485
Si       7.01734140       2.79942459       4.36395485
Si       3.68254161       1.50918784       1.58671640
Si       4.81378297       5.70184169       1.58671640
Si      -0.00000000      -0.00000000       5.22793714
Si      -0.00000000       7.21102953       2.80949358
Si       4.24816229       3.60551476       5.22793714
Si       4.24816229       3.60551476       2.80949358
20
Lattice="8.50157649947129 -3.659610261009387e-49 -3.187398516738223e-33 1.1612021965782167e-48 7.225803609231925 2.214395880544078e-15 1.8665404045234137e-33 -1.5660752450038018e-15 5.0042337013250435" Properties=species:S:1:pos:R:3 unique_starting_index=96 config_type=initial n_minim_iter=10 stress="0.001113215775505067 2.917862293856659e-16 -1.2347222881031057e-16 2.917862293856659e-16 -0.0022058782809029646 -1.442476996838699e-16 -1.2347222881031057e-16 -1.442476996838699e-16 -0.005409213942972679" pbc="T T T"
Si       6.79391076       4.27739173       1.46331089
Si       1.70766574       2.94841188       1.46331089
Si       5.07064428       1.53778665       3.78879028
Si       3.43093222       5.68801696       3.78879028
Si       5.95845399       0.66448993       1.46331089
Si       2.54312251       6.56131368       1.46331089
Si       7.68172047       5.15068846       3.78879028
Si       0.81985603       2.07511515       3.78879028
Si       2.78220441       0.80851446       4.37136318
Si       5.71937209       6.41728915       4.37136318
Si       0.57307871       5.16286353       1.57808880
Si       7.92849779       2.06294008       1.57808880
Si       1.46858384       4.42141626       4.37136318
Si       7.03299266       2.80438734       4.37136318
Si       3.67770954       1.54996173       1.57808880
Si       4.82386696       5.67584188       1.57808880
Si      -0.00000000      -0.00000000       5.24430017
Si      -0.00000000       7.22580361       2.82680345
Si       4.25078825       3.61290180       5.24430017
Si       4.25078825       3.61290180       2.82680345
20
Lattice="8.485655066294678 -3.6678374770773506e-49 -3.189446862453249e-33 1.1637211333880663e-48 7.243490789902736 2.2282255641892675e-15 1.869000919374997e-33 -1.5662103123531403e-15 5.023417165504821" Properties=species:S:1:pos:R:3 unique_starting_index=96 config_type=initial n_minim_iter=11 stress="0.0013348648040508748 2.983043103783468e-16 -1.3143119119356762e-17 2.983043103783468e-16 0.004318750331140298 -7.607513863540525e-17 -1.3143119119356762e-17 -7.607513863540525e-17 0.002425926855314448" pbc="T T T"
Si       6.77663500       4.29369409       1.47587895
Si       1.70902007       2.94979670       1.47587895
Si       5.06407065       1.53273808       3.81210409
Si       3.42158441       5.71075271       3.81210409
Si       5.95184760       0.67194870       1.47587895
Si       2.53380746       6.57154209       1.47587895
Si       7.66441195       5.15448347       3.81210409
Si       0.82124312       2.08900732       3.81210409
Si       2.77087430       0.80328136       4.37681301
Si       5.71478076       6.44020943       4.37681301
Si       0.57020207       5.18671987       1.59047309
Si       7.91545300       2.05677092       1.59047309
Si       1.47195323       4.42502675       4.37681301
Si       7.01370184       2.81846404       4.37681301
Si       3.67262546       1.56497448       1.59047309
Si       4.81302960       5.67851631       1.59047309
Si      -0.00000000      -0.00000000       5.25036863
Si      -0.00000000       7.24349079       2.83012425
Si       4.24282753       3.62174539       5.25036863
Si       4.24282753       3.62174539       2.83012425
20
Lattice="8.483650346113714 -3.650647900191521e-49 -3.194571078625077e-33 1.1640472307057991e-48 7.239007898918286 2.2300140875729158e-15 1.8706394529543003e-33 -1.5681831530751847e-15 5.037051309078387" Properties=species:S:1:pos:R:3 unique_starting_index=96 config_type=initial n_minim_iter=12 stress="0.0005826549459111979 1.4234824885689095e-16 -1.148208473171843e-16 1.4234824885689095e-16 0.0002660516748628647 -1.9192254400270218e-16 -1.148208473171843e-16 -1.9192254400270218e-16 -0.0004296621172611645" pbc="T T T"
Si       6.80196222       4.28310959       1.49056694
Si       1.68168812       2.95589831       1.49056694
Si       5.07391349       1.52891016       3.81137304
Si       3.40973686       5.71009774       3.81137304
Si       5.92351330       0.66360564       1.49056694
Si       2.56013705       6.57540226       1.49056694
Si       7.65156203       5.14841411       3.81137304
Si       0.83208832       2.09059379       3.81137304
Si       2.77852494       0.80659396       4.39211642
Si       5.70512541       6.43241394       4.39211642
Si       0.58599474       5.20937569       1.57960683
Si       7.89765561       2.02963221       1.57960683
Si       1.46330023       4.42609791       4.39211642
Si       7.02035011       2.81290999       4.39211642
Si       3.65583043       1.58987174       1.57960683
Si       4.82781991       5.64913616       1.57960683
Si      -0.00000000      -0.00000000       5.27525022
Si      -0.00000000       7.23900790       2.85148213
Si       4.24182517       3.61950395       5.27525022
Si       4.24182517       3.61950395       2.85148213
20
Lattice="8.480640444639654 -3.566307392558204e-49 -3.1969299472968914e-33 1.164325035692667e-48 7.230511595972076 2.215307410881247e-15 1.8713865350910587e-33 -1.578834070837245e-15 5.044536810574843" Properties=species:S:1:pos:R:3 unique_starting_index=96 config_type=initial n_minim_iter=13 stress="-0.0008944510435635759 4.050128166941577e-16 -6.934281798060747e-17 4.050128166941577e-16 -0.0022689687834619244 -2.756545256648374e-16 -6.934281798060747e-17 -2.756545256648374e-16 -0.0008946557857286011" pbc="T T T"
Si       6.80823925       4.27083696       1.49639226
Si       1.67240120       2.95967463       1.49639226
Si       5.07557420       1.52486493       3.81670193
Si       3.40506624       5.70564667       3.81670193
Si       5.91272142       0.65558116       1.49639226
Si       2.56791903       6.57493043       1.49639226
Si       7.64538647       5.14012073       3.81670193
Si       0.83525398       2.09039087       3.81670193
Si       2.77547369       0.80585867       4.39768907
Si       5.70516675       6.42465293       4.39768907
Si       0.59471920       5.20527418       1.57749258
Si       7.88592125       2.02523741       1.57749258
Si       1.46484653       4.42111446       4.39768907
Si       7.01579391       2.80939713       4.39768907
Si       3.64560103       1.59001839       1.57749258
Si       4.83503942       5.64049321       1.57749258
Si      -0.00000000      -0.00000000       5.27941392
Si      -0.00000000       7.23051160       2.86367758
Si       4.24032022       3.61525580       5.27941392
Si       4.24032022       3.61525580       2.86367758
20
Lattice="8.481778269568085 -3.525546784607725e-49 -3.198051994020641e-33 1.1652331849860286e-48 7.2391374001715825 2.2078425589771104e-15 1.87121563665374e-33 -1.5860703392648e-15 5.045177504733881" Properties=species:S:1:pos:R:3 unique_starting_index=96 config_type=initial n_minim_iter=14 stress="-0.00011577780815671386 5.114274303212395e-16 -1.9439036444798935e-16 5.114274303212395e-16 -0.0008687720542308124 -1.8564284701302783e-16 -1.9439036444798935e-16 -1.8564284701302783e-16 -0.0003117493183161776" pbc="T T T"
Si       6.82023902       4.26905611       1.50465646
Si       1.66153925       2.97008129       1.50465646
Si       5.07969536       1.52084723       3.81933427
Si       3.40208291       5.71829017       3.81933427
Si       5.90242838       0.64948741       1.50465646
Si       2.57934989       6.58964999       1.50465646
Si       7.64297205       5.14041593       3.81933427
Si       0.83880622       2.09872147       3.81933427
Si       2.77190025       0.80459889       4.39288008
Si       5.70987802       6.43453851       4.39288008
Si       0.60460962       5.21871518       1.57444711
Si       7.87716864       2.02042222       1.57444711
Si       1.46898888       4.42416759       4.39288008
Si       7.01278939       2.81496981       4.39288008
Si       3.63627951       1.59914648       1.57444711
Si       4.84549876       5.63999092       1.57444711
Si      -0.00000000      -0.00000000       5.26962054
Si      -0.00000000       7.23913740       2.87128841
Si       4.24088913       3.61956870       5.26962054
Si       4.24088913       3.61956870       2.87128841
20
Lattice="8.480683294289829 -3.524927544662726e-49 -3.1981013159915256e-33 1.1654240531172315e-48 7.241364903919289 2.2083961771165888e-15 1.870963274458754e-33 -1.5861873361642793e-15 5.045225227104978" Properties=species:S:1:pos:R:3 unique_starting_index=96 config_type=initial n_minim_iter=15 stress="0.00046553492640156335 5.020148089367372e-16 -6.965938366485905e-17 5.020148089367372e-16 0.00012099849911572799 -1.3170756384537347e-16 -6.965938366485905e-17 -1.3170756384537347e-16 0.0007301658373459346" pbc="T T T"
Si       6.81639567       4.26845448       1.50444792
Si       1.66428763       2.97291042       1.50444792
Si       5.07613472       1.51982731       3.82291242
Si       3.40454857       5.72153759       3.82291242
Si       5.90462927       0.64777203       1.50444792
Si       2.57605402       6.59359287       1.50444792
Si       7.64489022       5.14050976       3.82291242
Si       0.83579308       2.10085514       3.82291242
Si       2.76881853       0.80436335       4.39170636
Si       5.71186476       6.43700156       4.39170636
Si       0.60672325       5.21742492       1.57548387
Si       7.87396004       2.02393998       1.57548387
Si       1.47152312       4.42504580       4.39170636
Si       7.00916018       2.81631910       4.39170636
Si       3.63361840       1.59674247       1.57548387
Si       4.84706490       5.64462243       1.57548387
Si      -0.00000000      -0.00000000       5.26756971
Si      -0.00000000       7.24136490       2.86716457
Si       4.24034165       3.62068245       5.26756971
Si       4.24034165       3.62068245       2.86716457
20
Lattice="8.478738952013265 -3.4760574330773484e-49 -3.196148388549541e-33 1.1662924036510121e-48 7.25011435424373 2.1979720261322254e-15 1.8702116422591113e-33 -1.5941084141589182e-15 5.041285657152186" Properties=species:S:1:pos:R:3 unique_starting_index=96 config_type=initial n_minim_iter=16 stress="-0.00039990639344951684 5.317406471475905e-16 -1.8034666190302973e-16 5.317406471475905e-16 0.0005590514347548016 -2.1049778216760152e-16 -1.8034666190302973e-16 -2.1049778216760152e-16 0.0003740759400307763" pbc="T T T"
Si       6.81939545       4.26974809       1.50878790
Si       1.65934350       2.98036626       1.50878790
Si       5.06949951       1.51791871       3.82370902
Si       3.40923944       5.73219564       3.82370902
Si       5.89871298       0.64469091       1.50878790
Si       2.58002597       6.60542344       1.50878790
Si       7.64860892       5.14297589       3.82370902
Si       0.83013003       2.10713846       3.82370902
Si       2.76507404       0.80456402       4.38449281
Si       5.71366492       6.44555034       4.38449281
Si       0.61139297       5.22660177       1.57372066
Si       7.86734599       2.02351259       1.57372066
Si       1.47429544       4.42962120       4.38449281
Si       7.00444351       2.82049316       4.38449281
Si       3.62797651       1.60154459       1.57372066
Si       4.85076244       5.64856977       1.57372066
Si      -0.00000000      -0.00000000       5.25835233
Si      -0.00000000       7.25011435       2.86007157
Si       4.23936948       3.62505718       5.25835233
Si       4.23936948       3.62505718       2.86007157
20
Lattice="8.483590929779789 -3.508863786775184e-49 -3.19743318431685e-33 1.1663068231081568e-48 7.2529027302549025 2.2042676592630633e-15 1.8697394084907233e-33 -1.5897262875822275e-15 5.039192635923125" Properties=species:S:1:pos:R:3 unique_starting_index=96 config_type=initial n_minim_iter=17 stress="0.0003897848168310749 3.210469443444353e-16 -1.41275888639437e-16 3.210469443444353e-16 0.0011603513293641863 -1.135258721157161e-16 -1.41275888639437e-16 -1.135258721157161e-16 0.0002226728901192622" pbc="T T T"
Si       6.82681012       4.26924791       1.51221350
Si       1.65678081       2.98365482       1.51221350
Si       5.06474562       1.51803992       3.82452833
Si       3.41884531       5.73486281       3.82452833
Si       5.89857628       0.64279654       1.51221350
Si       2.58501465       6.61010619       1.51221350
Si       7.66064077       5.14449128       3.82452833
Si       0.82295016       2.10841145       3.82452833
Si       2.76447985       0.80569337       4.38090459
Si       5.71911108       6.44720936       4.38090459
Si       0.61378069       5.22926899       1.57240620
Si       7.86981024       2.02363374       1.57240620
Si       1.47731561       4.43214474       4.38090459
Si       7.00627532       2.82075800       4.38090459
Si       3.62801478       1.60281762       1.57240620
Si       4.85557615       5.65008511       1.57240620
Si      -0.00000000      -0.00000000       5.25433531
Si      -0.00000000       7.25290273       2.85265828
Si       4.24179546       3.62645137       5.25433531
Si       4.24179546       3.62645137       2.85265828
20
Lattice="8.487915913274591 -3.534366967242345e-49 -3.200575629929803e-33 1.1658007061214666e-48 7.250270532742875 2.2095926176616064e-15 1.869927161816655e-33 -1.5863453687952955e-15 5.042097735740089" Properties=species:S:1:pos:R:3 unique_starting_index=96 config_type=initial n_minim_iter=18 stress="0.0003192427071406745 3.170356104725154e-16 1.1051996774876561e-16 3.170356104725154e-16 0.0008062921288811728 -1.9851681603640908e-16 1.1051996774876561e-16 -1.9851681603640908e-16 -0.0001944942769850566" pbc="T T T"
Si       6.83727740       4.26670378       1.51951031
Si       1.65063852       2.98356676       1.51951031
Si       5.05911486       1.51855607       3.82831276
Si       3.42880105       5.73171446       3.82831276
Si       5.89459647       0.64156851       1.51951031
Si       2.59331944       6.60870202       1.51951031
Si       7.67275901       5.14369134       3.82831276
Si       0.81515690       2.10657919       3.82831276
Si       2.76337974       0.80693593       4.38163666
Si       5.72453617       6.44333460       4.38163666
Si       0.61633738       5.23072285       1.57074532
Si       7.87157854       2.01954768       1.57074532
Si       1.48057821       4.43207120       4.38163666
Si       7.00733770       2.81819933       4.38163666
Si       3.62762058       1.60558758       1.57074532
Si       4.86029533       5.64468295       1.57074532
Si      -0.00000000      -0.00000000       5.25532300
Si      -0.00000000       7.25027053       2.84905687
Si       4.24395796       3.62513527       5.25532300
Si       4.24395796       3.62513527       2.84905687
20
Lattice="8.503749419132598 -3.522030823869692e-49 -3.212498095362203e-33 1.1630695350266801e-48 7.22932839058904 2.20431743844093e-15 1.8712639423451743e-33 -1.5894061807810532e-15 5.055125849759999" Properties=species:S:1:pos:R:3 unique_starting_index=96 config_type=initial n_minim_iter=19 stress="-0.0009583054498121648 4.076646656940699e-16 9.526279611101292e-17 4.076646656940699e-16 -0.0014349296908489932 -2.2415461948597174e-16 9.526279611101292e-17 -2.2415461948597174e-16 -0.0019893659597458374" pbc="T T T"
Si       6.86328576       4.25876582       1.53990544
Si       1.64046366       2.97056257       1.53990544
Si       5.04555170       1.52200399       3.84608638
Si       3.45819772       5.70732440       3.84608638
Si       5.89233837       0.64410162       1.53990544
Si       2.61141105       6.58522677       1.53990544
Si       7.71007243       5.13666818       3.84608638
Si       0.79367699       2.09266021       3.84608638
Si       2.75686470       0.80800371       4.38798627
Si       5.74688472       6.42132468       4.38798627
Si       0.61976314       5.22049328       1.56737487
Si       7.88398628       2.00883511       1.56737487
Si       1.49501001       4.42266790       4.38798627
Si       7.00873941       2.80666049       4.38798627