8
Lattice="5.247379120213268 -1.766721092877174e-16 1.2515787016746608e-16 1.2608855151737401e-17 3.195105678429901 -0.5958745043277439 -2.30404185762019e-16 -1.2763592175823057 10.88427863639894" Properties=species:S:1:pos:R:3 unique_starting_index=34 config_type=initial n_minim_iter=5 energy=-1306.03349664278 free_energy=-1306.03349664278 pbc="T T T"
Si       0.70268699       0.29043904       5.98739997
Si       0.70268699       1.62902492       4.30087035
Si       0.71046691       0.99086752       9.74312872
Si       0.71046691       0.92859644       0.54514160
Si       4.54469213      -0.60670752      10.04094692
Si       4.54469213       2.52617149       0.24732340
Si       4.53691221       1.88796967       5.68934366
Si       4.53691221       0.03149429       4.59892666
