22
Lattice="5.653560729273059 -0.883774220298663 -1.9761959639516247 -2.831927170993654 9.71386279767984 -1.8621841592802788 -5.416009397201584 -4.347796851889938 12.411902225161777" Properties=species:S:1:pos:R:3 unique_starting_index=18 config_type=initial n_minim_iter=1 energy=-3590.532800494453 free_energy=-3590.532800494453 pbc="T T T"
Si      -0.17697836       8.27109194      -1.09685298
Si      -2.34451919      -0.66315191       6.82188495
Si      -4.69486399      -2.79531435      11.06731391
Si      -0.66244210      -2.39522359       9.70356776
Si      -6.35392804       0.37464604      10.60761314
Si       4.37645787       1.77867568      -0.58637066
Si       2.43971458       0.51989957      -0.10619181
Si      -2.63950143       0.36253367       8.65861527
Si      -2.65778497      -2.81830078      10.47059680
Si      -3.57934164       1.09049217       6.87664173
Si       0.38755794       0.27055792       3.59322472
Si      -3.67661841       2.57328030       5.35022420
Si      -3.49512107      -2.47320474       6.92108642
Si      -1.31605578       6.51414536      -0.64576463
Si       0.68116843       1.80086183       5.04799493
Si       0.45934504       6.36916772      -1.81270373
Si      -1.04163809      -1.28810415       3.21709733
Si       1.76551223      -4.24634166       6.84650912
Si      -0.04132393       2.30951023       3.09866246
Si      -3.87376055       2.09390340       8.76518289
Si      -0.92830505       4.24535259       3.21769557
Si      -2.41787598      -1.77001268       8.62975558
22
Lattice="5.652650670124865 -0.8836197834466045 -1.9763731845541395 -2.8314203187080254 9.713069654807963 -1.8626096927972013 -5.415090417744849 -4.3477038547069204 12.413448394500099" Properties=species:S:1:pos:R:3 unique_starting_index=18 config_type=initial n_minim_iter=2 stress="-0.0009760307654785998 0.00022007846133849875 -0.0001651834358493929 0.00022007846133849875 -0.0007446367030249137 -0.00033214138591133825 -0.0001651834358493929 -0.00033214138591133825 0.0005614158810683616" pbc="T T T"
Si      -0.17685691       8.27042557      -1.09706839
Si      -2.34406875      -0.66318686       6.82280818
Si      -4.69408801      -2.79519452      11.06873462
Si      -0.66232705      -2.39509972       9.70469048
Si      -6.35264855       0.37437258      10.60891780
Si       4.37572267       1.77855199      -0.58646529
Si       2.43935958       0.51992130      -0.10627625
Si      -2.63900036       0.36254209       8.65971457
Si      -2.65715811      -2.81820539      10.47184275
Si      -3.57878897       1.09033174       6.87730982
Si       0.38755962       0.27025920       3.59357009
Si      -3.67592958       2.57290934       5.35083234
Si      -3.49459694      -2.47328753       6.92200919
Si      -1.31584034       6.51344567      -0.64612770
Si       0.68117590       1.80060014       5.04877910
Si       0.45913173       6.36864087      -1.81281169
Si      -1.04143790      -1.28798062       3.21747573
Si       1.76525812      -4.24614510       6.84724324
Si      -0.04148173       2.30950842       3.09884931
Si      -3.87299040       2.09351952       8.76608481
Si      -0.92810517       4.24486162       3.21801546
Si      -2.41738564      -1.77028964       8.63102633
22
Lattice="5.653110667216664 -0.8839744694861003 -1.9761656812050847 -2.832048153160643 9.713898448254666 -1.8621783121223987 -5.415023470176905 -4.347308943426863 12.41264038464145" Properties=species:S:1:pos:R:3 unique_starting_index=18 config_type=initial n_minim_iter=3 stress="0.00032907718160342397 -6.969605212170801e-05 -2.906738889064459e-05 -6.969605212170801e-05 0.000392528098613363 7.53074830097698e-05 -2.906738889064459e-05 7.53074830097698e-05 0.0007332997748199588" pbc="T T T"
Si      -0.17716402       8.27109555      -1.09659960
Si      -2.34401375      -0.66282738       6.82256673
Si      -4.69407832      -2.79467510      11.06811036
Si      -0.66202069      -2.39475737       9.70416623
Si      -6.35275322       0.37510107      10.60840740
Si       4.37599613       1.77851770      -0.58623955
Si       2.43957107       0.51991885      -0.10624585
Si      -2.63896374       0.36317584       8.65937171
Si      -2.65687759      -2.81783613      10.47123788
Si      -3.57895547       1.09090728       6.87693781
Si       0.38772222       0.27031750       3.59341347
Si      -3.67613990       2.57348384       5.35067314
Si      -3.49463681      -2.47313715       6.92158552
Si      -1.31622140       6.51391538      -0.64592060
Si       0.68136116       1.80095707       5.04881623
Si       0.45882058       6.36905236      -1.81232149
Si      -1.04136936      -1.28785568       3.21725367
Si       1.76577237      -4.24627195       6.84674460
Si      -0.04158241       2.30998241       3.09876418
Si      -3.87309208       2.09423860       8.76571529
Si      -0.92823841       4.24536746       3.21808175
Si      -2.41723859      -1.77008356       8.63065642
22
Lattice="5.6530474502653165 -0.8839800771376194 -1.9759628259302073 -2.8320612835771968 9.713752089325753 -1.8620222979004548 -5.414846373489607 -4.347178977059843 12.411629240780039" Properties=species:S:1:pos:R:3 unique_starting_index=18 config_type=initial n_minim_iter=4 stress="-6.099125520942577e-05 -8.621074902775305e-05 -2.4823302916088337e-05 -8.621074902775305e-05 -9.949041147283435e-05 0.0002561843609633998 -2.4823302916088337e-05 0.0002561843609633998 -0.00024523973073710143" pbc="T T T"
Si      -0.17718203       8.27097581      -1.09646371
Si      -2.34392066      -0.66277950       6.82207834
Si      -4.69392327      -2.79454547      11.06722740
Si      -0.66191494      -2.39465468       9.70340085
Si      -6.35256442       0.37514711      10.60755853
Si       4.37594250       1.77847737      -0.58614976
Si       2.43955672       0.51991910      -0.10623676
Si      -2.63884833       0.36323170       8.65869071
Si      -2.65673128      -2.81773967      10.47040218
Si      -3.57886758       1.09093620       6.87636826
Si       0.38776816       0.27030610       3.59313207
Si      -3.67606507       2.57347478       5.35025098
Si      -3.49454413      -2.47308751       6.92103384
Si      -1.31624227       6.51378930      -0.64587566
Si       0.68140840       1.80094568       5.04847108
Si       0.45877502       6.36894441      -1.81212302
Si      -1.04132422      -1.28780607       3.21698700
Si       1.76583832      -4.24619294       6.84619247
Si      -0.04158012       2.30999030       3.09852153
Si      -3.87297342       2.09425760       8.76502123
Si      -0.92821395       4.24531351       3.21785194
Si      -2.41712014      -1.77003467       8.62998072
22
Lattice="5.6531216063783765 -0.8835934292581403 -1.9755958478703397 -2.8318760909878486 9.71418550835132 -1.8631347918341237 -5.4147249616823485 -4.34888895348363 12.411490308681087" Properties=species:S:1:pos:R:3 unique_starting_index=18 config_type=initial n_minim_iter=5 stress="0.00014545515522794677 5.353222237452798e-05 0.0001241818324375246 5.353222237452798e-05 7.208128766642886e-05 -0.0003423127587362088 0.0001241818324375246 -0.0003423127587362088 -0.00023960060416767305" pbc="T T T"
Si      -0.17691803       8.27140288      -1.09727777
Si      -2.34376502      -0.66363105       6.82205224
Si      -4.69374783      -2.79590571      11.06703165
Si      -0.66165720      -2.39575504       9.70325242
Si      -6.35229630       0.37371751      10.60697595
Si       4.37608417       1.77874184      -0.58619829
Si       2.43966480       0.52005012      -0.10625419
Si      -2.63856661       0.36218571       8.65822686
Si      -2.65653851      -2.81908199      10.47020088
Si      -3.57871266       1.09007798       6.87582589
Si       0.38797735       0.26989997       3.59293880
Si      -3.67595407       2.57285709       5.34965440
Si      -3.49452365      -2.47413582       6.92100169
Si      -1.31614588       6.51393476      -0.64666028
Si       0.68165679       1.80044173       5.04815162
Si       0.45895631       6.36936400      -1.81267673
Si      -1.04128802      -1.28819637       3.21694717
Si       1.76599744      -4.24708452       6.84638933
Si      -0.04143152       2.30976195       3.09811866
Si      -3.87271703       2.09324697       8.76437510
Si      -0.92802989       4.24504697       3.21724081
Si      -2.41691788      -1.77113549       8.62976173
22
Lattice="5.652873772743162 -0.8836021039825188 -1.9760730895877445 -2.8314508259403346 9.714114137972699 -1.86264848207464 -5.414931818213824 -4.348259687150265 12.412916223429896" Properties=species:S:1:pos:R:3 unique_starting_index=18 config_type=initial n_minim_iter=6 stress="-8.792708964850538e-05 9.88830586604775e-05 1.6951093085168494e-05 9.88830586604775e-05 0.00015822800586990656 5.349756883005091e-05 1.6951093085168494e-05 5.349756883005091e-05 1.2845368999582283e-05" pbc="T T T"
Si      -0.17665237       8.27152980      -1.09667507
Si      -2.34384443      -0.66329476       6.82342655
Si      -4.69379912      -2.79499850      11.06847401
Si      -0.66193435      -2.39494355       9.70417685
Si      -6.35215976       0.37410450      10.60864819
Si       4.37582370       1.77879045      -0.58636684
Si       2.43961191       0.52015096      -0.10647024
Si      -2.63858977       0.36264908       8.65936649
Si      -2.65684203      -2.81850536      10.47127876
Si      -3.57874038       1.09041476       6.87670488
Si       0.38802447       0.27012538       3.59323634
Si      -3.67606523       2.57318896       5.35059834
Si      -3.49468515      -2.47397383       6.92194059
Si      -1.31608366       6.51373053      -0.64632685
Si       0.68142367       1.80073934       5.04892671
Si       0.45921184       6.36929293      -1.81234122
Si      -1.04136032      -1.28790353       3.21720196
Si       1.76562905      -4.24676821       6.84670763
Si      -0.04150017       2.30998705       3.09860102
Si      -3.87277774       2.09383041       8.76581104
Si      -0.92813509       4.24523080       3.21791788
Si      -2.41698679      -1.77058600       8.63069625
22
Lattice="5.653299113494713 -0.8838266643440571 -1.9762437106403135 -2.8321752188401192 9.713422095187173 -1.8628588027782964 -5.415228520500805 -4.347771655697422 12.413592423820035" Properties=species:S:1:pos:R:3 unique_starting_index=18 config_type=initial n_minim_iter=7 stress="0.0002242038255187886 -0.0002535729679628071 -9.641676461258613e-05 -0.0002535729679628071 -0.0003541015018464948 -6.14003301422295e-05 -9.641676461258613e-05 -6.14003301422295e-05 5.878513916789778e-05" pbc="T T T"
Si      -0.17715588       8.27081430      -1.09676759
Si      -2.34404898      -0.66323521       6.82382981
Si      -4.69407789      -2.79448045      11.06912305
Si      -0.66198288      -2.39477313       9.70459229
Si      -6.35269538       0.37418389      10.60924133
Si       4.37593558       1.77834858      -0.58657643
Si       2.43976588       0.51998649      -0.10665792
Si      -2.63895742       0.36261805       8.65974181
Si      -2.65704419      -2.81831801      10.47169703
Si      -3.57913444       1.09036272       6.87699278
Si       0.38804718       0.27005160       3.59328226
Si      -3.67664611       2.57309184       5.35083532
Si      -3.49489072      -2.47372713       6.92240113
Si      -1.31658762       6.51316133      -0.64645903
Si       0.68118616       1.80037454       5.04904464
Si       0.45894426       6.36870931      -1.81248214
Si      -1.04138792      -1.28771072       3.21732357
Si       1.76589856      -4.24667123       6.84696620
Si      -0.04171444       2.30965960       3.09867592
Si      -3.87333518       2.09371282       8.76625668
Si      -0.92861587       4.24479457       3.21794598
Si      -2.41717569      -1.77049446       8.63117196
22
Lattice="5.6530187214871646 -0.8835933223752137 -1.97614712824557 -2.831683498928546 9.713695897014915 -1.8630322967182773 -5.41491948427452 -4.34825428008668 12.41383067577697" Properties=species:S:1:pos:R:3 unique_starting_index=18 config_type=initial n_minim_iter=8 stress="-9.967553468927475e-05 -8.559682297973388e-05 0.00017268245152679033 -8.559682297973388e-05 -1.0424179187250662e-05 -1.4089665074181212e-06 0.00017268245152679033 -1.4089665074181212e-06 2.183107127208936e-05" pbc="T T T"
Si      -0.17682976       8.27118231      -1.09655840
Si      -2.34373728      -0.66341619       6.82403584
Si      -4.69360147      -2.79437159      11.06950447
Si      -0.66172495      -2.39472804       9.70486601
Si      -6.35205657       0.37375295      10.60952003
Si       4.37574649       1.77857271      -0.58666390
Si       2.43981216       0.52019915      -0.10693237
Si      -2.63870771       0.36253072       8.65990823
Si      -2.65687170      -2.81867992      10.47171983
Si      -3.57872342       1.09013440       6.87707858
Si       0.38835466       0.27017413       3.59318363
Si      -3.67651706       2.57307777       5.35091455
Si      -3.49473226      -2.47412642       6.92269105
Si      -1.31629444       6.51326777      -0.64653473
Si       0.68122942       1.80029962       5.04911247
Si       0.45931873       6.36900451      -1.81241708
Si      -1.04127120      -1.28763303       3.21728119
Si       1.76593144      -4.24692638       6.84713306
Si      -0.04155161       2.30958789       3.09875692
Si      -3.87296847       2.09359328       8.76657765
Si      -0.92857751       4.24478966       3.21790090
Si      -2.41693851      -1.77089481       8.63156794
22
Lattice="5.65338588517239 -0.8831688587917134 -1.9766873753382441 -2.8309064187236004 9.713541563489668 -1.8628095321974478 -5.416698226447417 -4.348761983730469 12.414302291955737" Properties=species:S:1:pos:R:3 unique_starting_index=18 config_type=initial n_minim_iter=9 stress="0.00010782229269799075 0.00020635278870373644 -0.000335989043600607 0.00020635278870373644 2.647505485828581e-06 -5.333334087663657e-07 -0.000335989043600607 -5.333334087663657e-07 -0.00010103340574214201" pbc="T T T"
Si      -0.17616281       8.27121328      -1.09642538
Si      -2.34450420      -0.66371359       6.82424009
Si      -4.69502758      -2.79450205      11.07002168
Si      -0.66283748      -2.39475688       9.70493322
Si      -6.35334303       0.37320180      10.61013446
Si       4.37606151       1.77886551      -0.58722476
Si       2.44002565       0.52038200      -0.10734551
Si      -2.63968466       0.36226739       8.66009414
Si      -2.65820831      -2.81900931      10.47177333
Si      -3.57944173       1.08981123       6.87739795
Si       0.38814252       0.27019108       3.59296740
Si      -3.67708733       2.57281926       5.35124071
Si      -3.49573967      -2.47446702       6.92310171
Si      -1.31578059       6.51317261      -0.64644499
Si       0.68080346       1.80020278       5.04898689
Si       0.46004020       6.36909015      -1.81239734
Si      -1.04167024      -1.28760396       3.21730563
Si       1.76506981      -4.24696164       6.84690416
Si      -0.04179130       2.30951920       3.09868460
Si      -3.87392512       2.09325402       8.76692982
Si      -0.92880479       4.24460892       3.21785947
Si      -2.41803310      -1.77116961       8.63178676
22
Lattice="5.653481342006568 -0.8827392715744519 -1.9768758239220463 -2.8304353298978446 9.713094171701842 -1.8634141421955757 -5.417114695547622 -4.349431152131432 12.415800432294255" Properties=species:S:1:pos:R:3 unique_starting_index=18 config_type=initial n_minim_iter=10 stress="-9.794968704767495e-06 7.577421445436125e-05 6.815778973403237e-05 7.577421445436125e-05 -9.225334704318519e-05 9.009624460248338e-05 6.815778973403237e-05 9.009624460248338e-05 4.298342768230302e-05" pbc="T T T"
Si      -0.17602171       8.27089598      -1.09588011
Si      -2.34425591      -0.66472086       6.82508873
Si      -4.69469319      -2.79326337      11.07198475
Si      -0.66267723      -2.39457716       9.70660056
Si      -6.35367189       0.37246890      10.61164028
Si       4.37599947       1.77883150      -0.58807841
Si       2.44050984       0.52041917      -0.10835227
Si      -2.63985821       0.36155144       8.66102386
Si      -2.65842476      -2.81978147      10.47220733
Si      -3.57926854       1.08928074       6.87826895
Si       0.38874803       0.26997213       3.59237714
Si      -3.67733527       2.57250838       5.35191059
Si      -3.49589950      -2.47493353       6.92450479
Si      -1.31509309       6.51279506      -0.64682690
Si       0.68042046       1.79926082       5.04947518
Si       0.46061666       6.36901654      -1.81226123
Si      -1.04132858      -1.28687846       3.21734880
Si       1.76515097      -4.24761611       6.84762096
Si      -0.04244813       2.30906877       3.09862404
Si      -3.87447908       2.09259332       8.76809174
Si      -0.92972317       4.24362321       3.21752559
Si      -2.41822219      -1.77148804       8.63276967
22
Lattice="5.653482897823088 -0.8829415629485166 -1.9771681438562818 -2.8306351913660808 9.713937956689808 -1.8636421364405127 -5.4175948336620205 -4.3500697921674565 12.41610762580266" Properties=species:S:1:pos:R:3 unique_starting_index=18 config_type=initial n_minim_iter=11 stress="-0.00042253073990979013 -0.000344344737103415 -0.0002457285537303358 -0.000344344737103415 0.0004146141342847572 -0.00010837546596047747 -0.0002457285537303358 -0.00010837546596047747 -0.00011573146463753683" pbc="T T T"
Si      -0.17637692       8.27154396      -1.09602012
Si      -2.34454219      -0.66506883       6.82511350
Si      -4.69491720      -2.79336000      11.07233480
Si      -0.66321226      -2.39501030       9.70672088
Si      -6.35426250       0.37233185      10.61189741
Si       4.37582852       1.77873322      -0.58853483
Si       2.44052712       0.52022752      -0.10869515
Si      -2.64038795       0.36132502       8.66103072
Si      -2.65889192      -2.82040318      10.47218900
Si      -3.57959286       1.08919788       6.87831578
Si       0.38867593       0.26976062       3.59205989
Si      -3.67775343       2.57261353       5.35205240
Si      -3.49615848      -2.47535684       6.92478265
Si      -1.31525206       6.51328711      -0.64705069
Si       0.67986095       1.79896889       5.04923075
Si       0.46050966       6.36950075      -1.81244366
Si      -1.04135572      -1.28688679       3.21732190
Si       1.76484004      -4.24848589       6.84746458
Si      -0.04290272       2.30896166       3.09839464
Si      -3.87518628       2.09243386       8.76811376
Si      -0.93039425       4.24379302       3.21721223
Si      -2.41856160      -1.77186351       8.63285803
22
Lattice="5.654531680570267 -0.8820097744959189 -1.977404156058358 -2.829826247020162 9.712649519377944 -1.8640512979596109 -5.4197439156001055 -4.35096699984341 12.416767362124489" Properties=species:S:1:pos:R:3 unique_starting_index=18 config_type=initial n_minim_iter=12 stress="-1.9300728175294573e-05 4.47841047947727e-05 2.7167096868308736e-06 4.47841047947727e-05 4.3072120304792885e-05 8.193275657977725e-05 2.7167096868308736e-06 8.193275657977725e-05 -3.939320987881649e-06" pbc="T T T"
Si      -0.17559147       8.27089295      -1.09575072
Si      -2.34517668      -0.66588945       6.82528247
Si      -4.69575926      -2.79283797      11.07334057
Si      -0.66416813      -2.39481187       9.70760920
Si      -6.35609746       0.37119157      10.61255971
Si       4.37696820       1.77894203      -0.58907642
Si       2.44144802       0.51996618      -0.10937556
Si      -2.64134237       0.36068900       8.66133645
Si      -2.66009457      -2.82122143      10.47229374
Si      -3.58016194       1.08833018       6.87849633
Si       0.38932026       0.26942648       3.59136111
Si      -3.67857946       2.57168576       5.35268364
Si      -3.49751188      -2.47627171       6.92536177
Si      -1.31451887       6.51242195      -0.64739690
Si       0.67953971       1.79809540       5.04912196
Si       0.46167305       6.36899382      -1.81247776
Si      -1.04151483      -1.28643326       3.21716919
Si       1.76431825      -4.24889880       6.84731532
Si      -0.04327295       2.30812949       3.09813735
Si      -3.87658309       2.09100427       8.76844739
Si      -0.93125734       4.24313541       3.21667795
Si      -2.41929143      -1.77225779       8.63328343
22
Lattice="5.655680300801251 -0.8813297722143928 -1.978087924660852 -2.8296616125356953 9.711520975280676 -1.8654164428617719 -5.422181358076414 -4.35250034737109 12.419418527712287" Properties=species:S:1:pos:R:3 unique_starting_index=18 config_type=initial n_minim_iter=13 stress="2.4889417971133322e-05 9.79124327324904e-06 -3.2162625257954456e-05 9.79124327324904e-06 7.501584344310525e-05 -3.4584880926056044e-06 -3.2162625257954456e-05 -3.4584880926056044e-06 0.00010089307644388388" pbc="T T T"
Si      -0.17541182       8.26996192      -1.09604678
Si      -2.34642143      -0.66693981       6.82668102
Si      -4.69653797      -2.79188082      11.07654411
Si      -0.66554787      -2.39507024       9.71003868
Si      -6.35839606       0.37008828      10.61458267
Si       4.37814019       1.77863478      -0.58957679
Si       2.44287789       0.51881385      -0.11094338
Si      -2.64268138       0.35959692       8.66241093
Si      -2.66110216      -2.82326347      10.47418935
Si      -3.58074936       1.08680404       6.87925055
Si       0.39060915       0.26806073       3.59047004
Si      -3.68035556       2.57102445       5.35421262
Si      -3.49881999      -2.47735909       6.92696438
Si      -1.31427906       6.51187852      -0.64846881
Si       0.67810495       1.79655690       5.04937224
Si       0.46224608       6.36867424      -1.81309131
Si      -1.04188595      -1.28598392       3.21706721
Si       1.76376113      -4.25007851       6.84836346
Si      -0.04389477       2.30702100       3.09830444
Si      -3.87960619       2.08884435       8.76973483
Si      -0.93338184       4.24143923       3.21514466
Si      -2.42041065      -1.77360732       8.63464871
22
Lattice="5.6562156315418415 -0.8811806419199528 -1.977987323357713 -2.829898738522754 9.710947717306333 -1.8657095569834385 -5.422658724797257 -4.352651101884717 12.419283673785646" Properties=species:S:1:pos:R:3 unique_starting_index=18 config_type=initial n_minim_iter=14 stress="4.4330073700048184e-05 -2.515839085771444e-05 1.6233029274088906e-05 -2.515839085771444e-05 7.454553699042863e-05 3.0414055107162483e-05 1.6233029274088906e-05 3.0414055107162483e-05 4.8091660350510775e-05" pbc="T T T"
Si      -0.17548859       8.26952456      -1.09579196
Si      -2.34663731      -0.66729229       6.82674514
Si      -4.69622053      -2.79084520      11.07691270
Si      -0.66561072      -2.39475556       9.71026912
Si      -6.35906319       0.36990870      10.61434536
Si       4.37869324       1.77838665      -0.58932247
Si       2.44362840       0.51793282      -0.11127679
Si      -2.64293564       0.35948323       8.66218993
Si      -2.66100791      -2.82359444      10.47351298
Si      -3.58094989       1.08670848       6.87891241
Si       0.39154582       0.26747456       3.58982358
Si      -3.68096699       2.57111503       5.35445791
Si      -3.49904401      -2.47758656       6.92693008
Si      -1.31441487       6.51173517      -0.64868134
Si       0.67771721       1.79581277       5.04923980
Si       0.46228323       6.36837049      -1.81310506
Si      -1.04189820      -1.28565633       3.21665893
Si       1.76413779      -4.25024616       6.84833559
Si      -0.04396571       2.30665859       3.09841147
Si      -3.88085558       2.08817752       8.76949084
Si      -0.93432478       4.24074447       3.21418235
Si      -2.42048776      -1.77396719       8.63454560
22
Lattice="5.657509457058703 -0.8804217755830668 -1.9779341859176363 -2.8300338687257556 9.710090940606898 -1.8675389918457304 -5.424372300728598 -4.354845236080332 12.420244380516195" Properties=species:S:1:pos:R:3 unique_starting_index=18 config_type=initial n_minim_iter=15 stress="0.0001373637161459543 -8.28226046729403e-06 -8.127648900457232e-06 -8.28226046729403e-06 7.766400108479909e-05 -2.8161061753435197e-05 -8.127648900457232e-06 -2.8161061753435197e-05 6.417828292620897e-05" pbc="T T T"
Si      -0.17506357       8.26894561      -1.09662635
Si      -2.34731907      -0.66906148       6.82706210
Si      -4.69627565      -2.79100871      11.07835932
Si      -0.66594928      -2.39568042       9.71106532
Si      -6.36118580       0.36735965      10.61427008
Si       4.37956453       1.77822716      -0.58938160
Si       2.44522881       0.51690501      -0.11247711
Si      -2.64387426       0.35795786       8.66235035
Si      -2.66161220      -2.82593645      10.47398505
Si      -3.58200076       1.08575906       6.87877107
Si       0.39291548       0.26599895       3.58892608
Si      -3.68183654       2.57071373       5.35443509
Si      -3.49997775      -2.47926580       6.92757882
Si      -1.31470488       6.51162156      -0.64977150
Si       0.67702996       1.79364187       5.04905910
Si       0.46246837       6.36791322      -1.81418246
Si      -1.04218037      -1.28575452       3.21638397
Si       1.76471934      -4.25116338       6.84888746
Si      -0.04394450       2.30572162       3.09867197
Si      -3.88332713       2.08554766       8.76886630
Si      -0.93569692       4.23935146       3.21225298
Si      -2.42108676      -1.77568628       8.63503110
22
Lattice="5.6577452809819 -0.8799623761602272 -1.977615230760675 -2.829806072443697 9.709780332937758 -1.8683680525309216 -5.424513518706071 -4.355980242496957 12.420001724786005" Properties=species:S:1:pos:R:3 unique_starting_index=18 config_type=initial n_minim_iter=16 stress="7.789665260777776e-05 -2.0605424204874417e-05 3.992614001501287e-05 -2.0605424204874417e-05 3.7485917471656534e-05 -2.5611624861040127e-05 3.992614001501287e-05 -2.5611624861040127e-05 1.3436796563254547e-05" pbc="T T T"
Si      -0.17456252       8.26887824      -1.09670427
Si      -2.34739657      -0.66992260       6.82693061
Si      -4.69550280      -2.79074717      11.07870029
Si      -0.66567857      -2.39605817       9.71110254
Si      -6.36174210       0.36604962      10.61346328
Si       4.37945910       1.77820274      -0.58920160
Si       2.44616211       0.51621050      -0.11307549
Si      -2.64385254       0.35718782       8.66207407
Si      -2.66084290      -2.82690711      10.47344088
Si      -3.58158285       1.08505887       6.87840105
Si       0.39388240       0.26528565       3.58805668
Si      -3.68167519       2.57089281       5.35425764
Si      -3.49998565      -2.48032279       6.92750861
Si      -1.31473500       6.51180162      -0.65024822
Si       0.67639264       1.79272001       5.04874754
Si       0.46216071       6.36749199      -1.81446351
Si      -1.04211171      -1.28579576       3.21601966
Si       1.76536624      -4.25151133       6.84868732
Si      -0.04374913       2.30529517       3.09894168
Si      -3.88416468       2.08418355       8.76817995
Si      -0.93626925       4.23892497       3.21111591
Si      -2.42094343      -1.77640736       8.63497218
22
Lattice="5.6585906522004565 -0.8791070321607521 -1.9779166810180009 -2.829079411934017 9.709413291346001 -1.8694020690173587 -5.426682909674372 -4.358021670947882 12.42080040559158" Properties=species:S:1:pos:R:3 unique_starting_index=18 config_type=initial n_minim_iter=17 stress="2.9949090925746863e-06 -2.36363796659439e-05 -5.451624090078579e-05 -2.36363796659439e-05 -1.6656452502345277e-05 -2.977511036283811e-05 -5.451624090078579e-05 -2.977511036283811e-05 -6.475252780492245e-05" pbc="T T T"
Si      -0.17333377       8.26877786      -1.09701403
Si      -2.34858093      -0.67138363       6.82716614
Si      -4.69582335      -2.79108839      11.07996330
Si      -0.66659559      -2.39698772       9.71156402
Si      -6.36382010       0.36395450      10.61338061
Si       4.37997410       1.77840382      -0.58917993
Si       2.44757300       0.51565844      -0.11430677
Si      -2.64516519       0.35589040       8.66245423
Si      -2.66195600      -2.82859494      10.47340236
Si      -3.58192425       1.08392016       6.87811652
Si       0.39475449       0.26463281       3.58694276
Si      -3.68220598       2.57050108       5.35506468
Si      -3.50100011      -2.48177216       6.92800504
Si      -1.31472783       6.51200669      -0.65086818
Si       0.67504602       1.79144938       5.04819971
Si       0.46216571       6.36699929      -1.81493210
Si      -1.04258473      -1.28623222       3.21573585
Si       1.76544998      -4.25205440       6.84863532
Si      -0.04418045       2.30485994       3.09894601
Si      -3.88629662       2.08212111       8.76817375
Si      -0.93706131       4.23816687       3.20989738
Si      -2.42235204      -1.77763213       8.63528952
22
Lattice="5.658883891904834 -0.8783064159623267 -1.978097117371877 -2.828311829774366 9.709440328893994 -1.8709034236020887 -5.42783873528536 -4.360435062377999 12.422271427120913" Properties=species:S:1:pos:R:3 unique_starting_index=18 config_type=initial n_minim_iter=18 stress="-7.060050065209974e-05 3.47381405266896e-06 -9.629059839287887e-06 3.47381405266896e-06 -8.757146752735505e-05 -7.46384790033731e-05 -9.629059839287887e-06 -7.46384790033731e-05 -5.6213560780259304e-05" pbc="T T T"
Si      -0.17235901       8.26878622      -1.09768192
Si      -2.34925729      -0.67299008       6.82775317
Si      -4.69571192      -2.79193650      11.08183456
Si      -0.66729030      -2.39828109       9.71269467
Si      -6.36495440       0.36164456      10.61370999
Si       4.38010012       1.77867389      -0.58917955
Si       2.44875275       0.51531628      -0.11554219
Si      -2.64593464       0.35426702       8.66313231
Si      -2.66188045      -2.83056032      10.47416290
Si      -3.58191326       1.08298771       6.87805300
Si       0.39552712       0.26393594       3.58594037
Si      -3.68262398       2.56995906       5.35620162
Si      -3.50140949      -2.48324575       6.92858755
Si      -1.31475961       6.51248479      -0.65172161
Si       0.67423955       1.78992029       5.04814794
Si       0.46227791       6.36691446      -1.81571348
Si      -1.04268687      -1.28689685       3.21559698