12
Lattice="8.616568874841246 -1.1038005770084582 0.1816248077285439 2.158631018312156 6.741844410183688 -0.45370617100208604 4.691025635005297 -2.064178069246151 4.767527613639484" Properties=species:S:1:pos:R:3 unique_starting_index=78 config_type=initial n_minim_iter=1 energy=-1958.894674414598 free_energy=-1958.894674414598 pbc="T T T"
Si       5.08848275       1.76419139       1.34113520
Si       8.45279556       1.62122816       1.81903839
Si      12.13242279       3.31625818       2.82358708
Si       6.73510151       0.41750725       1.39045754
Si       5.03676725       2.99646832       3.07100022
Si       8.68557825       4.62362128       4.22763938
Si       8.68351929      -0.21378494       0.78754425
Si       8.58604781       2.53928149       3.73344142
Si       6.97139381      -0.77563303      -0.35258640
Si      10.05655907       1.14515761      -0.08906865
Si       6.71955563       1.68700055       3.09334058
Si       6.79398098       3.61419537       4.08993406
12
Lattice="8.615825094488413 -1.104066120107298 0.18169591444546238 2.158181702464434 6.741448015220481 -0.4536733516634407 4.690715446923858 -2.0642500036415883 4.767480233086888" Properties=species:S:1:pos:R:3 unique_starting_index=78 config_type=initial n_minim_iter=2 stress="-0.0008947202788286356 -0.0001614678047952568 -2.122109943704554e-05 -0.0001614678047952568 -0.0007769312192039162 -0.00014060804170847998 -2.122109943704554e-05 -0.00014060804170847998 -0.0005387516232366189" pbc="T T T"
Si       5.08796757       1.76396381       1.34119946
Si       8.45193949       1.62087191       1.81913628
Si      12.13127233       3.31566319       2.82372054
Si       6.73450879       0.41726510       1.39052243
Si       5.03627018       2.99613463       3.07098735
Si       8.68466989       4.62305537       4.22762470
Si       8.68271845      -0.21409321       0.78757306
Si       8.58518011       2.53886402       3.73345633
Si       6.97072260      -0.77593481      -0.35265717
Si      10.05558557       1.14473044      -0.08899333
Si       6.71892462       1.68667514       3.09332278
Si       6.79326427       3.61378907       4.08993989
12
Lattice="8.616083948927843 -1.1044894221182584 0.1818758670032562 2.157964986328916 6.741950677054815 -0.45342296036984203 4.691022475424868 -2.0644439189783443 4.767956028449165" Properties=species:S:1:pos:R:3 unique_starting_index=78 config_type=initial n_minim_iter=3 stress="-0.00024486890140468297 -0.0005934201895003711 -0.0002546633566911513 -0.0005934201895003711 0.0006358637212460479 0.0003467747636381328 -0.0002546633566911513 0.0003467747636381328 0.00017977192983616006" pbc="T T T"
Si       5.08806073       1.76409494       1.34162600
Si       8.45202349       1.62084958       1.81971722
Si      12.13163541       3.31560436       2.82458988
Si       6.73475339       0.41714916       1.39090049
Si       5.03648219       2.99628384       3.07148981
Si       8.68487322       4.62319809       4.22833208
Si       8.68285277      -0.21444725       0.78777321
Si       8.58532727       2.53893356       3.73411581
Si       6.97075928      -0.77650312      -0.35294102
Si      10.05578580       1.14446727      -0.08878897
Si       6.71913713       1.68667979       3.09377065
Si       6.79338228       3.61402131       4.09066160
12
Lattice="8.616574809363339 -1.1036641944245504 0.1824356598320675 2.1586832741141344 6.741759888749206 -0.45359147589765636 4.691435200740587 -2.0641053569852987 4.768426661084529" Properties=species:S:1:pos:R:3 unique_starting_index=78 config_type=initial n_minim_iter=4 stress="-0.00010784054262942385 0.00013536072094018974 -0.00023205289409596272 0.00013536072094018974 0.0001716266267227786 -0.00020425495983520308 -0.00023205289409596272 -0.00020425495983520308 2.480691064797186e-05" pbc="T T T"
Si       5.08865262       1.76446930       1.34197354
Si       8.45278681       1.62145866       1.82027437
Si      12.13296546       3.31635470       2.82535495
Si       6.73535899       0.41769680       1.39134785
Si       5.03736369       2.99639310       3.07171987
Si       8.68615745       4.62346159       4.22870962
Si       8.68337415      -0.21369687       0.78827421
Si       8.58631019       2.53942005       3.73461755
Si       6.97107720      -0.77594902      -0.35273531
Si      10.05656424       1.14532346      -0.08829974
Si       6.71993267       1.68705277       3.09412870
Si       6.79439137       3.61425382       4.09104237
12
Lattice="8.61714306121883 -1.1035795658790044 0.18309675748575258 2.1587991001866578 6.7413767383881495 -0.4531713264530947 4.692120962589339 -2.063806140640741 4.76877990536768" Properties=species:S:1:pos:R:3 unique_starting_index=78 config_type=initial n_minim_iter=5 stress="0.0001376324628230634 -2.915932494743572e-05 0.00016181190479601097 -2.915932494743572e-05 -8.707756867734257e-05 0.00010230084334630194 0.00016181190479601097 0.00010230084334630194 6.9763892197829e-05" pbc="T T T"
Si       5.08910824       1.76448190       1.34251915
Si       8.45346159       1.62145055       1.82107698
Si      12.13397394       3.31627675       2.82655881
Si       6.73592571       0.41773520       1.39191004
Si       5.03800841       2.99633425       3.07228227
Si       8.68708762       4.62335389       4.22960930
Si       8.68396036      -0.21358429       0.78891553
Si       8.58714266       2.53944585       3.73546010
Si       6.97151882      -0.77594006      -0.35230175
Si      10.05717296       1.14526131      -0.08746335
Si       6.72063130       1.68709426       3.09477714
Si       6.79515440       3.61422579       4.09180098
12
Lattice="8.617558932399765 -1.1032239119860614 0.1830610875876541 2.1592429185897624 6.7418178684481225 -0.4533123475507588 4.6922488158526585 -2.063784624904952 4.768607928931015" Properties=species:S:1:pos:R:3 unique_starting_index=78 config_type=initial n_minim_iter=6 stress="-9.119958623789419e-05 -2.9797063021300004e-05 5.009304510359856e-05 -2.9797063021300004e-05 4.97611686059009e-05 -5.990320701740779e-05 5.009304510359856e-05 -5.990320701740779e-05 8.655148195871257e-05" pbc="T T T"
Si       5.08960896       1.76502840       1.34268157
Si       8.45393427       1.62179275       1.82107500
Si      12.13466452       3.31673931       2.82673238
Si       6.73639084       0.41796769       1.39155823
Si       5.03880063       2.99659899       3.07223390
Si       8.68775428       4.62381088       4.22919280
Si       8.68399339      -0.21293471       0.78833889
Si       8.58745794       2.53985402       3.73524664
Si       6.97224425      -0.77558814      -0.35268891
Si      10.05759656       1.14570736      -0.08769113
Si       6.72121692       1.68757557       3.09466661
Si       6.79553944       3.61463324       4.09171324
12
Lattice="8.619955010774618 -1.1019075934957843 0.18189534589172945 2.160960100720109 6.742091262682374 -0.45286569944700833 4.692777980610327 -2.062656400118621 4.766686353237141" Properties=species:S:1:pos:R:3 unique_starting_index=78 config_type=initial n_minim_iter=7 stress="9.395870725019963e-05 9.026811813544614e-05 -0.0002962143128165042 9.026811813544614e-05 -0.00038705285668587906 0.000357618123632584 -0.0002962143128165042 0.000357618123632584 -0.00027464181365090013" pbc="T T T"
Si       5.09169284       1.76620441       1.34229098
Si       8.45646699       1.62289581       1.81997152
Si      12.13836951       3.31816899       2.82597220
Si       6.73821230       0.41926086       1.39016610
Si       5.04090361       2.99793064       3.07173708
Si       8.69011548       4.62540496       4.22741506
Si       8.68603745      -0.21121491       0.78582864
Si       8.58948335       2.54139804       3.73370376
Si       6.97493518      -0.77430231      -0.35442495
Si      10.06049306       1.14719855      -0.08927098
Si       6.72348168       1.68861167       3.09331212
Si       6.79752642       3.61601562       4.09074826
12
Lattice="8.621521094056853 -1.1014408198412204 0.18297199853547724 2.1619133070459333 6.743899394916301 -0.4538486224400402 4.693983260278929 -2.063591096092779 4.76723094215938" Properties=species:S:1:pos:R:3 unique_starting_index=78 config_type=initial n_minim_iter=8 stress="8.395648534785795e-05 -9.796850294411591e-05 0.00015278316522314864 -9.796850294411591e-05 4.9089208747016326e-05 -0.00024025759595381726 0.00015278316522314864 -0.00024025759595381726 -0.0003221903708801137" pbc="T T T"
Si       5.09338810       1.76706897       1.34272674
Si       8.45836551       1.62322072       1.82055597
Si      12.14110239       3.31886383       2.82754581
Si       6.73966482       0.41985385       1.39039477
Si       5.04298534       2.99870981       3.07216419
Si       8.69197799       4.62638461       4.22712870
Si       8.68754205      -0.21021975       0.78548508
Si       8.59124887       2.54201015       3.73411684
Si       6.97666272      -0.77339847      -0.35451112
Si      10.06216274       1.14826135      -0.08888612
Si       6.72558588       1.68885303       3.09345329
Si       6.79960327       3.61658993       4.09105537
12
Lattice="8.621527281482303 -1.1006894536373817 0.1828168260055653 2.1625545800093873 6.744244306761473 -0.4538238770274928 4.69377163098775 -2.0631452608767664 4.767527784551132" Properties=species:S:1:pos:R:3 unique_starting_index=78 config_type=initial n_minim_iter=9 stress="-0.00046441389826852326 0.0003933946545882929 9.777644286557804e-05 0.0003933946545882929 5.5684238722875605e-05 0.00010755985010875011 9.777644286557804e-05 0.00010755985010875011 0.000399861613493208" pbc="T T T"
Si       5.09376663       1.76768784       1.34287290
Si       8.45858936       1.62378545       1.82058479
Si      12.14142552       3.31980582       2.82816139
Si       6.73983467       0.42051759       1.39019725
Si       5.04354483       2.99932031       3.07272138
Si       8.69210170       4.62726910       4.22738280
Si       8.68754146      -0.20921399       0.78491853
Si       8.59134449       2.54292103       3.73447938
Si       6.97682218      -0.77256020      -0.35515026
Si      10.06229559       1.14922704      -0.08932193
Si       6.72579678       1.68954174       3.09370844
Si       6.79999058       3.61726634       4.09158286
12
Lattice="8.622766661455216 -1.1009186856087376 0.18242007731676327 2.162693281651499 6.744081299412246 -0.4541824996325713 4.694254000719986 -2.063437944577899 4.767066350030011" Properties=species:S:1:pos:R:3 unique_starting_index=78 config_type=initial n_minim_iter=10 stress="7.332505512846412e-05 -3.707920295675099e-05 -8.443108703671597e-05 -3.707920295675099e-05 -0.00021600654683057673 -0.00017788605680170942 -8.443108703671597e-05 -0.00017788605680170942 0.00017795649611133073" pbc="T T T"
Si       5.09448745       1.76755756       1.34252834
Si       8.45965319       1.62322060       1.81997005
Si      12.14281469       3.31908341       2.82767244
Si       6.74082255       0.42027682       1.38958465
Si       5.04425072       2.99897641       3.07240822
Si       8.69273003       4.62667231       4.22645172
Si       8.68866491      -0.20930985       0.78411175
Si       8.59220844       2.54249751       3.73382105
Si       6.97790669      -0.77249317      -0.35582469
Si      10.06364855       1.14900764      -0.09011714
Si       6.72652930       1.68918969       3.09316627
Si       6.80067739       3.61676740       4.09102110
12
Lattice="8.622905283954307 -1.1005386672802917 0.18249385769234006 2.163105638638003 6.744809883937499 -0.45374811898149736 4.694335227876632 -2.063156543747509 4.76612108920519" Properties=species:S:1:pos:R:3 unique_starting_index=78 config_type=initial n_minim_iter=11 stress="-0.00011281492644091494 9.181094528530305e-05 7.813974494891496e-05 9.181094528530305e-05 6.677646945987992e-05 -1.9319037309469112e-05 7.813974494891496e-05 -1.9319037309469112e-05 -0.0001546870995978944" pbc="T T T"
Si       5.09480070       1.76812990       1.34246315
Si       8.45993356       1.62383993       1.81993112
Si      12.14318738       3.32000390       2.82781656
Si       6.74120768       0.42077563       1.38933240
Si       5.04470952       2.99959119       3.07221518
Si       8.69306684       4.62768044       4.22597776
Si       8.68886557      -0.20874475       0.78389159
Si       8.59262087       2.54336000       3.73343119
Si       6.97804973      -0.77195878      -0.35592057
Si      10.06393173       1.14973763      -0.09005503
Si       6.72680838       1.68989052       3.09272277
Si       6.80108326       3.61761770       4.09064893
12
Lattice="8.6244476421258 -1.0997527949505825 0.18123737266312442 2.164144742963413 6.744608752604116 -0.45362609101908374 4.694417371898387 -2.0624077553955718 4.76469753704999" Properties=species:S:1:pos:R:3 unique_starting_index=78 config_type=initial n_minim_iter=12 stress="7.957510127661512e-05 1.0093798807528744e-05 -2.9254723164385865e-05 1.0093798807528744e-05 -8.331445375717762e-06 7.89092130507694e-06 -2.9254723164385865e-05 7.89092130507694e-06 -2.6831851957947083e-05" pbc="T T T"
Si       5.09593812       1.76857132       1.34157828
Si       8.46134585       1.62441934       1.81891641
Si      12.14489232       3.32036945       2.82676402
Si       6.74294153       0.42158504       1.38799394
Si       5.04550016       2.99992495       3.07176248
Si       8.69419013       4.62792919       4.22437059
Si       8.69060280      -0.20777444       0.78213922
Si       8.59416227       2.54406100       3.73206156
Si       6.97950190      -0.77080872      -0.35755358
Si      10.06586447       1.15046457      -0.09162752
Si       6.72790741       1.69095063       3.09109549
Si       6.80186924       3.61820496       4.08966496
12
Lattice="8.62453753923047 -1.099799215956206 0.18121725343647363 2.1641239062674367 6.744559864294265 -0.4535391118216229 4.6944747136443326 -2.062379392105414 4.764470862004061" Properties=species:S:1:pos:R:3 unique_starting_index=78 config_type=initial n_minim_iter=13 stress="1.7575058217697055e-05 -7.67048785625366e-05 6.755570554668537e-05 -7.67048785625366e-05 4.4579208707730106e-06 4.007303037606645e-05 6.755570554668537e-05 4.007303037606645e-05 7.852008317132816e-05" pbc="T T T"
Si       5.09620940       1.76852616       1.34154932
Si       8.46146678       1.62428282       1.81901857
Si      12.14434911       3.31986187       2.82730407
Si       6.74341324       0.42178635       1.38769911
Si       5.04516636       2.99984455       3.07190555
Si       8.69412452       4.62757226       4.22420349
Si       8.69074298      -0.20766287       0.78197839
Si       8.59413597       2.54390658       3.73215099
Si       6.97974221      -0.77057125      -0.35811434
Si      10.06604997       1.15060003      -0.09199678
Si       6.72826645       1.69117735       3.09091143
Si       6.80181082       3.61814832       4.08965463
12
Lattice="8.625041883031349 -1.099456185433 0.17992404524445726 2.1646740863420386 6.74521117552327 -0.4537244371159641 4.6940001481629885 -2.0622960669161587 4.76267324632374" Properties=species:S:1:pos:R:3 unique_starting_index=78 config_type=initial n_minim_iter=14 stress="0.00012187287637380087 -0.00010000821270595472 -2.8820169896179487e-05 -0.00010000821270595472 7.135558133196662e-05 7.676308475914263e-05 -2.8820169896179487e-05 7.676308475914263e-05 -2.6410448043534842e-05" pbc="T T T"
Si       5.09695780       1.76891374       1.34074372
Si       8.46239134       1.62484696       1.81750247
Si      12.14363607       3.32013575       2.82613500
Si       6.74409660       0.42265538       1.38598786
Si       5.04463491       2.99989161       3.07074288
Si       8.69428307       4.62803734       4.22200310
Si       8.69172900      -0.20692020       0.78013662
Si       8.59407793       2.54423931       3.73063032
Si       6.98050830      -0.77000561      -0.36016974
Si      10.06680590       1.15137377      -0.09398177
Si       6.72849632       1.69216733       3.08912919
Si       6.80163304       3.61876126       4.08782820
12
Lattice="8.624911725441986 -1.099630473821478 0.1796638360832534 2.1646710970538368 6.746268808505599 -0.45452144058157756 4.69373837761178 -2.0631802003560784 4.761507614270041" Properties=species:S:1:pos:R:3 unique_starting_index=78 config_type=initial n_minim_iter=15 stress="3.219103834481114e-05 -0.0001139483369221787 2.7471197733159638e-05 -0.0001139483369221787 3.1917461487163296e-05 2.985172378945541e-06 2.7471197733159638e-05 2.985172378945541e-06 7.304785267278631e-05" pbc="T T T"
Si       5.09734893       1.76890911       1.34005602
Si       8.46324694       1.62500334       1.81661534
Si      12.14140702       3.31948354       2.82665483
Si       6.74492422       0.42287884       1.38437424
Si       5.04354468       2.99969851       3.07024222
Si       8.69422129       4.62780980       4.22010313
Si       8.69192549      -0.20679114       0.77872076
Si       8.59352304       2.54383197       3.73040448
Si       6.98104107      -0.76990742      -0.36180953
Si      10.06667336       1.15186166      -0.09538400
Si       6.72796151       1.69239006       3.08731919
Si       6.80109081       3.61924387       4.08611665
12
Lattice="8.625431713620861 -1.0992522089508823 0.17920099362170264 2.1652339243879433 6.747135730526188 -0.45457689262053 4.69370726791397 -2.063191774897224 4.7598951719807925" Properties=species:S:1:pos:R:3 unique_starting_index=78 config_type=initial n_minim_iter=16 stress="3.62285595001657e-05 -1.2500494433890171e-05 4.137732226507025e-06 -1.2500494433890171e-05 9.489233305879983e-05 -1.5079661765730037e-06 4.137732226507025e-06 -1.5079661765730037e-06 -0.00010210215481710864" pbc="T T T"
Si       5.09794630       1.76925774       1.33936901
Si       8.46426120       1.62558756       1.81581075
Si      12.14151112       3.32007606       2.82640452
Si       6.74571045       0.42337207       1.38303859
Si       5.04341512       3.00027814       3.06955838
Si       8.69522542       4.62864285       4.21845095
Si       8.69265179      -0.20590586       0.77768570
Si       8.59377763       2.54432685       3.72963733
Si       6.98168587      -0.76946667      -0.36281258
Si      10.06742041       1.15268927      -0.09628909
Si       6.72825578       1.69321361       3.08561075
Si       6.80156234       3.61996262       4.08439869
12
Lattice="8.627377601463843 -1.0994111630468244 0.1784244025575592 2.1655711283850123 6.7465804419008855 -0.454782344398087 4.6944049349241315 -2.0632923997945047 4.757865351833328" Properties=species:S:1:pos:R:3 unique_starting_index=78 config_type=initial n_minim_iter=17 stress="3.598048741472104e-05 6.577766108774316e-05 2.113799522992182e-05 6.577766108774316e-05 -0.00013019374494989335 -8.38889034414919e-05 2.113799522992182e-05 -8.38889034414919e-05 -3.314944357768612e-05" pbc="T T T"
Si       5.09926739       1.76864695       1.33845409
Si       8.46635135       1.62497946       1.81523201
Si      12.14219760       3.31859720       2.82680742
Si       6.74739190       0.42326242       1.38059935
Si       5.04355042       2.99953737       3.06902409
Si       8.69723873       4.62774032       4.21642926
Si       8.69513445      -0.20597059       0.77550230
Si       8.59442277       2.54320131       3.72932988
Si       6.98397357      -0.76921169      -0.36469794
Si      10.06988007       1.15288930      -0.09826489
Si       6.72925468       1.69382493       3.08281313
Si       6.80295535       3.61954677       4.08179583
12
Lattice="8.628017179786006 -1.0999008373961623 0.17715544880535075 2.165460658283797 6.746991198774071 -0.4544503171368116 4.694202350556418 -2.0633120023241274 4.756132252559905" Properties=species:S:1:pos:R:3 unique_starting_index=78 config_type=initial n_minim_iter=18 stress="-0.00011522664207688653 0.0001290768020666907 -1.2067997204505821e-05 0.0001290768020666907 -6.943715905054924e-05 -1.5627909933138618e-05 -1.2067997204505821e-05 -1.5627909933138618e-05 6.944559136780416e-05" pbc="T T T"
Si       5.09952111       1.76848340       1.33803606
Si       8.46670033       1.62386818       1.81448852
Si      12.14126766       3.31775263       2.82711298
Si       6.74799751       0.42345483       1.37855703
Si       5.04272521       2.99929760       3.06853546
Si       8.69733301       4.62792066       4.21533248
Si       8.69610889      -0.20565598       0.77336486
Si       8.59397872       2.54247104       3.72949421
Si       6.98552723      -0.76940146      -0.36688583
Si      10.07086802       1.15313433      -0.10056837
Si       6.72888221       1.69458034       3.08003307
Si       6.80282458       3.62051614       4.07965903
12
Lattice="8.628562253398007 -1.1000418911014986 0.17707165273625936 2.16551253239271 6.747141593925283 -0.45454557456818023 4.694469144336632 -2.0634934619273393 4.755854052575834" Properties=species:S:1:pos:R:3 unique_starting_index=78 config_type=initial n_minim_iter=19 stress="-7.215500851807188e-05 9.264023095452815e-05 -7.772350259196634e-06 9.264023095452815e-05 -2.588162394240297e-05 -1.1126173156970092e-05 -7.772350259196634e-06 -1.1126173156970092e-05 6.824305929855747e-05" pbc="T T T"
Si       5.09972122       1.76840627       1.33813396
Si       8.46732799       1.62366865       1.81460609
Si      12.14198904       3.31750263       2.82707692
Si       6.74853317       0.42321222       1.37811454
Si       5.04264402       2.99935311       3.06815897
Si       8.69754106       4.62772440       4.21521215
Si       8.69680843      -0.20564934       0.77308830
Si       8.59444116       2.54214554       3.72943888
Si       6.98609626      -0.76949265      -0.36714080
Si      10.07152597       1.15314917      -0.10082811
Si       6.72911781       1.69471717       3.07967938
Si       6.80323586       3.62068499       4.07890146
12
Lattice="8.629369901806921 -1.1004380316782787 0.17701376826421958 2.1654353060543836 6.74736986828826 -0.4544555276564337 4.694952524779448 -2.063753102437062 4.755186555872777" Properties=species:S:1:pos:R:3 unique_starting_index=78 config_type=initial n_minim_iter=20 stress="-1.3085393114748605e-06 -5.684261570967375e-05 -9.728600199738313e-06 -5.684261570967375e-05 8.564990297355908e-05 5.5972706900787254e-05 -9.728600199738313e-06 5.5972706900787254e-05 6.137034109313212e-05" pbc="T T T"
Si       5.10015213       1.76768879       1.33823819
Si       8.46845708       1.62341783       1.81511884
Si      12.14283095       3.31731955       2.82667050
Si       6.74929155       0.42304798       1.37783350
Si       5.04281508       2.99954882       3.06780694
Si       8.69769079       4.62698422       4.21518655
Si       8.69753355      -0.20566704       0.77282379
Si       8.59501878       2.54168800       3.72927622
Si       6.98694018      -0.76973884      -0.36745310
Si      10.07242974       1.15298197      -0.10098626
Si       6.72927480       1.69484281       3.07908141
Si       6.80388325       3.62075246       4.07717594
12
Lattice="8.640309113650169 -1.1005462267613995 0.173877250252698 2.168241784809479 6.747769012909501 -0.4513408444641144 4.699665351367465 -2.06200397991456 4.743670003720303" Properties=species:S:1:pos:R:3 unique_starting_index=78 config_type=initial n_minim_iter=21 stress="0.000587772438104569 -0.0003913964439407487 3.731058799021919e-05 -0.0003913964439407487 0.0002084070535384802 -7.800653938320786e-06 3.731058799021919e-05 -7.800653938320786e-06 -4.3818621610509844e-05" pbc="T T T"
Si       5.10727482       1.76343281       1.33780556
Si       8.48191063       1.62124387       1.81486846
Si      12.15371519       3.31843089       2.82459349
Si       6.76098787       0.42454503       1.37042199
Si       5.04549429       3.00116921       3.06341314
Si       8.70702189       4.62608329       4.21185881
Si       8.70892075      -0.20380964       0.76475257
Si       8.60187851       2.53961512       3.72848424
Si       6.99779433      -0.76754091      -0.37498720
Si      10.08569478       1.15484930      -0.10598509
Si       6.73587493       1.70047608       3.06821419
Si       6.81222617       3.62628643       4.06037496
