22
Lattice="5.66843868499395 -0.8707244140681101 -1.9770601113421744 -2.824461605168607 9.705489387849736 -1.8807251752775602 -5.4442881718230485 -4.378648254491554 12.419741242914915" Properties=species:S:1:pos:R:3 unique_starting_index=18 config_type=initial n_minim_iter=1 energy=-3590.5366504340464 free_energy=-3590.5366504340464 pbc="T T T"
Si      -0.16140966       8.26230580      -1.09203506
Si      -2.35567576      -0.68174885       6.82471969
Si      -4.70220309      -2.79954790      11.08614791
Si      -0.67734481      -2.40785095       9.70800629
Si      -6.38556645       0.34383154      10.60575242
Si       4.38727700       1.78309062      -0.59146947
Si       2.46989221       0.50158124      -0.12752009
Si      -2.65660413       0.34590936       8.65907693
Si      -2.67137937      -2.84178575      10.46911580
Si      -3.59119179       1.07230735       6.87368832
Si       0.40619773       0.25748506       3.56801294
Si      -3.68991922       2.56962604       5.36200075
Si      -3.50820871      -2.49248188       6.92269077
Si      -1.31535891       6.51084848      -0.65530055
Si       0.65999443       1.77393382       5.04433405
Si       0.46590240       6.35973118      -1.81197382
Si      -1.03322870      -1.29254005       3.20081944
Si       1.76669461      -4.25598794       6.84461768
Si      -0.04341651       2.29803851       3.09213324
Si      -3.90952089       2.06440464       8.76559219
Si      -0.93398281       4.23265483       3.19344469
Si      -2.43400347      -1.78793298       8.63260577
22
Lattice="5.668437500083125 -0.8706522903693855 -1.9771025834146123 -2.824354946023279 9.70581499630976 -1.8809589290369852 -5.444394814455444 -4.379121944600585 12.420067384632729" Properties=species:S:1:pos:R:3 unique_starting_index=18 config_type=initial n_minim_iter=2 stress="0.00018427290310127863 -1.2904600528635709e-05 -5.9508218358898085e-06 -1.2904600528635709e-05 0.000235544663114913 -7.699604925593788e-05 -5.9508218358898085e-06 -7.699604925593788e-05 0.00031502102278464555" pbc="T T T"
Si      -0.16130844       8.26258745      -1.09222952
Si      -2.35571975      -0.68194183       6.82484719
Si      -4.70229845      -2.79993070      11.08641393
Si      -0.67741314      -2.40816073       9.70821137
Si      -6.38560406       0.34355781      10.60595079
Si       4.38729367       1.78320980      -0.59154730
Si       2.46990188       0.50162365      -0.12754311
Si      -2.65664673       0.34568779       8.65922648
Si      -2.67146593      -2.84213459      10.46936427
Si      -3.59122713       1.07215318       6.87379128
Si       0.40618043       0.25740458       3.56805843
Si      -3.68991364       2.56954698       5.36205235
Si      -3.50826084      -2.49274784       6.92288324
Si      -1.31529969       6.51106026      -0.65544171
Si       0.65999084       1.77388391       5.04439055
Si       0.46598507       6.35996863      -1.81215409
Si      -1.03326413      -1.29265315       3.20089825
Si       1.76661182      -4.25625611       6.84481112
Si      -0.04341653       2.29803670       3.09212164
Si      -3.90955090       2.06423635       8.76569663
Si      -0.93395542       4.23271715       3.19340288
Si      -2.43408236      -1.78822071       8.63279538
22
Lattice="5.668197290986165 -0.8704829647897308 -1.9770543932938964 -2.8240046710131232 9.70590283550602 -1.881121892179872 -5.444376223490568 -4.379622326737707 12.41975187448203" Properties=species:S:1:pos:R:3 unique_starting_index=18 config_type=initial n_minim_iter=3 stress="-0.00030076162287168693 0.00010621283333802754 -0.00011558187746029246 0.00010621283333802754 4.767237290899435e-05 -0.00019362289454422885 -0.00011558187746029246 -0.00019362289454422885 -0.00012450820487984682" pbc="T T T"
Si      -0.16106660       8.26267799      -1.09238375
Si      -2.35570617      -0.68217320       6.82460251
Si      -4.70229497      -2.80035395      11.08610239
Si      -0.67750808      -2.40848117       9.70788039
Si      -6.38538964       0.34318203      10.60559640
Si       4.38714952       1.78335833      -0.59162701
Si       2.46982915       0.50169057      -0.12757593
Si      -2.65661109       0.34536373       8.65891739
Si      -2.67152712      -2.84249680      10.46907650
Si      -3.59114775       1.07190626       6.87352053
Si       0.40613589       0.25728717       3.56789881
Si      -3.68973212       2.56932992       5.36182560
Si      -3.50820864      -2.49302623       6.92273569
Si      -1.31511855       6.51112147      -0.65555408
Si       0.65997643       1.77378124       5.04419540
Si       0.46615430       6.36005853      -1.81227615
Si      -1.03329650      -1.29274285       3.20079685
Si       1.76637145      -4.25642841       6.84463478
Si      -0.04340943       2.29795829       3.09191365
Si      -3.90943737       2.06393725       8.76530693
Si      -0.93384280       4.23267844       3.19316599
Si      -2.43414422      -1.78855396       8.63252058
22
Lattice="5.668354324774151 -0.8705336149174969 -1.976889039073827 -2.8241628579213827 9.705871500051323 -1.8809313477547474 -5.4442542315858775 -4.379336007824355 12.419257048980048" Properties=species:S:1:pos:R:3 unique_starting_index=18 config_type=initial n_minim_iter=4 stress="0.00018500939570522459 7.49057298887746e-05 1.2254228806401345e-06 7.49057298887746e-05 0.00019403094411623364 3.246216771601986e-05 1.2254228806401345e-06 3.246216771601986e-05 -0.0002463674600532878" pbc="T T T"
Si      -0.16101808       8.26262042      -1.09211941
Si      -2.35563412      -0.68200420       6.82434963
Si      -4.70225810      -2.80008169      11.08569535
Si      -0.67724495      -2.40829061       9.70755327
Si      -6.38527382       0.34351972      10.60524711
Si       4.38729145       1.78338563      -0.59148844
Si       2.46996119       0.50169700      -0.12750934
Si      -2.65650896       0.34548906       8.65871509
Si      -2.67138162      -2.84223930      10.46876897
Si      -3.59116747       1.07207930       6.87329346
Si       0.40623890       0.25730267       3.56781630
Si      -3.68968569       2.56941631       5.36172289
Si      -3.50811116      -2.49284578       6.92248737
Si      -1.31523323       6.51113646      -0.65536166
Si       0.66016288       1.77391156       5.04426572
Si       0.46618708       6.35994294      -1.81211502
Si      -1.03328371      -1.29259614       3.20063045
Si       1.76658983      -4.25623639       6.84442246
Si      -0.04337148       2.29799026       3.09185032
Si      -3.90938696       2.06415072       8.76501977
Si      -0.93377569       4.23281292       3.19315583
Si      -2.43409671      -1.78839682       8.63221918
22
Lattice="5.668169018536772 -0.8706053090071926 -1.9769308318461423 -2.8242867324172267 9.7054376313256 -1.8810479652191536 -5.443848132128056 -4.378984943255112 12.419860238048194" Properties=species:S:1:pos:R:3 unique_starting_index=18 config_type=initial n_minim_iter=5 stress="-3.1755745201851072e-06 2.4637512092750323e-05 3.530052176729083e-05 2.4637512092750323e-05 -0.00011118503651505759 -3.1092528306549075e-05 3.530052176729083e-05 -3.1092528306549075e-05 8.21593828894359e-05" pbc="T T T"
Si      -0.16113378       8.26217745      -1.09212926
Si      -2.35547689      -0.68190583       6.82466778
Si      -4.70196486      -2.79982037      11.08623808
Si      -0.67704677      -2.40814838       9.70802819
Si      -6.38492054       0.34368887      10.60576800
Si       4.38710970       1.78323846      -0.59148313
Si       2.46989982       0.50161701      -0.12747299
Si      -2.65634403       0.34549816       8.65918300
Si      -2.67113670      -2.84200188      10.46930999
Si      -3.59102838       1.07210441       6.87361909
Si       0.40626439       0.25725852       3.56800341
Si      -3.68953584       2.56934643       5.36200098
Si      -3.50784174      -2.49262615       6.92283334
Si      -1.31535213       6.51085144      -0.65536447
Si       0.66017799       1.77383146       5.04460775
Si       0.46606154       6.35956509      -1.81220367
Si      -1.03320676      -1.29245837       3.20075931
Si       1.76668117      -4.25601873       6.84480239
Si      -0.04339410       2.29784974       3.09199784
Si      -3.90920586       2.06413900       8.76542127
Si      -0.93377336       4.23265731       3.19331190
Si      -2.43390902      -1.78825127       8.63265005
22
Lattice="5.668055859678397 -0.8708687167418511 -1.9770238027445932 -2.824500472720616 9.705823415766496 -1.8807877052123578 -5.443730424764433 -4.378691680457104 12.419757611500206" Properties=species:S:1:pos:R:3 unique_starting_index=18 config_type=initial n_minim_iter=6 stress="-0.00010439031143635511 -0.0001822460507924917 -0.0001243714851565496 -0.0001822460507924917 9.10224145207341e-05 5.8825880111356285e-05 -0.0001243714851565496 5.8825880111356285e-05 1.6807881456695283e-05" pbc="T T T"
Si      -0.16132312       8.26240353      -1.09189838
Si      -2.35550519      -0.68170540       6.82463195
Si      -4.70196058      -2.79953038      11.08616421
Si      -0.67711485      -2.40800052       9.70784654
Si      -6.38489522       0.34414705      10.60582162
Si       4.38692454       1.78318436      -0.59154483
Si       2.46984897       0.50152578      -0.12746725
Si      -2.65645006       0.34574249       8.65918504
Si      -2.67114706      -2.84175033      10.46919518
Si      -3.59109542       1.07235834       6.87365798
Si       0.40619940       0.25731736       3.56797269
Si      -3.68958870       2.56964844       5.36210240
Si      -3.50773089      -2.49243105       6.92278140
Si      -1.31555169       6.51112608      -0.65515876
Si       0.66000066       1.77399923       5.04461229
Si       0.46590640       6.35966868      -1.81206041
Si      -1.03320545      -1.29234463       3.20067847
Si       1.76663118      -4.25604823       6.84463982
Si      -0.04352456       2.29793149       3.09200534
Si      -3.90928560       2.06450680       8.76541393
Si      -0.93391075       4.23292818       3.19336163
Si      -2.43389050      -1.78803587       8.63257513
22
Lattice="5.667900417938101 -0.8706546335018629 -1.9767306471620945 -2.824156693951361 9.705848306838172 -1.8808071589180255 -5.443347394273868 -4.378924436892317 12.41916281959989" Properties=species:S:1:pos:R:3 unique_starting_index=18 config_type=initial n_minim_iter=7 stress="-8.016437013057948e-05 9.31909809524814e-05 -4.702529207503684e-06 9.31909809524814e-05 3.716424202638092e-05 9.747546842986853e-05 -4.702529207503684e-06 9.747546842986853e-05 5.5519321680955177e-05" pbc="T T T"
Si      -0.16084742       8.26242255      -1.09171364
Si      -2.35526549      -0.68175178       6.82434586
Si      -4.70172402      -2.79972942      11.08563921
Si      -0.67683886      -2.40799454       9.70737574
Si      -6.38437676       0.34395533      10.60533711
Si       4.38696261       1.78352102      -0.59141049
Si       2.46995523       0.50157919      -0.12726999
Si      -2.65615200       0.34559738       8.65887591
Si      -2.67086272      -2.84175186      10.46874621
Si      -3.59080503       1.07212665       6.87337991
Si       0.40639939       0.25735956       3.56790328
Si      -3.68921493       2.56951922       5.36189210
Si      -3.50745457      -2.49254576       6.92240613
Si      -1.31535544       6.51122678      -0.65505543
Si       0.66024054       1.77413857       5.04451782
Si       0.46619669       6.35964896      -1.81193031
Si      -1.03316728      -1.29225540       3.20042814
Si       1.76664760      -4.25592924       6.84452623
Si      -0.04330700       2.29784031       3.09190429
Si      -3.90874765       2.06436032       8.76492045
Si      -0.93350157       4.23302710       3.19318948
Si      -2.43350642      -1.78806477       8.63221202
22
Lattice="5.668069761809987 -0.8707113657215737 -1.9765103132049968 -2.824548598390128 9.705905380793046 -1.8812258994114541 -5.443170121131553 -4.379287339570326 12.418787467243805" Properties=species:S:1:pos:R:3 unique_starting_index=18 config_type=initial n_minim_iter=8 stress="5.4201290260128777e-05 -6.467466032613989e-05 1.836332730125069e-05 -6.467466032613989e-05 -4.786885897640737e-05 -8.527491583037068e-05 1.836332730125069e-05 -8.527491583037068e-05 -5.657727577861455e-05" pbc="T T T"
Si      -0.16102792       8.26233646      -1.09199402
Si      -2.35520640      -0.68196852       6.82406204
Si      -4.70165670      -2.80008744      11.08525028
Si      -0.67663777      -2.40837439       9.70703132
Si      -6.38439748       0.34365888      10.60483967
Si       4.38705095       1.78347435      -0.59143060
Si       2.47007881       0.50149784      -0.12723280
Si      -2.65611176       0.34524695       8.65851924
Si      -2.67071549      -2.84209269      10.46845818
Si      -3.59086819       1.07184135       6.87303406
Si       0.40649119       0.25719401       3.56777885
Si      -3.68928651       2.56933332       5.36153548
Si      -3.50733954      -2.49271997       6.92217481
Si      -1.31561828       6.51123626      -0.65531890
Si       0.66027164       1.77389236       5.04424502
Si       0.46603856       6.35959418      -1.81210467
Si      -1.03311198      -1.29229504       3.20029186
Si       1.76690408      -4.25620372       6.84449894
Si      -0.04333443       2.29763158       3.09166798
Si      -3.90873570       2.06402464       8.76437949
Si      -0.93353040       4.23287223       3.19282778
Si      -2.43334056      -1.78834737       8.63191259
22
Lattice="5.668031387648438 -0.8706663189564466 -1.9764130649495522 -2.824452747217565 9.70612114280428 -1.881229557752595 -5.443063239217716 -4.379457635435382 12.418552097626986" Properties=species:S:1:pos:R:3 unique_starting_index=18 config_type=initial n_minim_iter=9 stress="-5.5976697192809263e-05 -1.1244699560823625e-05 4.489269076829238e-05 -1.1244699560823625e-05 4.3050592572263945e-05 -3.529138195792897e-06 4.489269076829238e-05 -3.529138195792897e-06 1.5707872029392873e-05" pbc="T T T"
Si      -0.16082837       8.26246687      -1.09187811
Si      -2.35513066      -0.68197613       6.82387358
Si      -4.70163783      -2.80026169      11.08501771
Si      -0.67660394      -2.40840710       9.70676060
Si      -6.38429567       0.34362872      10.60469924
Si       4.38707782       1.78371016      -0.59145556
Si       2.47021375       0.50152573      -0.12722649
Si      -2.65600270       0.34520814       8.65849267
Si      -2.67072803      -2.84216322      10.46842152
Si      -3.59089119       1.07173083       6.87294830
Si       0.40657784       0.25722620       3.56776978
Si      -3.68914981       2.56932864       5.36146748
Si      -3.50722913      -2.49280200       6.92198957
Si      -1.31560195       6.51139884      -0.65529722
Si       0.66027882       1.77396724       5.04416452
Si       0.46613136       6.35965705      -1.81197276
Si      -1.03306063      -1.29222250       3.20013706
Si       1.76684254      -4.25621206       6.84444526
Si      -0.04331561       2.29764246       3.09159356
Si      -3.90853411       2.06399962       8.76414029
Si      -0.93329673       4.23294245       3.19270330
Si      -2.43318837      -1.78840470       8.63176602
22
Lattice="5.668286191009566 -0.8705795040939659 -1.9765308794659056 -2.824378024083062 9.705895900755808 -1.8810903550482454 -5.443662609752855 -4.379414287070562 12.418448580729626" Properties=species:S:1:pos:R:3 unique_starting_index=18 config_type=initial n_minim_iter=10 stress="9.47934680375216e-05 4.8590262709985473e-05 -0.00015592318913931497 4.8590262709985473e-05 -9.432342666159201e-05 5.5789898201118365e-06 -0.00015592318913931497 5.5789898201118365e-06 2.7673201748162305e-05" pbc="T T T"
Si      -0.16066092       8.26227818      -1.09178574
Si      -2.35540751      -0.68196256       6.82377454
Si      -4.70221303      -2.80028348      11.08491289
Si      -0.67695727      -2.40833427       9.70653136
Si      -6.38484589       0.34359385      10.60471029
Si       4.38729561       1.78381500      -0.59160820
Si       2.47038723       0.50149559      -0.12725229
Si      -2.65631286       0.34518194       8.65846796
Si      -2.67118998      -2.84206642      10.46829265
Si      -3.59128730       1.07164780       6.87293966
Si       0.40651430       0.25724343       3.56770278
Si      -3.68938595       2.56922888       5.36148979
Si      -3.50755335      -2.49278497       6.92191977
Si      -1.31556777       6.51125741      -0.65523721
Si       0.66014640       1.77395041       5.04405320
Si       0.46629730       6.35948568      -1.81187492
Si      -1.03315288      -1.29214590       3.20004939
Si       1.76662127      -4.25604191       6.84425757
Si      -0.04339051       2.29759643       3.09151535
Si      -3.90887333       2.06392974       8.76406670
Si      -0.93326431       4.23283440       3.19264059
Si      -2.43353228      -1.78839481       8.63165399
22
Lattice="5.668272429335232 -0.8706351320284629 -1.9761253980074707 -2.824561853560891 9.706152026457342 -1.8810910706715205 -5.44309737421135 -4.379469229364204 12.417385067357683" Properties=species:S:1:pos:R:3 unique_starting_index=18 config_type=initial n_minim_iter=11 stress="-3.192743926803914e-06 -4.751425700578043e-06 2.7520427595743177e-05 -4.751425700578043e-06 1.3359476733683084e-05 2.2452038544770607e-06 2.7520427595743177e-05 2.2452038544770607e-06 -1.9381869099093727e-05" pbc="T T T"
Si      -0.16070988       8.26242893      -1.09160863
Si      -2.35507847      -0.68192049       6.82317145
Si      -4.70181736      -2.80041144      11.08393779
Si      -0.67653857      -2.40836136       9.70577950
Si      -6.38447958       0.34372989      10.60381334
Si       4.38735145       1.78402882      -0.59146660
Si       2.47057687       0.50134946      -0.12701046
Si      -2.65586537       0.34520270       8.65793783
Si      -2.67081065      -2.84196598      10.46749336
Si      -3.59121274       1.07164049       6.87238722
Si       0.40671821       0.25726001       3.56751109
Si      -3.68917645       2.56929464       5.36101313
Si      -3.50718150      -2.49282915       6.92124397
Si      -1.31567517       6.51143191      -0.65527669
Si       0.66029828       1.77398566       5.04377531
Si       0.46620999       6.35952281      -1.81159757
Si      -1.03285503      -1.29204101       3.19967939
Si       1.76691014      -4.25603125       6.84390084
Si      -0.04327292       2.29763883       3.09125723
Si      -3.90848787       2.06403329       8.76333584
Si      -0.93290680       4.23290561       3.19232106
Si      -2.43313605      -1.78845385       8.63096048
22
Lattice="5.668585574439788 -0.8705797460142077 -1.9760174267176613 -2.824606678721233 9.706153772048335 -1.8809421760213447 -5.443490424913062 -4.379523065922483 12.416588574420729" Properties=species:S:1:pos:R:3 unique_starting_index=18 config_type=initial n_minim_iter=12 stress="1.404899147421596e-05 6.0961920188040145e-06 4.400964091476902e-06 6.0961920188040145e-06 9.74433987935158e-08 5.5588236274437185e-06 4.400964091476902e-06 5.5588236274437185e-06 3.6039149994330797e-06" pbc="T T T"
Si      -0.16059625       8.26229599      -1.09131883
Si      -2.35522440      -0.68176105       6.82269695
Si      -4.70237672      -2.80074912      11.08315279
Si      -0.67670808      -2.40841474       9.70496970
Si      -6.38500937       0.34374571      10.60329810
Si       4.38761738       1.78453558      -0.59172666
Si       2.47113898       0.50105894      -0.12685470
Si      -2.65610710       0.34516744       8.65749693
Si      -2.67128682      -2.84175777      10.46706908
Si      -3.59183908       1.07139104       6.87220579
Si       0.40670311       0.25724973       3.56718038
Si      -3.68948555       2.56928232       5.36065604
Si      -3.50728250      -2.49296171       6.92061487
Si      -1.31564201       6.51152614      -0.65523439
Si       0.66006148       1.77397190       5.04361370
Si       0.46647603       6.35941427      -1.81112447
Si      -1.03253951      -1.29187210       3.19914983
Si       1.76671684      -4.25579234       6.84336409
Si      -0.04309919       2.29750335       3.09086252
Si      -3.90873544       2.06408007       8.76296575
Si      -0.93235083       4.23297104       3.19199879
Si      -2.43340372      -1.78849646       8.63021422
22
Lattice="5.668792772638041 -0.8706084571826829 -1.9759283704432395 -2.8247483001681415 9.70623550618433 -1.880862548053599 -5.443695734935088 -4.3795594763693755 12.415963500306319" Properties=species:S:1:pos:R:3 unique_starting_index=18 config_type=initial n_minim_iter=13 stress="2.1883996895948173e-05 -3.6080703405277255e-06 7.285066125153953e-06 -3.6080703405277255e-06 -6.374498829122001e-06 5.107087047533533e-06 7.285066125153953e-06 5.107087047533533e-06 -5.0917395981961124e-06" pbc="T T T"
Si      -0.16061038       8.26222964      -1.09112910
Si      -2.35532570      -0.68159069       6.82222951
Si      -4.70276051      -2.80100803      11.08256983
Si      -0.67679343      -2.40854328       9.70433636
Si      -6.38536197       0.34373573      10.60282267
Si       4.38779838       1.78484699      -0.59179006
Si       2.47153517       0.50087039      -0.12682757
Si      -2.65637152       0.34521629       8.65709595
Si      -2.67160027      -2.84164748      10.46661757
Si      -3.59231014       1.07135714       6.87195231
Si       0.40672192       0.25727381       3.56689275
Si      -3.68976722       2.56922477       5.36049806
Si      -3.50730721      -2.49299948       6.92003026
Si      -1.31572820       6.51161189      -0.65519642
Si       0.65992732       1.77388045       5.04343188
Si       0.46663536       6.35940047      -1.81078321
Si      -1.03234936      -1.29187328       3.19870234
Si       1.76667292      -4.25571147       6.84298118
Si      -0.04302692       2.29743309       3.09046317
Si      -3.90894510       2.06413684       8.76273240
Si      -0.93199263       4.23305865       3.19177508
Si      -2.43351047      -1.78857041       8.62983941
22
Lattice="5.668879920178032 -0.8705823996332108 -1.975920540029225 -2.8247025776661996 9.70649660661961 -1.8808424175864467 -5.443910166347471 -4.379790801947611 12.41569908293593" Properties=species:S:1:pos:R:3 unique_starting_index=18 config_type=initial n_minim_iter=14 stress="1.2246699042708883e-05 -8.537631633068653e-07 5.592273172283048e-08 -8.537631633068653e-07 8.873631872538623e-06 -2.0988446955228368e-06 5.592273172283048e-08 -2.0988446955228368e-06 7.460906034218292e-06" pbc="T T T"
Si      -0.16048676       8.26237749      -1.09097596
Si      -2.35548351      -0.68157460       6.82211651
Si      -4.70312463      -2.80142932      11.08233035
Si      -0.67693443      -2.40882874       9.70399130
Si      -6.38568346       0.34367855      10.60260595
Si       4.38787266       1.78522917      -0.59182816
Si       2.47187760       0.50075600      -0.12685535
Si      -2.65655732       0.34515841       8.65691919
Si      -2.67192916      -2.84167481      10.46642643
Si      -3.59264734       1.07130067       6.87187370
Si       0.40668730       0.25728993       3.56663124
Si      -3.68990034       2.56914976       5.36055376
Si      -3.50727271      -2.49302383       6.91961828
Si      -1.31576319       6.51172763      -0.65519425
Si       0.65977677       1.77383183       5.04337628
Si       0.46676266       6.35945225      -1.81047509
Si      -1.03219288      -1.29199626       3.19834613
Si       1.76655116      -4.25575186       6.84277159
Si      -0.04301092       2.29748445       3.09008723
Si      -3.90909649       2.06418929       8.76273523
Si      -0.93158531       4.23318872       3.19166751
Si      -2.43362777      -1.78852722       8.62954711
22
Lattice="5.668937412297795 -0.8705332093307373 -1.9758452852176311 -2.8246112000964443 9.706580435990578 -1.8807051036950941 -5.444029997871635 -4.379841137205944 12.415172197541592" Properties=species:S:1:pos:R:3 unique_starting_index=18 config_type=initial n_minim_iter=15 stress="-8.876909396044521e-06 -4.918439575510512e-06 4.0712622668291915e-06 -4.918439575510512e-06 3.065766024251255e-06 2.371076190439709e-06 4.0712622668291915e-06 2.371076190439709e-06 5.011600258126266e-06" pbc="T T T"
Si      -0.16027419       8.26236885      -1.09064302
Si      -2.35564179      -0.68141043       6.82179098
Si      -4.70336903      -2.80181170      11.08188695
Si      -0.67708304      -2.40902108       9.70348301
Si      -6.38584963       0.34377164      10.60215754
Si       4.38778770       1.78566322      -0.59184824
Si       2.47230494       0.50064498      -0.12690584
Si      -2.65673369       0.34529178       8.65666455
Si      -2.67212022      -2.84145283      10.46600246
Si      -3.59280791       1.07119177       6.87179076
Si       0.40662471       0.25740528       3.56622793
Si      -3.68990299       2.56912859       5.36057736
Si      -3.50709207      -2.49287886       6.91904769
Si      -1.31582558       6.51165153      -0.65509282
Si       0.65957850       1.77384300       5.04324540
Si       0.46674636       6.35922519      -1.80999488
Si      -1.03192062      -1.29211802       3.19788678
Si       1.76654425      -4.25559599       6.84232063
Si      -0.04288437       2.29751186       3.08971891
Si      -3.90913606       2.06428756       8.76265062
Si      -0.93102202       4.23339340       3.19161965
Si      -2.43376229      -1.78845722       8.62921947
22
Lattice="5.6692269252140255 -0.8703353030015064 -1.9758468715201918 -2.824397352634491 9.706587381632044 -1.8806544778058767 -5.444631679039956 -4.380141813770242 12.41482505029737" Properties=species:S:1:pos:R:3 unique_starting_index=18 config_type=initial n_minim_iter=16 stress="6.047665922622492e-06 4.323104458742114e-06 -1.1389076535170327e-05 4.323104458742114e-06 -4.785411881886159e-06 -1.5301116697695735e-06 -1.1389076535170327e-05 -1.5301116697695735e-06 6.108458252056066e-06" pbc="T T T"
Si      -0.15983088       8.26222244      -1.09039112
Si      -2.35595070      -0.68140123       6.82152173
Si      -4.70384891      -2.80246922      11.08157755
Si      -0.67750742      -2.40927210       9.70299862
Si      -6.38650519       0.34341663      10.60178405
Si       4.38780333       1.78617593      -0.59192678
Si       2.47285305       0.50058015      -0.12701512
Si      -2.65707046       0.34510504       8.65653845
Si      -2.67270830      -2.84139672      10.46568244
Si      -3.59329804       1.07104434       6.87171744
Si       0.40658584       0.25756282       3.56588090
Si      -3.68998049       2.56903327       5.36061629
Si      -3.50717265      -2.49291738       6.91866803
Si      -1.31586721       6.51158870      -0.65489039
Si       0.65936647       1.77370594       5.04303682
Si       0.46694242       6.35902716      -1.80972921
Si      -1.03174889      -1.29235165       3.19748029
Si       1.76652445      -4.25541047       6.84185873
Si      -0.04269265       2.29749068       3.08944087
Si      -3.90955172       2.06425907       8.76263405
Si      -0.93044519       4.23360117       3.19154214
Si      -2.43416877      -1.78845896       8.62895284
22
Lattice="5.669116487856084 -0.8702845775085115 -1.9756739127005263 -2.824301022944339 9.706817887254743 -1.8807220638820175 -5.444380967099153 -4.380399767625906 12.414379188531665" Properties=species:S:1:pos:R:3 unique_starting_index=18 config_type=initial n_minim_iter=17 stress="-1.2366723802565889e-05 1.199030612103425e-06 -4.7544653125067285e-06 1.199030612103425e-06 7.146167784320965e-06 -3.0718792577503973e-06 -4.7544653125067285e-06 -3.0718792577503973e-06 1.8360686814007405e-06" pbc="T T T"
Si      -0.15965550       8.26216913      -1.09022785
Si      -2.35578904      -0.68139747       6.82126193
Si      -4.70373237      -2.80292279      11.08125253
Si      -0.67744903      -2.40951814       9.70256812
Si      -6.38635634       0.34315288      10.60124893
Si       4.38754580       1.78647681      -0.59175855
Si       2.47312003       0.50047580      -0.12704589
Si      -2.65703250       0.34510154       8.65633928
Si      -2.67253552      -2.84144465      10.46532533
Si      -3.59331508       1.07101239       6.87153204
Si       0.40666475       0.25755143       3.56564136
Si      -3.68971175       2.56914655       5.36047149
Si      -3.50683764      -2.49298715       6.91829077
Si      -1.31585771       6.51174992      -0.65475739
Si       0.65930126       1.77364696       5.04291648
Si       0.46682253       6.35903765      -1.80953558
Si      -1.03144780      -1.29254500       3.19715384
Si       1.76673878      -4.25532701       6.84161261
Si      -0.04252378       2.29764059       3.08921982
Si      -3.90947575       2.06423665       8.76236195
Si      -0.92996292       4.23374373       3.19132572
Si      -2.43408071      -1.78851059       8.62860947
22
Lattice="5.669059068169401 -0.8702200186647208 -1.9753948549809284 -2.824304207520878 9.706794826770528 -1.880854531399197 -5.444030647515615 -4.380587150269753 12.413697959978467" Properties=species:S:1:pos:R:3 unique_starting_index=18 config_type=initial n_minim_iter=18 stress="-8.421526873172647e-06 -1.2526738445571576e-06 -5.807039771725054e-06 -1.2526738445571576e-06 -2.854856219303575e-06 9.762294339407514e-08 -5.807039771725054e-06 9.762294339407514e-08 2.0803341089530297e-06" pbc="T T T"
Si      -0.15950582       8.26194985      -1.08996205
Si      -2.35550641      -0.68112508       6.82092526
Si      -4.70359080      -2.80343671      11.08081910
Si      -0.67730260      -2.40982764       9.70192398
Si      -6.38622634       0.34292102      10.60038517
Si       4.38731319       1.78678134      -0.59123232
Si       2.47360922       0.50005770      -0.12709111
Si      -2.65682238       0.34510093       8.65602847
Si      -2.67235072      -2.84149204      10.46487012
Si      -3.59331086       1.07085320       6.87112874
Si       0.40692642       0.25754192       3.56529579
Si      -3.68945726       2.56931285       5.36027613
Si      -3.50642478      -2.49308831       6.91756707
Si      -1.31606940       6.51161477      -0.65448899
Si       0.65905938       1.77361320       5.04268532
Si       0.46662713       6.35865878      -1.80936026