2
Lattice="3.0856086562197973 -2.831066082716944e-17 -2.311224306222553e-49 -1.5428043281098986 2.672215482423509 2.759069003115678e-48 2.543589146509461e-49 -3.3593467167464007e-48 3.395828205512376" Properties=species:S:1:pos:R:3:forces:R:3 n_minim_iter=1 energy=-325.0082739220362 stress="-0.14224185536887796 8.55900107632312e-17 -2.80033911436703e-17 8.55900107632312e-17 -0.1422418553688782 -2.22726086640475e-17 -2.80033911436703e-17 -2.22726086640475e-17 -0.16117304485565673" free_energy=-325.0082739220362 pbc="T T T"
Si      -0.00000000       0.00000000       0.00000000       0.00000000      -0.00000000       0.00000000
Si       0.00000000       1.78147699       1.69791410      -0.00000000       0.00000000      -0.00000000
2
Lattice="2.719752825923303 7.411249772593719e-17 5.732327516737138e-47 -1.3598764129616514 2.3553750392640964 1.1525192755941083e-46 6.443121113446479e-47 1.7263954561203052e-46 4.370876406508242" Properties=species:S:1:pos:R:3:forces:R:3 n_minim_iter=2 energy=-325.1911940272325 stress="-0.020813750788186255 1.613757369059186e-16 4.849481065864585e-17 1.613757369059186e-16 -0.020813750788186217 -4.981134176882945e-17 4.849481065864585e-17 -4.981134176882945e-17 -0.06034632010925913" free_energy=-325.1911940272325 pbc="T T T"
Si      -0.00000000       0.00000000      -0.00000000       0.00000000       0.00000000       0.00000000
Si      -0.00000000       1.57025003       2.18543820      -0.00000000      -0.00000000      -0.00000000
