2
Lattice="3.2742687057955964 0.0 0.0 -1.6371343528977982 2.8355998780353824 0.0 0.0 0.0 3.2742687057955964" Properties=species:S:1:pos:R:3:forces:R:3 n_minim_iter=1 energy=-325.2380249881272 stress="-0.0231457565188924 -9.154557653346149e-17 9.42977818407232e-17 -9.154557653346149e-17 -0.02314575651889239 3.2748463151053045e-17 9.42977818407232e-17 3.2748463151053045e-17 -0.03253970322027425" free_energy=-325.2380249881272 pbc="T T T"
Si       0.00000000       0.00000000       0.00000000       0.00000000       0.00000000       0.00000000
Si       0.00000000       1.89039992       1.63713435      -0.00000000      -0.00000000      -0.00000000
