2
Lattice="3.171363535158317 -2.909746743889244e-17 -2.375457584859609e-49 -1.5856817675791586 2.746481386082726 2.8357487297777975e-48 -3.821876118709729e-49 2.3994513665347177e-48 3.4902046702895033" Properties=species:S:1:pos:R:3:forces:R:3 n_minim_iter=2 energy=-325.2222390156027 stress="-0.03603520276338087 -1.536791857929957e-18 -8.216550681541708e-17 -1.536791857929957e-18 -0.03603520276338088 2.9387582985832357e-17 -8.216550681541708e-17 2.9387582985832357e-17 -0.038389606445697874" free_energy=-325.2222390156027 pbc="T T T"
Si      -0.00000000      -0.00000000       0.00000000      -0.00000000       0.00000000      -0.00000000
Si      -0.00000000       1.83098759       1.74510234       0.00000000      -0.00000000       0.00000000
