4
Lattice="1.9080695398959862 -3.3048733874744185 -1.4528387428783375e-34 1.9080695398959862 3.3048733874744185 1.4528387428783446e-34 -1.1775425708298453e-48 -2.7643490978414112e-34 6.288257256304475" Properties=species:S:1:pos:R:3:forces:R:3 cutoff=-1.0 nneightol=1.2 n_minim_iter=1 energy=-652.656932941608 stress="-0.01592506179071743 -2.867086536742847e-17 -3.7259089104512505e-17 -2.867086536742847e-17 -0.01592506179072012 -1.8715474635852377e-16 -3.7259089104512505e-17 -1.8715474635852377e-16 -0.017321830947663652" free_energy=-652.656932941608 pbc="T T T"
Si       1.90806954       1.10162446       0.39209273       0.00000000       0.00000000       0.00268395
Si       1.90806954      -1.10162446       3.53622136       0.00000000       0.00000000       0.00268395
Si       1.90806954       1.10162446       2.75203590      -0.00000000      -0.00000000      -0.00268395
Si       1.90806954      -1.10162446      -0.39209273      -0.00000000      -0.00000000      -0.00268395
