4
Lattice="2.0626791707904726 -3.572665123523139 -1.0642070529545964e-34 2.062679170790473 3.572665123523139 1.0642070529545842e-34 1.997334010151692e-48 -2.0138198956480714e-34 6.760624341159925" Properties=species:S:1:pos:R:3:forces:R:3 cutoff=-1.0 nneightol=1.2 n_minim_iter=1 energy=-652.0681958144944 stress="0.04255595578688818 -2.4168914432179287e-17 8.7657471036213e-18 -2.4168914432179287e-17 0.04255595578688742 2.7701555549513006e-17 8.7657471036213e-18 2.7701555549513006e-17 0.04153060678105204" free_energy=-652.0681958144944 pbc="T T T"
Si       2.06267917       1.19088837       0.43028381      -0.00000000      -0.00000000       0.07397108
Si       2.06267917      -1.19088837       3.81059598      -0.00000000      -0.00000000       0.07397108
Si       2.06267917       1.19088837       2.95002836       0.00000000       0.00000000      -0.07397108
Si       2.06267917      -1.19088837      -0.43028381       0.00000000      -0.00000000      -0.07397108
4
Lattice="2.0591116571538324 -3.566486008647783 1.111358822647522e-34 2.059111657153833 3.566486008647783 -1.1113588226475313e-34 1.4526052539221266e-48 -6.13334153842105e-34 6.784070872387123" Properties=species:S:1:pos:R:3:forces:R:3 cutoff=-1.0 nneightol=1.2 n_minim_iter=2 energy=-652.0689277015263 stress="0.04089080072056787 1.1912537151247012e-16 7.9196392401933e-17 1.1912537151247012e-16 0.04089080072056812 1.3063129362824066e-17 7.9196392401933e-17 1.3063129362824066e-17 0.042389249843882475" free_energy=-652.0689277015263 pbc="T T T"
Si       2.05911166       1.18882867       0.43554905      -0.00000000       0.00000000       0.03402907
Si       2.05911166      -1.18882867       3.82758449      -0.00000000       0.00000000       0.03402907
Si       2.05911166       1.18882867       2.95648638       0.00000000       0.00000000      -0.03402907
Si       2.05911166      -1.18882867      -0.43554905       0.00000000      -0.00000000      -0.03402907
4
Lattice="2.0599033059071896 -3.5678571845103466 3.7188527952091387e-34 2.05990330590719 3.5678571845103466 -3.7188527952091327e-34 2.30188179263026e-48 -1.1072138961650318e-33 6.778857453644606" Properties=species:S:1:pos:R:3:forces:R:3 cutoff=-1.0 nneightol=1.2 n_minim_iter=3 energy=-652.0690952943 stress="0.041192310353480525 1.7459679496612124e-16 -8.452373820870185e-17 1.7459679496612124e-16 0.041192310353480664 -6.719074439262688e-17 -8.452373820870185e-17 -6.719074439262688e-17 0.041512976231031125" free_energy=-652.0690952943 pbc="T T T"
Si       2.05990331       1.18928573       0.43641013       0.00000000      -0.00000000       0.00677676
Si       2.05990331      -1.18928573       3.82583886       0.00000000       0.00000000       0.00677676
Si       2.05990331       1.18928573       2.95301859      -0.00000000      -0.00000000      -0.00677676
Si       2.05990331      -1.18928573      -0.43641013      -0.00000000      -0.00000000      -0.00677676
