4
Lattice="1.7739842129340029 -3.0726307886267783 8.994033072298468e-19 1.773984212934002 3.0726307886267783 -8.994033072298443e-19 -3.2106499223715995e-33 2.4650590422036664e-18 5.969041080633937" Properties=species:S:1:pos:R:3:forces:R:3 cutoff=-1.0 nneightol=1.2 n_minim_iter=4 energy=-651.6493402529824 stress="-0.16807011823669404 -4.722527457592477e-16 -4.045085896723512e-17 -4.722527457592477e-16 -0.16807011823669496 -1.0136967001765638e-16 -4.045085896723512e-17 -1.0136967001765638e-16 -0.16805453154676847" free_energy=-651.6493402529824 pbc="T T T"
Si       1.77398421       1.02421026       0.38889389      -0.00000000      -0.00000000      -0.00040630
Si       1.77398421      -1.02421026       3.37341443       0.00000000       0.00000000      -0.00040630
Si       1.77398421       1.02421026       2.59562665      -0.00000000      -0.00000000       0.00040630
Si       1.77398421      -1.02421026      -0.38889389       0.00000000       0.00000000       0.00040630
