4
Lattice="1.7515117065124404 -3.033707265731214 8.124536014841251e-18 1.75151170651244 3.033707265731214 -8.124536014841231e-18 5.35300741408087e-32 -1.2322564262263458e-17 5.931843656185556" Properties=species:S:1:pos:R:3:forces:R:3 cutoff=-1.0 nneightol=1.2 n_minim_iter=4 energy=-651.2695346056327 stress="-0.20605496874897677 -5.826767219540917e-16 -1.19030479537094e-16 -5.826767219540917e-16 -0.2060549687489776 3.3400439525361765e-16 -1.19030479537094e-16 3.3400439525361765e-16 -0.20603692625924547" free_energy=-651.2695346056327 pbc="T T T"
Si       1.75151171       1.01123576       0.39198698      -0.00000000       0.00000000      -0.00008958
Si       1.75151171      -1.01123576       3.35790881       0.00000000      -0.00000000      -0.00008958
Si       1.75151171       1.01123576       2.57393485      -0.00000000       0.00000000       0.00008958
Si       1.75151171      -1.01123576      -0.39198698       0.00000000      -0.00000000       0.00008958
