2
Lattice="4.4390868742463265 -4.2668011184033306e-17 -6.275634335256949e-17 -4.266801118403355e-17 4.4390868742463265 3.0198464356769354e-16 2.2195434371231633 2.2195434371231633 1.2069322554433388" Properties=species:S:1:pos:R:3:forces:R:3 cutoff=-1.0 nneightol=1.2 n_minim_iter=1 energy=-324.8915718048226 stress="-0.2979607683554709 -1.3721884749735022e-16 -1.6087894398012782e-16 -1.3721884749735022e-16 -0.2979607683554702 -1.0007772179774725e-16 -1.6087894398012782e-16 -1.0007772179774725e-16 -0.28461372289019354" free_energy=-324.8915718048226 pbc="T T T"
Si      -0.00000000      -1.10977172      -0.30173306      -0.00000000       0.00000000      -0.00000000
Si      -0.00000000       1.10977172       0.30173306       0.00000000      -0.00000000       0.00000000
