2
Lattice="4.809868199298938 -4.3388808714943915e-17 1.7735478831628165e-16 -4.338880871494436e-17 4.809868199298938 -2.24999886957258e-16 2.404934099649469 2.404934099649469 1.3264843436274454" Properties=species:S:1:pos:R:3:forces:R:3 cutoff=-1.0 nneightol=1.2 n_minim_iter=1 energy=-325.713406727254 stress="-0.00162343358437911 -1.7276295320778065e-18 1.332322218365454e-16 -1.7276295320778065e-18 -0.0016234335843791049 -7.934215157413012e-17 1.332322218365454e-16 -7.934215157413012e-17 -0.001989142542134391" free_energy=-325.713406727254 pbc="T T T"
Si      -0.00000000      -1.20246705      -0.33162109       0.00000000       0.00000000      -0.00000000
Si      -0.00000000       1.20246705       0.33162109      -0.00000000      -0.00000000       0.00000000
