2
Lattice="4.532568675540738 -4.3566547900283243e-17 -6.407791605106386e-17 -4.3566547900283496e-17 4.532568675540738 3.083440749651138e-16 2.266284337770369 2.266284337770369 1.232348789175476" Properties=species:S:1:pos:R:3:forces:R:3 cutoff=-1.0 nneightol=1.2 n_minim_iter=1 energy=-325.2642773131312 stress="-0.19871754706830405 -6.791895489559194e-17 1.5618664987962117e-16 -6.791895489559194e-17 -0.19871754706830425 2.1540151160394502e-17 1.5618664987962117e-16 2.1540151160394502e-17 -0.19153609280842598" free_energy=-325.2642773131312 pbc="T T T"
Si      -0.00000000      -1.13314217      -0.30808720      -0.00000000       0.00000000      -0.00000000
Si      -0.00000000       1.13314217       0.30808720       0.00000000      -0.00000000       0.00000000
