2
Lattice="4.88873251452706 -4.4100227104405565e-17 1.802627607083382e-16 -4.410022710440601e-17 4.88873251452706 -2.2868906538711085e-16 2.44436625726353 2.44436625726353 1.3482338542348773" Properties=species:S:1:pos:R:3:forces:R:3 cutoff=-1.0 nneightol=1.2 n_minim_iter=1 energy=-325.7087295013612 stress="0.014390278822512245 2.9124288862253505e-17 -6.343128600700995e-17 2.9124288862253505e-17 0.014390278822512299 9.139078874642402e-17 -6.343128600700995e-17 9.139078874642402e-17 0.011761001468707576" free_energy=-325.7087295013612 pbc="T T T"
Si      -0.00000000      -1.22218313      -0.33705846       0.00000000       0.00000000      -0.00000000
Si      -0.00000000       1.22218313       0.33705846      -0.00000000      -0.00000000       0.00000000
