2
Lattice="4.486314747365987 -4.3121960267606915e-17 -6.342401413831236e-17 -4.312196026760716e-17 4.486314747365987 3.0519748729761534e-16 2.2431573736829935 2.2431573736829935 1.2197729240400264" Properties=species:S:1:pos:R:3:forces:R:3 cutoff=-1.0 nneightol=1.2 n_minim_iter=1 energy=-325.2642773131312 stress="-0.19871754706830405 -6.791895489559194e-17 1.5618664987962117e-16 -6.791895489559194e-17 -0.19871754706830425 2.1540151160394502e-17 1.5618664987962117e-16 2.1540151160394502e-17 -0.19153609280842598" free_energy=-325.2642773131312 pbc="T T T"
Si      -0.00000000      -1.12157869      -0.30494323      -0.00000000       0.00000000      -0.00000000
Si      -0.00000000       1.12157869       0.30494323       0.00000000      -0.00000000       0.00000000
