2
Lattice="2.5201354567255385 -3.0960063379040775e-17 2.5201354567255385 2.5201354567255385 2.5201354567255385 1.4046206848979868e-16 -7.792848469482608e-17 2.5201354567255385 2.5201354567255385" Properties=species:S:1:pos:R:3 n_minim_iter=1 energy=-325.5744990986784 free_energy=-325.5744990986784 pbc="T T T"
Si       0.00000000       0.00000000       0.00000000
Si       1.26006773       1.26006773       1.26006773
