2
Lattice="2.788601244370818 -3.425818681062868e-17 2.788601244370818 2.788601244370818 2.788601244370818 1.554252561830489e-16 -8.623007497949389e-17 2.788601244370818 2.788601244370818" Properties=species:S:1:pos:R:3 n_minim_iter=1 stress="0.03029920650914519 -5.870143428758396e-16 -7.079690562075743e-17 -5.870143428758396e-16 0.030299206509145103 1.2159468535994498e-17 -7.079690562075743e-17 1.2159468535994498e-17 0.03029920650914437" pbc="T T T"
Si       0.00000000       0.00000000       0.00000000
Si       1.39430062       1.39430062       1.39430062
