2
Lattice="2.5201354567255385 -3.0960063379040775e-17 2.5201354567255385 2.5201354567255385 2.5201354567255385 1.4046206848979868e-16 -7.792848469482608e-17 2.5201354567255385 2.5201354567255385" Properties=species:S:1:pos:R:3 n_minim_iter=1 stress="-0.21872719891119755 -7.361509929448981e-17 1.6667174739736386e-16 -7.361509929448981e-17 -0.21872719891119727 4.606250283690609e-17 1.6667174739736386e-16 4.606250283690609e-17 -0.21872719891119716" pbc="T T T"
Si       0.00000000       0.00000000       0.00000000
Si       1.26006773       1.26006773       1.26006773
