2
Lattice="2.5469474207546945 -3.128945047743818e-17 2.5469474207546945 2.5469474207546945 2.5469474207546945 1.4195645797499829e-16 -7.875757335468691e-17 2.5469474207546945 2.5469474207546945" Properties=species:S:1:pos:R:3 n_minim_iter=1 stress="-0.14363912561002973 -7.136723777558717e-17 6.770613162087837e-17 -7.136723777558717e-17 -0.1436391256100296 1.2380549782103474e-16 6.770613162087837e-17 1.2380549782103474e-16 -0.14363912561002834" pbc="T T T"
Si       0.00000000       0.00000000       0.00000000
Si       1.27347371       1.27347371       1.27347371
