2
Lattice="2.7205592522789157 -3.342228555699582e-17 2.7205592522789157 2.7205592522789157 2.7205592522789157 1.5163287314749044e-16 -8.412605738584086e-17 2.7205592522789157 2.7205592522789157" Properties=species:S:1:pos:R:3 n_minim_iter=1 stress="-0.006663684503293703 -2.2131276506938924e-17 1.4251377103206688e-16 -2.2131276506938924e-17 -0.0066636845032939564 -1.5851614852591994e-17 1.4251377103206688e-16 -1.5851614852591994e-17 -0.006663684503294318" pbc="T T T"
Si       0.00000000       0.00000000       0.00000000
Si       1.36027963       1.36027963       1.36027963
