2
Lattice="2.9155269875723717 -3.5817479603190645e-17 2.9155269875723717 2.9155269875723717 2.9155269875723717 1.6249957926640403e-16 -9.015491592804894e-17 2.9155269875723717 2.9155269875723717" Properties=species:S:1:pos:R:3 n_minim_iter=1 stress="0.06701215750127576 -4.580599791914765e-16 8.091646331683173e-17 -4.580599791914765e-16 0.06701215750127588 7.643665911936008e-17 8.091646331683173e-17 7.643665911936008e-17 0.06701215750127602" pbc="T T T"
Si       0.00000000       0.00000000       0.00000000
Si       1.45776349       1.45776349       1.45776349
