2
Lattice="2.7436159384805716 -3.3705538770313734e-17 2.7436159384805716 2.7436159384805716 2.7436159384805716 1.5291795876769464e-16 -8.483902406903405e-17 2.7436159384805716 2.7436159384805716" Properties=species:S:1:pos:R:3 n_minim_iter=1 stress="0.007871179567254334 -2.3245565501053886e-16 -2.893181357815857e-17 -2.3245565501053886e-16 0.00787117956725417 -3.52784580550893e-17 -2.893181357815857e-17 -3.52784580550893e-17 0.00787117956725481" pbc="T T T"
Si       0.00000000       0.00000000       0.00000000
Si       1.37180797       1.37180797       1.37180797
