4
Lattice="3.938045464409932 0.0 0.0 0.0 3.938045464409932 0.0 0.0 0.0 3.938045464409932" Properties=species:S:1:pos:R:3:forces:R:3 n_minim_iter=1 energy=-650.3076743036283 stress="0.016080007747740606 -7.541410326903998e-18 5.851339086034742e-18 -7.541410326903998e-18 0.01608000774774058 -4.828774973912166e-18 5.851339086034742e-18 -4.828774973912166e-18 0.016080007747740918" free_energy=-650.3076743036283 pbc="T T T"
Si       0.00000000       0.00000000       0.00000000       0.00000000       0.00000000      -0.00000000
Si       1.96902273       1.96902273       0.00000000      -0.00000000      -0.00000000      -0.00000000
Si       1.96902273       0.00000000       1.96902273      -0.00000000       0.00000000       0.00000000
Si       0.00000000       1.96902273       1.96902273       0.00000000      -0.00000000      -0.00000000
