4
Lattice="3.5967834263290754 0.0 0.0 0.0 3.5967834263290754 0.0 0.0 0.0 3.5967834263290754" Properties=species:S:1:pos:R:3:forces:R:3 n_minim_iter=1 energy=-649.8143651879061 stress="-0.10064026767910575 -1.5978855368218435e-17 2.624581221114612e-17 -1.5978855368218435e-17 -0.10064026767910575 -1.8147930757569353e-17 2.624581221114612e-17 -1.8147930757569353e-17 -0.10064026767910587" free_energy=-649.8143651879061 pbc="T T T"
Si       0.00000000       0.00000000       0.00000000      -0.00000000      -0.00000000      -0.00000000
Si       1.79839171       1.79839171       0.00000000       0.00000000       0.00000000      -0.00000000
Si       1.79839171       0.00000000       1.79839171       0.00000000      -0.00000000      -0.00000000
Si       0.00000000       1.79839171       1.79839171      -0.00000000       0.00000000       0.00000000
