4
Lattice="3.7058426653812684 0.0 0.0 0.0 3.7058426653812684 0.0 0.0 0.0 3.7058426653812684" Properties=species:S:1:pos:R:3:forces:R:3 n_minim_iter=1 energy=-650.0806810815815 stress="-0.07747526567167158 -6.642406044996235e-18 8.674752217839853e-18 -6.642406044996235e-18 -0.07747526567167176 1.00841864190488e-16 8.674752217839853e-18 1.00841864190488e-16 -0.07747526567167151" free_energy=-650.0806810815815 pbc="T T T"
Si       0.00000000       0.00000000       0.00000000      -0.00000000      -0.00000000       0.00000000
Si       1.85292133       1.85292133       0.00000000       0.00000000       0.00000000      -0.00000000
Si       1.85292133       0.00000000       1.85292133      -0.00000000       0.00000000       0.00000000
Si       0.00000000       1.85292133       1.85292133      -0.00000000      -0.00000000      -0.00000000
