1
Lattice="2.7768176913784806 1.6027954485373428e-17 0.0 1.3884088456892403 2.4047946624118213 0.0 0.0 0.0 2.58023101115232" Properties=species:S:1:pos:R:3 cutoff=-1.0 nneightol=1.2 n_minim_iter=1 energy=-162.7599625532287 free_energy=-162.7599625532287 pbc="T T T"
Si       0.00000000       0.00000000       0.00000000
