1
Lattice="2.856769648087843 1.648944186610171e-17 0.0 1.4283848240439216 2.474035088004402 0.0 0.0 0.0 2.6545227151933557" Properties=species:S:1:pos:R:3 cutoff=-1.0 nneightol=1.2 n_minim_iter=1 energy=-162.63955653913538 free_energy=-162.63955653913538 pbc="T T T"
Si       0.00000000       0.00000000       0.00000000
