1
Lattice="2.4377394605367946 8.03660395951548e-18 -1.4141772869340033e-49 1.2188697302683975 2.1111443006326365 -5.594716151066702e-50 2.9158196571390925e-49 2.1636301828591663e-49 2.30636442705873" Properties=species:S:1:pos:R:3 cutoff=-1.0 nneightol=1.2 n_minim_iter=1 stress="-0.2194345059662849 -3.975806777436939e-16 4.987235031745958e-17 -3.975806777436939e-16 -0.21943450596628725 4.201453500839214e-17 4.987235031745958e-17 4.201453500839214e-17 -0.22214347263746653" pbc="T T T"
Si       0.00000000       0.00000000       0.00000000
