1
Lattice="2.7136862022369512 1.566355582942422e-17 0.0 1.3568431011184756 2.3501211890365155 0.0 0.0 0.0 2.5215689583395062" Properties=species:S:1:pos:R:3 cutoff=-1.0 nneightol=1.2 n_minim_iter=1 stress="0.020567969221835725 -5.324926875670286e-17 -6.082773943708002e-17 -5.324926875670286e-17 0.020567969221836985 -1.9144596837707577e-17 -6.082773943708002e-17 -1.9144596837707577e-17 0.021811114285756595" pbc="T T T"
Si       0.00000000       0.00000000       0.00000000
