1
Lattice="2.62464796899977 1.5149621927960504e-17 0.0 1.312323984499885 2.273011817145033 0.0 0.0 0.0 2.4388342468422097" Properties=species:S:1:pos:R:3 cutoff=-1.0 nneightol=1.2 n_minim_iter=1 stress="-0.007948523454266982 3.277054543273946e-17 -1.3574709827535427e-17 3.277054543273946e-17 -0.007948523454266224 -1.548003163286161e-17 -1.3574709827535427e-17 -1.548003163286161e-17 -0.014406461834316644" pbc="T T T"
Si       0.00000000       0.00000000       0.00000000
