1
Lattice="2.7972362018094032 1.6145811324467348e-17 0.0 1.3986181009047016 2.4224776111524378 0.0 0.0 0.0 2.599203979373813" Properties=species:S:1:pos:R:3 cutoff=-1.0 nneightol=1.2 n_minim_iter=1 stress="0.0703441607651604 -2.3856608526328214e-17 4.780153062773343e-18 -2.3856608526328214e-17 0.07034416076516031 3.57622866886637e-17 4.780153062773343e-18 3.57622866886637e-17 0.08267249298896859" pbc="T T T"
Si       0.00000000       0.00000000       0.00000000
