1
Lattice="2.49608846028124 1.0933734065436619e-16 -1.1027428870412422e-51 1.24804423014062 2.1616760166967386 1.8550000502644718e-50 2.2439341251886182e-49 5.429856063135929e-50 2.341479999149869" Properties=species:S:1:pos:R:3 cutoff=-1.0 nneightol=1.2 n_minim_iter=1 energy=-162.6481055540766 free_energy=-162.6481055540766 pbc="T T T"
Si       0.00000000       0.00000000       0.00000000
1
Lattice="2.488978851682312 1.0558575322716376e-16 8.56597034397799e-50 1.244489425841156 2.1555189150391025 3.1750448261481717e-50 2.759195779463079e-49 3.822990293703689e-50 2.354875678971209" Properties=species:S:1:pos:R:3 cutoff=-1.0 nneightol=1.2 n_minim_iter=2 stress="-0.17455023285687968 2.0698865739703044e-16 -1.7025932681414113e-17 2.0698865739703044e-16 -0.17455023285687982 -5.972807029367047e-17 -1.7025932681414113e-17 -5.972807029367047e-17 -0.17454119718570843" pbc="T T T"
Si       0.00000000       0.00000000       0.00000000
