1
Lattice="2.5455287550069947 1.1150299721361846e-16 -1.124585034949696e-51 1.2727643775034974 2.2044925678998317 1.8917422373546807e-50 2.2461828555187742e-49 1.3977405598785168e-49 2.3878579473253865" Properties=species:S:1:pos:R:3 cutoff=-1.0 nneightol=1.2 n_minim_iter=1 stress="-0.10258683525234294 -9.810629772682637e-17 -1.1651387111474638e-18 -9.810629772682637e-17 -0.10258683525234258 -3.191185469976109e-17 -1.1651387111474638e-18 -3.191185469976109e-17 -0.10815312433155701" pbc="T T T"
Si       0.00000000       0.00000000       0.00000000
