1
Lattice="2.7975629844477607 1.1124203801767733e-16 -2.7352220089230133e-50 1.3987814922238804 2.422760613218771 -3.327392436922782e-50 2.5011677553452727e-49 1.8011031406329466e-49 2.5983314087143476" Properties=species:S:1:pos:R:3 cutoff=-1.0 nneightol=1.2 n_minim_iter=1 stress="0.061261065459007696 3.453061925536287e-17 7.37000964949755e-18 3.453061925536287e-17 0.061261065459008134 -5.047323423284162e-18 7.37000964949755e-18 -5.047323423284162e-18 0.07297981349519256" pbc="T T T"
Si       0.00000000       0.00000000       0.00000000
