1
Lattice="2.4111467560158757 1.0228401346323009e-16 8.298106507835823e-50 1.2055733780079378 2.088114342962188 3.0757589714343147e-50 -4.674920098555867e-50 8.393681515783673e-50 2.281237082562737" Properties=species:S:1:pos:R:3 cutoff=-1.0 nneightol=1.2 n_minim_iter=1 stress="-0.27348878471346805 5.40077289674357e-17 6.343532982913963e-17 5.40077289674357e-17 -0.2734887847134695 -4.501862116906683e-17 6.343532982913963e-17 -4.501862116906683e-17 -0.27345100121422905" pbc="T T T"
Si       0.00000000       0.00000000       0.00000000
