1
Lattice="2.601723684336231 1.0345470204366254e-16 -2.543746797514009e-50 1.3008618421681155 2.2531588042628217 -3.094463201847137e-50 1.8535589641582473e-49 1.2840859784553982e-49 2.4164390233170363" Properties=species:S:1:pos:R:3 cutoff=-1.0 nneightol=1.2 n_minim_iter=1 stress="-0.04593480970572237 -3.133975475405899e-17 1.5939198162304936e-17 -3.133975475405899e-17 -0.04593480970572152 1.4672481573655972e-17 1.5939198162304936e-17 1.4672481573655972e-17 -0.060568129344616264" pbc="T T T"
Si       0.00000000       0.00000000       0.00000000
