1
Lattice="2.647781427135135 1.0528613790549193e-16 -2.5887781882227155e-50 1.3238907135675675 2.293045979567643 -3.149243804072278e-50 4.437228381739426e-50 1.1325531409226966e-50 2.459216712467976" Properties=species:S:1:pos:R:3 cutoff=-1.0 nneightol=1.2 n_minim_iter=1 stress="0.007400853804380146 -9.05989473565743e-17 2.0311768190720794e-17 -9.05989473565743e-17 0.007400853804380726 8.440419545728277e-18 2.0311768190720794e-17 8.440419545728277e-18 0.004285955735350363" pbc="T T T"
Si       0.00000000       0.00000000       0.00000000
