24
Lattice="8.921140259759193 0.3017939640951996 -0.013765802797111771 -2.8034601818422114 5.200331315233675 0.01114223232619125 -0.01468167640569535 0.012466362842947273 9.219846758111975" Properties=species:S:1:pos:R:3 n_minim_iter=1 energy=-34156.32781489827 free_energy=-34156.32781489827 pbc="T T T"
Ti      -0.11227274       0.06386755       0.00629552
Ti       0.13522753       1.73283653       2.30957272
Ti      -0.05155376       0.05583257       4.61150995
Ti       0.09493666       1.73895059       6.89921616
Ti      -1.50589094       2.60929351       0.05114333
Al      -1.27308231       4.35339700       2.27991889
Ti      -1.46993309       2.69025474       4.58282144
Ti      -1.31263056       4.32724065       6.91767444
Ti       2.90628254       0.19772539      -0.01064141
Ti       3.12928318       1.86696281       2.32436843
Ti       2.85586253       0.10357141       4.61075531
Ti       3.11527300       1.88393382       6.87908699
Ti       1.51146578       2.73990312       0.01848251
V        1.62157158       4.44821043       2.28722278
Ti       1.49856598       2.75725106       4.58778808
Ti       1.72613727       4.49033423       6.92184805
Al       5.86390014       0.21205524       0.07237790
Ti       6.08115966       1.95476722       2.30062455
Ti       5.83020093       0.17572937       4.58531957
Ti       6.08434516       1.86333067       6.91278809
Ti       4.47530324       2.80909640      -0.04398545
Ti       4.67706805       4.47078402       2.31372626
Ti       4.51642958       2.83833522       4.65181798
Al       4.69957194       4.54860047       6.89183019
24
Lattice="8.951045217991465 0.3028136977688128 -0.010685323196258843 -2.812841879397359 5.217527706067298 0.010736187140612662 -0.011677290051792301 0.013564749098876061 9.158741065688664" Properties=species:S:1:pos:R:3 n_minim_iter=2 stress="0.04324181533334834 0.0008647333370870239 9.0391120236892e-05 0.0008647333370870239 0.04356572476355816 0.000299602959337599 9.0391120236892e-05 0.000299602959337599 0.043879248819996546" pbc="T T T"
Ti      -0.11259707       0.06419022       0.00627898
Ti       0.13644594       1.73882816       2.29454819
Ti      -0.05010993       0.05656470       4.58084745
Ti       0.09753937       1.74547767       6.85369430
Ti      -1.51090714       2.61788468       0.05067139
Al      -1.27648675       4.36804980       2.26484299
Ti      -1.47333258       2.69963714       4.55219049
Ti      -1.31464453       4.34239223       6.87186961
Ti       2.91600995       0.19845543      -0.00958331
Ti       3.14056811       1.87338838       2.31023840
Ti       2.86700888       0.10449888       4.58108752
Ti       3.12800646       1.89100157       6.83468501
Ti       1.51660224       2.74896357       0.01928247
V        1.62768989       4.46316781       2.27313413
Ti       1.50515020       2.76692645       4.55801923
Ti       1.73413734       4.50593594       6.87709864
Al       5.88356400       0.21282220       0.07411937
Ti       6.10228810       1.96159873       2.28767968
Ti       5.85119702       0.17685904       4.55670466
Ti       6.10705336       1.87030647       6.86918584
Ti       4.49022749       2.81834132      -0.04172857
Ti       4.69349844       4.48577687       2.30050590
Ti       4.53306629       2.84816881       4.62270570
Al       4.71758167       4.56439490       6.84822370
24
Lattice="8.954886311075148 0.2889267312567251 -0.01236433391395086 -2.8222796256117673 5.2213697945511495 0.008407784466787324 -0.013276292896029308 0.008617974863397196 9.15524689360684" Properties=species:S:1:pos:R:3 n_minim_iter=3 stress="0.043116214034706724 -9.507585517745018e-05 1.2486794823146565e-05 -9.507585517745018e-05 0.043328193056691354 -0.00032326065198553 1.2486794823146565e-05 -0.00032326065198553 0.04351635763080491" pbc="T T T"
Ti      -0.11266264       0.06460125       0.00628840
Ti       0.13339061       1.73716886       2.29278445
Ti      -0.05080038       0.05421170       4.57901852
Ti       0.09371786       1.74143691       6.85009266
Ti      -1.51565543       2.61980611       0.04953202
Al      -1.28411294       4.36836514       2.26180779
Ti      -1.47901730       2.69911288       4.54918124
Ti      -1.32305906       4.34037274       6.86712316
Ti       2.91706762       0.19404127      -0.01020909
Ti       3.13884782       1.86700242       2.30789732
Ti       2.86753997       0.09767128       4.57872841
Ti       3.12538061       1.88237917       6.83049144
Ti       1.51321282       2.74632416       0.01767504
V        1.62107930       4.45892223       2.26960731
Ti       1.50079433       2.76191398       4.55432981
Ti       1.72661328       4.49894845       6.87176119
Al       5.88605679       0.20372958       0.07327174
Ti       6.10175311       1.95091330       2.28482328
Ti       5.85277766       0.16534904       4.55357667
Ti       6.10597255       1.85687656       6.86448951
Ti       4.48789642       2.81101102      -0.04377794
Ti       4.68846731       4.47669762       2.29650283
Ti       4.52992196       2.83816338       4.61850103
Al       4.71145617       4.55290017       6.84240262
24
Lattice="8.959142403526254 0.2852878642442581 -0.013376404205011409 -2.825710746349191 5.22069229783919 0.012214518575796713 -0.014541949235106313 0.01469561109264237 9.153945059545954" Properties=species:S:1:pos:R:3 n_minim_iter=4 stress="0.04329191540629365 -0.00026539966886323974 -0.00023366398708442765 -0.00026539966886323974 0.04298078539885629 0.0004449034703666685 -0.00023366398708442765 0.0004449034703666685 0.04327458097452022" pbc="T T T"
Ti      -0.11252239       0.06510979       0.00642167
Ti       0.13230064       1.73799325       2.29370717
Ti      -0.05101357       0.05733718       4.57828232
Ti       0.09212353       1.74537628       6.85017811
Ti      -1.51726696       2.61923322       0.05149489
Al      -1.28653797       4.36886854       2.26443775
Ti      -1.48139749       2.70163078       4.55037541
Ti      -1.32616334       4.34412759       6.86912755
Ti       2.91839373       0.19303301      -0.01052134
Ti       3.13939536       1.86648358       2.30853199
Ti       2.86853090       0.09972668       4.57762300
Ti       3.12506524       1.88524651       6.83023798
Ti       1.51318642       2.74471788       0.01950073
V        1.61965330       4.45813343       2.27202733
Ti       1.49984371       2.76350065       4.55489794
Ti       1.72430573       4.50102242       6.87347987
Al       5.88886712       0.20152413       0.07312952
Ti       6.10350138       1.94978315       2.28518783
Ti       5.85462791       0.16609588       4.55169030
Ti       6.10732208       1.85824232       6.86382891
Ti       4.48878706       2.80801218      -0.04215365
Ti       4.68874626       4.47460778       2.29862319
Ti       4.53021453       2.83807932       4.61882524
Al       4.71069666       4.55399469       6.84387055
24
Lattice="8.967662256014604 0.2853029063417518 -0.005672929964957245 -2.828290979223121 5.218218266199305 0.008999466622483908 -0.0065546254630824965 0.013312348890889433 9.149486306564352" Properties=species:S:1:pos:R:3 n_minim_iter=5 stress="0.04352097945593767 -5.60942928253222e-05 0.0008546202379286771 -5.60942928253222e-05 0.04227282602097137 0.00013123543954006157 0.0008546202379286771 0.00013123543954006157 0.04210886990458823" pbc="T T T"
Ti      -0.11133646       0.06779584       0.00678050
Ti       0.13345539       1.73661630       2.29318580
Ti      -0.04431628       0.05708619       4.57528446
Ti       0.09811146       1.74378385       6.84625110
Ti      -1.51762122       2.61619441       0.05008263
Al      -1.28443138       4.36653043       2.26104035
Ti      -1.47856569       2.69870202       4.54578392
Ti      -1.32032819       4.34202349       6.86375113
Ti       2.92111239       0.19418771      -0.00827740
Ti       3.14475376       1.86435657       2.31075375
Ti       2.87680766       0.10004244       4.57712849
Ti       3.13299939       1.88465928       6.82881674
Ti       1.51658468       2.74296202       0.02170986
V        1.62242662       4.45504223       2.27183409
Ti       1.50548972       2.76208634       4.55138485
Ti       1.72950848       4.49649893       6.87084764
Al       5.89472973       0.20228865       0.08115991
Ti       6.11041737       1.95116473       2.29034728
Ti       5.86241124       0.16588003       4.55139834
Ti       6.11933320       1.85566851       6.86506751
Ti       4.49197950       2.80546865      -0.03653280
Ti       4.69566972       4.47105020       2.30165133
Ti       4.53775078       2.83388668       4.61854839
Al       4.71932017       4.55085543       6.84442618
24
Lattice="8.964067724694642 0.28730379518318566 -0.015606984387751235 -2.8261534603984972 5.222601085401611 0.010458941062342844 -0.01672274817903046 0.010433301970769531 9.144591132753224" Properties=species:S:1:pos:R:3 n_minim_iter=6 stress="0.042808935383879844 0.0001932647080470663 -0.00031214391720562403 0.0001932647080470663 0.0425227438832462 -9.048835846191136e-05 -0.00031214391720562403 -9.048835846191136e-05 0.04075251522183735" pbc="T T T"
Ti      -0.10954118       0.07149049       0.00749233
Ti       0.12976950       1.73726328       2.29225633
Ti      -0.04557902       0.05630239       4.57189494
Ti       0.09062614       1.74368423       6.84133481
Ti      -1.51519121       2.61588957       0.05130157
Al      -1.28389972       4.36979830       2.25913213
Ti      -1.48222117       2.69818235       4.54319193
Ti      -1.32529642       4.34503430       6.85981556
Ti       2.91995790       0.19653293      -0.01188743
Ti       3.14167053       1.86469107       2.30668782
Ti       2.87266881       0.10059790       4.57049523
Ti       3.12302018       1.88664552       6.82042984
Ti       1.51903789       2.74512619       0.02093294
V        1.61896158       4.45787893       2.26760248
Ti       1.50056705       2.76420129       4.54352508
Ti       1.71865031       4.49703060       6.86374067
Al       5.89257524       0.20459955       0.07858011
Ti       6.10448764       1.95697012       2.28353091
Ti       5.85260643       0.16631026       4.53835850
Ti       6.10972436       1.85541346       6.85351940
Ti       4.48927640       2.80719483      -0.03950579
Ti       4.69255025       4.47388567       2.29482042
Ti       4.53013161       2.83288926       4.60821502
Al       4.70802207       4.55381018       6.83477956
24
Lattice="8.955663539867299 0.2849000385551663 -0.011826780496068676 -2.825032141235623 5.226263314606254 0.010901895950318465 -0.012896396440203305 0.013279521382549744 9.148083146216617" Properties=species:S:1:pos:R:3 n_minim_iter=7 stress="0.04208462702727383 -5.0709865792712655e-05 0.0001708970387929005 -5.0709865792712655e-05 0.04288944097030273 0.00017233004566584477 0.0001708970387929005 0.00017233004566584477 0.04121567700074533" pbc="T T T"
Ti      -0.10885106       0.07284473       0.00766529
Ti       0.12957659       1.73873465       2.29403605
Ti      -0.04225748       0.05796386       4.57337452
Ti       0.09284445       1.74690760       6.84430334
Ti      -1.51404754       2.61690934       0.05159647
Al      -1.28244282       4.37326874       2.26053582
Ti      -1.47958947       2.70101697       4.54493722
Ti      -1.32210697       4.35037054       6.86308723
Ti       2.91725190       0.19636428      -0.01078554
Ti       3.13928127       1.86502512       2.30976666
Ti       2.87265931       0.10176681       4.57318755
Ti       3.12187673       1.88953281       6.82467148
Ti       1.51768214       2.74594396       0.02295962
V        1.61671517       4.46019498       2.27047434
Ti       1.50030373       2.76686873       4.54582351
Ti       1.71757513       4.50052786       6.86847362
Al       5.88718301       0.20337491       0.08229100
Ti       6.09881876       1.95829842       2.28808261
Ti       5.84820618       0.16630447       4.54135436
Ti       6.10633375       1.85643028       6.85906495
Ti       4.48379844       2.80684063      -0.03601953
Ti       4.68805947       4.47523307       2.29931186
Ti       4.52663837       2.83347632       4.61229233
Al       4.70427740       4.55702681       6.84089920
24
Lattice="8.957007496736598 0.2857507651180911 -0.0130895555872232 -2.824762537007225 5.22039796781549 0.010378177430292455 -0.014134566158166604 0.01165089865541917 9.156388123249751" Properties=species:S:1:pos:R:3 n_minim_iter=8 stress="0.04228004879403223 3.592160296921245e-05 7.008750027192655e-05 3.592160296921245e-05 0.042177266472903846 -3.192507191246127e-05 7.008750027192655e-05 -3.192507191246127e-05 0.042436512350899666" pbc="T T T"
Ti      -0.10800356       0.07463379       0.00791377
Ti       0.12871181       1.73617995       2.29620970
Ti      -0.04079881       0.05738686       4.57724739
Ti       0.09208909       1.74414826       6.84985180
Ti      -1.51323242       2.61276664       0.05143807
Al      -1.28155299       4.36805166       2.26162773
Ti      -1.47978788       2.69653699       4.54864575
Ti      -1.32232358       4.34501439       6.86852827
Ti       2.91792020       0.19739378      -0.01151697
Ti       3.13972190       1.86222565       2.31146052
Ti       2.87364031       0.10204590       4.57668556
Ti       3.12078645       1.88761809       6.82983381
Ti       1.51937554       2.74291094       0.02301012
V        1.61661566       4.45475118       2.27132882
Ti       1.50023906       2.76356612       4.54814160
Ti       1.71616858       4.49399118       6.87378821
Al       5.88822943       0.20437776       0.08292800
Ti       6.09916682       1.95851057       2.28970000
Ti       5.84736046       0.16627940       4.54328553
Ti       6.10629238       1.85339289       6.86398472
Ti       4.48418057       2.80372610      -0.03633817
Ti       4.68929093       4.47013619       2.30035529
Ti       4.52648525       2.82870976       4.61517645
Al       4.70330739       4.55150086       6.84581970
24
Lattice="8.955454535812052 0.2820565516436106 -0.015527266713119934 -2.8264998876831813 5.222481886613509 0.011423993560566358 -0.016673438114245726 0.012146506706307694 9.156280251132236" Properties=species:S:1:pos:R:3 n_minim_iter=9 stress="0.0420639756050433 -0.0001299994466738719 -0.00024221906602742895 -0.0001299994466738719 0.04222137474476542 4.682106857287481e-05 -0.00024221906602742895 4.682106857287481e-05 0.04255474387126235" pbc="T T T"
Ti      -0.10723516       0.07663024       0.00783314
Ti       0.12603229       1.73536608       2.29624634
Ti      -0.03907099       0.05786539       4.57804814
Ti       0.08939662       1.74548124       6.84929371
Ti      -1.51337434       2.61283450       0.05120370
Al      -1.28310312       4.36904641       2.26186829
Ti      -1.48116893       2.69711734       4.55026347
Ti      -1.32705413       4.34706837       6.86866549
Ti       2.91866813       0.19726604      -0.01320446
Ti       3.13725503       1.85997506       2.30995246
Ti       2.87361873       0.10258902       4.57671627
Ti       3.11603316       1.88798343       6.82911507
Ti       1.51838288       2.74245357       0.02280385
V        1.61311920       4.45403200       2.26945652
Ti       1.49696346       2.76326327       4.54816056
Ti       1.71251605       4.49434712       6.87419216
Al       5.88765465       0.20229783       0.08022693
Ti       6.09683585       1.95902685       2.28800517
Ti       5.84442513       0.16379439       4.54340434
Ti       6.10079605       1.85037786       6.86273932
Ti       4.48203628       2.80227987      -0.03926181
Ti       4.68628439       4.46953976       2.29909410
Ti       4.52271059       2.82581677       4.61712584
Al       4.69744309       4.55022285       6.84389238
24
Lattice="8.957055893875738 0.2810160942508201 -0.014622510114223495 -2.827629920464489 5.2231030706905 0.011153350931943145 -0.015746821124792542 0.012175554599101062 9.154101718817232" Properties=species:S:1:pos:R:3 n_minim_iter=10 stress="0.04202269902703918 -5.0884541546922156e-05 -0.00010839385640284539 -5.0884541546922156e-05 0.04210233239737 2.8596982424606915e-05 -0.00010839385640284539 2.8596982424606915e-05 0.04219423895569287" pbc="T T T"
Ti      -0.10636705       0.07869032       0.00777633
Ti       0.12474135       1.73429492       2.29586561
Ti      -0.03549061       0.05813517       4.57754729
Ti       0.08979826       1.74624479       6.84719680
Ti      -1.51318765       2.61202112       0.05044151
Al      -1.28277172       4.36907636       2.26089010
Ti      -1.48062650       2.69661027       4.54986904
Ti      -1.32807524       4.34795561       6.86655934
Ti       2.92030099       0.19804487      -0.01373356
Ti       3.13746168       1.85843968       2.30929133
Ti       2.87648166       0.10375635       4.57653963
Ti       3.11544508       1.88874906       6.82781709
Ti       1.51896710       2.74207615       0.02324317
V        1.61240144       4.45318355       2.26786205
Ti       1.49692724       2.76304006       4.54707554
Ti       1.71288724       4.49413441       6.87324824
Al       5.88930147       0.20202031       0.08057990
Ti       6.09778022       1.96107717       2.28821110
Ti       5.84510964       0.16290870       4.54371413
Ti       6.10075231       1.84864193       6.86201505
Ti       4.48218364       2.80169291      -0.03983798
Ti       4.68700851       4.46946120       2.29907517
Ti       4.52301979       2.82348892       4.61852998
Al       4.69710132       4.54969377       6.84219533
24
Lattice="8.959001557045601 0.2806972348298524 -0.013141379053537948 -2.828426779304876 5.223118675021161 0.01057805285351121 -0.014216230816115423 0.011986984068227263 9.152244985986187" Properties=species:S:1:pos:R:3 n_minim_iter=11 stress="0.04204090407165349 5.1891019461980376e-05 9.638888103149641e-05 5.1891019461980376e-05 0.041978188539609676 -2.148976309352484e-05 9.638888103149641e-05 -2.148976309352484e-05 0.0418558477395326" pbc="T T T"
Ti      -0.10580280       0.07977188       0.00765838
Ti       0.12408017       1.73319052       2.29550657
Ti      -0.03251461       0.05817962       4.57698702
Ti       0.09073644       1.74653452       6.84560144
Ti      -1.51318155       2.61142666       0.04976304
Al      -1.28219506       4.36870986       2.26001196
Ti      -1.47992984       2.69588001       4.54916562
Ti      -1.32822917       4.34803321       6.86465264
Ti       2.92172833       0.19864056      -0.01381876
Ti       3.13828001       1.85760639       2.30906031
Ti       2.87937432       0.10464111       4.57650800
Ti       3.11590505       1.88901373       6.82691054
Ti       1.51947395       2.74175290       0.02361167
V        1.61265500       4.45245216       2.26709303
Ti       1.49773217       2.76278275       4.54608385
Ti       1.71416402       4.49376772       6.87217766
Al       5.89131255       0.20201191       0.08181690
Ti       6.09910863       1.96245651       2.28874318
Ti       5.84675160       0.16238766       4.54390947
Ti       6.10186633       1.84747769       6.86180958
Ti       4.48303106       2.80151760      -0.03947656
Ti       4.68809037       4.46941925       2.29947983
Ti       4.52423597       2.82171578       4.61884715
Al       4.69844347       4.54955048       6.84123000
24
Lattice="8.959230565930413 0.2792787198848018 -0.013303051967742894 -2.829329602393819 5.2232345816090815 0.010675023539238791 -0.014387980405636859 0.012068514373985087 9.152539093551221" Properties=species:S:1:pos:R:3 n_minim_iter=12 stress="0.0420073519660919 3.006252581297641e-05 6.577137947131872e-05 3.006252581297641e-05 0.0419625637824978 -1.9547345832486303e-05 6.577137947131872e-05 -1.9547345832486303e-05 0.04191441846186518" pbc="T T T"
Ti      -0.10568466       0.07881517       0.00730519
Ti       0.12288289       1.73155474       2.29557453
Ti      -0.03124228       0.05812669       4.57747378
Ti       0.08989108       1.74682052       6.84624715
Ti      -1.51388617       2.61205038       0.04964187
Al      -1.28258140       4.36827847       2.26054321
Ti      -1.48062787       2.69543315       4.54976767
Ti      -1.33062280       4.34772497       6.86496031
Ti       2.92254292       0.19817191      -0.01422942
Ti       3.13798840       1.85749433       2.30880946
Ti       2.88084835       0.10505833       4.57704211
Ti       3.11420877       1.88816037       6.82721592
Ti       1.51827735       2.74137376       0.02339780
V        1.61244663       4.45192178       2.26787229
Ti       1.49746700       2.76246210       4.54604302
Ti       1.71387767       4.49389920       6.87189615
Al       5.89294576       0.20078003       0.08250842
Ti       6.09823583       1.96161598       2.28820965
Ti       5.84759551       0.16101643       4.54352921
Ti       6.09991107       1.84608920       6.86223315
Ti       4.48367012       2.80155772      -0.03910493
Ti       4.68638383       4.46924343       2.29997834
Ti       4.52368466       2.81985591       4.61716500
Al       4.69846718       4.55006929       6.84136036
24
Lattice="8.959104042757874 0.27827115953427095 -0.01373754819853453 -2.829886018483236 5.223490033744937 0.010893983579886485 -0.01484280162596338 0.012213264690486798 9.152746315587567" Properties=species:S:1:pos:R:3 n_minim_iter=13 stress="0.0419662634575466 2.9896629723827724e-06 5.232132603641169e-06 2.9896629723827724e-06 0.04196383529870367 -2.9526097865067896e-06 5.232132603641169e-06 -2.9526097865067896e-06 0.041964566346028055" pbc="T T T"
Ti      -0.10548331       0.07847832       0.00721452
Ti       0.12203594       1.73078080       2.29564894
Ti      -0.03056202       0.05820321       4.57776139
Ti       0.08911591       1.74711290       6.84654487
Ti      -1.51418460       2.61234003       0.04965222
Al      -1.28289705       4.36821704       2.26089772
Ti      -1.48115490       2.69526442       4.55022985
Ti      -1.33214116       4.34784486       6.86524301
Ti       2.92295037       0.19787653      -0.01456033
Ti       3.13748516       1.85724618       2.30853106
Ti       2.88138561       0.10532108       4.57720344
Ti       3.11288878       1.88791197       6.82732902
Ti       1.51762903       2.74119024       0.02332518
V        1.61193404       4.45166772       2.26803558
Ti       1.49698256       2.76229013       4.54602877
Ti       1.71323277       4.49403450       6.87194739
Al       5.89346929       0.19999945       0.08238049
Ti       6.09749081       1.96128274       2.28779114
Ti       5.84765507       0.16023467       4.54329458
Ti       6.09833946       1.84527257       6.86226068
Ti       4.48371746       2.80141445      -0.03927270
Ti       4.68531481       4.46911772       2.30007188
Ti       4.52295695       2.81879859       4.61673193
Al       4.69768039       4.55012712       6.84114891
24
Lattice="8.959138233659464 0.27664163031506495 -0.014316667115140408 -2.830858520883472 5.2238343202070565 0.011218744672198085 -0.015451797618110259 0.01246386015273189 9.152956509100889" Properties=species:S:1:pos:R:3 n_minim_iter=14 stress="0.041902433398403605 -3.409790751244366e-05 -7.564211830349609e-05 -3.409790751244366e-05 0.04195746109283515 2.042768458833923e-05 -7.564211830349609e-05 2.042768458833923e-05 0.042007529553130946" pbc="T T T"
Ti      -0.10489142       0.07760697       0.00731507
Ti       0.12064122       1.72960408       2.29578811
Ti      -0.02932114       0.05843729       4.57797808
Ti       0.08784103       1.74754299       6.84688614
Ti      -1.51460169       2.61273173       0.04982726
Al      -1.28326908       4.36814303       2.26151116
Ti      -1.48205636       2.69473680       4.55073658
Ti      -1.33412972       4.34806227       6.86565595
Ti       2.92366981       0.19717565      -0.01486321
Ti       3.13653016       1.85685051       2.30808129
Ti       2.88232204       0.10576745       4.57715806
Ti       3.11101610       1.88773205       6.82750963
Ti       1.51666528       2.74096038       0.02341247
V        1.61106926       4.45135147       2.26818211
Ti       1.49642827       2.76189431       4.54582423
Ti       1.71213331       4.49418589       6.87219594
Al       5.89413421       0.19869351       0.08195949
Ti       6.09632641       1.96073179       2.28730819
Ti       5.84823599       0.15919094       4.54279886
Ti       6.09604295       1.84415579       6.86218783
Ti       4.48393069       2.80108780      -0.03949309
Ti       4.68400361       4.46886425       2.30028766
Ti       4.52192824       2.81713904       4.61650669
Al       4.69630533       4.54987052       6.84041929
