24
Lattice="9.355381778693376 0.05060137620704635 0.005119022506692652 -3.09248040819326 5.437426580178393 0.028653504881527278 0.0035102522036817396 0.053126333633552805 9.69982513165607" Properties=species:S:1:pos:R:3 n_minim_iter=1 energy=-34152.186394401455 free_energy=-34152.186394401455 pbc="T T T"
Ti      -0.03994562       0.05639779       0.02414206
Ti       0.02237543       1.78586926       2.43268650
Ti       0.07492181       0.11966559       4.81741814
Ti       0.05714560       1.79799475       7.25579311
Ti      -1.54466566       2.67229991       0.09036919
Al      -1.50283006       4.54341213       2.40781233
Ti      -1.53676408       2.65154466       4.74407536
Ti      -1.50975243       4.64024244       7.36994549
Ti       3.09712356       0.12696723      -0.01877774
Ti       3.17094131       1.82392041       2.44674644
Ti       3.10323116       0.12139226       4.84710565
Ti       3.16823528       1.85065381       7.23512502
Ti       1.55938215       2.71921693       0.05492989
V        1.38473078       4.55664283       2.32417114
Ti       1.58517217       2.67614873       4.76827097
Ti       1.64281311       4.66704567       7.35153398
Al       6.19372962       0.04246916       0.17322799
Ti       6.21712368       1.93904782       2.45997111
Ti       6.21934456       0.13993295       4.85444347
Ti       6.26291037       1.80280972       7.31101844
Ti       4.63662611       2.77724437       0.03709522
Ti       4.75509282       4.51386906       2.50538447
Ti       4.65544713       2.70268732       4.86988423
Al       4.75127737       4.59721828       7.27036629
24
Lattice="9.311917307893992 0.04511968331147278 0.004754756549575673 -3.0811448753826416 5.408911133948148 0.02688909822070911 0.003053325273661143 0.04892227664160494 9.79952138393565" Properties=species:S:1:pos:R:3 n_minim_iter=2 stress="0.09092358036667941 -0.00016799136224972003 8.778073842213463e-05 -0.00016799136224972003 0.09025862348153654 -0.0001731000761181011 8.778073842213463e-05 -0.0001731000761181011 0.09056265998619706" pbc="T T T"
Ti      -0.03970862       0.05613862       0.02434310
Ti       0.02121234       1.77496891       2.45702946
Ti       0.07442251       0.11715650       4.86688449
Ti       0.05566895       1.78491766       7.32965127
Ti      -1.53897193       2.65836214       0.09035318
Al      -1.49849270       4.51809743       2.43085343
Ti      -1.53134183       2.63575005       4.79172475
Ti      -1.50558673       4.61252434       7.44410820
Ti       3.08266147       0.12450769      -0.01921107
Ti       3.15510384       1.81087265       2.47110683
Ti       3.08854323       0.11732606       4.89690725
Ti       3.15215365       1.83552807       7.30853573
Ti       1.55062333       2.70317125       0.05438749
V        1.37546222       4.52962022       2.34579446
Ti       1.57612382       2.65818129       4.81621857
Ti       1.63230475       4.63733009       7.42525200
Al       6.16496548       0.03872709       0.17452702
Ti       6.18703511       1.92377931       2.48427534
Ti       6.19027979       0.13387005       4.90410875
Ti       6.23246130       1.78629313       7.38508960
Ti       4.61358471       2.75912133       0.03629103
Ti       4.73044929       4.48520370       2.52913358
Ti       4.63206860       2.68298402       4.91851399
Al       4.72621823       4.56610796       7.34308270
24
Lattice="9.303533924066304 0.04882145844099232 0.0027912140479986534 -3.0762431481067276 5.411381215922773 0.029780033246174693 0.0010124532829961506 0.05293431845304417 9.801736033740202" Properties=species:S:1:pos:R:3 n_minim_iter=3 stress="0.09000659884873154 0.0002929933745365561 -5.811101184269822e-06 0.0002929933745365561 0.09091077610508161 7.72412805398253e-05 -5.811101184269822e-06 7.72412805398253e-05 0.09057059827203537" pbc="T T T"
Ti      -0.03950651       0.05617080       0.02437264
Ti       0.02137921       1.77718284       2.45841788
Ti       0.07345963       0.11936396       4.86785093
Ti       0.05491578       1.78892644       7.33199622
Ti      -1.53652538       2.65973942       0.09203079
Al      -1.49585674       4.52161400       2.43361653
Ti      -1.52994057       2.63891119       4.79380898
Ti      -1.50387210       4.61836164       7.44847336
Ti       3.07988828       0.12567530      -0.01993219
Ti       3.15241634       1.81425228       2.47188469
Ti       3.08465080       0.12090979       4.89758031
Ti       3.14840063       1.84068867       7.31003835
Ti       1.55022177       2.70555685       0.05536531
V        1.37516992       4.53421931       2.34723613
Ti       1.57482745       2.66213425       4.81801477
Ti       1.63105256       4.64438299       7.42877764
Al       6.15939837       0.04127467       0.17291775
Ti       6.18169084       1.92840083       2.48447738
Ti       6.18390949       0.13855384       4.90414485
Ti       6.22595315       1.79294359       7.38602033
Ti       4.61061730       2.76280210       0.03673681
Ti       4.72739980       4.49125229       2.53056820
Ti       4.62788811       2.68856493       4.91941515
Al       4.72210722       4.57401671       7.34566315
24
Lattice="9.301794480198602 0.036099206464270235 -0.016887766039797903 -3.0831417092730624 5.412655591465822 0.05189393299917922 -0.019617803724455 0.08061851027851222 9.809240236128405" Properties=species:S:1:pos:R:3 n_minim_iter=4 stress="0.08956864574176558 -0.0009501406527321987 -0.0012250784973506154 -0.0009501406527321987 0.08936214691307379 0.001488317901222305 -0.0012250784973506154 0.001488317901222305 0.0896019171840552" pbc="T T T"
Ti      -0.03708590       0.05654700       0.02446038
Ti       0.01408475       1.78283741       2.46731960
Ti       0.06429107       0.13547638       4.86889242
Ti       0.03961465       1.80451759       7.34197149
Ti      -1.53970090       2.66344026       0.10739723
Al      -1.50637673       4.52866837       2.45227978
Ti      -1.54364362       2.65358497       4.80085473
Ti      -1.52347600       4.64398700       7.47936641
Ti       3.07818160       0.11931308      -0.02824992
Ti       3.14355477       1.81390023       2.47492545
Ti       3.07123275       0.13631560       4.89850597
Ti       3.12845498       1.85043061       7.31003464
Ti       1.54510422       2.70082973       0.06328093
V        1.35762018       4.53704995       2.34712004
Ti       1.56227204       2.66448804       4.82504205
Ti       1.60806221       4.66494841       7.44977123
Al       6.15803344       0.03395228       0.15367023
Ti       6.17299077       1.92323767       2.48163502
Ti       6.17570633       0.14726699       4.89873253
Ti       6.20637777       1.80361080       7.38098842
Ti       4.60787282       2.75486180       0.03999840
Ti       4.71499138       4.49127344       2.53588765
Ti       4.61255971       2.69362750       4.91523294
Al       4.69803034       4.58489407       7.35536473
24
Lattice="9.293647443816083 0.05567975281289383 0.00039595647687801417 -3.068944766872397 5.400996482106423 0.03816543824186319 -0.0015214863008117588 0.06622163270622328 9.827070603691366" Properties=species:S:1:pos:R:3 n_minim_iter=5 stress="0.08738142615890647 0.0012866573828366513 -0.00029018142901589175 0.0012866573828366513 0.0858735026232758 9.344890818050257e-06 -0.00029018142901589175 9.344890818050257e-06 0.08696180455138225" pbc="T T T"
Ti      -0.02943930       0.05717690       0.02392144
Ti       0.02305324       1.77677466       2.47497436
Ti       0.07689566       0.13572812       4.86962598
Ti       0.06420074       1.77994811       7.35081373
Ti      -1.53140073       2.66589802       0.11399627
Al      -1.48983766       4.51965144       2.44915169
Ti      -1.52884110       2.64211322       4.78092296
Ti      -1.49280349       4.64074544       7.50987496
Ti       3.07284586       0.11980896      -0.02895476
Ti       3.14707012       1.80928787       2.49056171
Ti       3.07062315       0.15264907       4.92347511
Ti       3.13842046       1.82802231       7.31421317
Ti       1.54664584       2.69774270       0.07250363
V        1.35206738       4.53399937       2.31123752
Ti       1.57975368       2.63585014       4.83011082
Ti       1.62751739       4.66617751       7.47621596
Al       6.15359655       0.04853184       0.14678387
Ti       6.17665031       1.92287338       2.50314778
Ti       6.18966656       0.16306501       4.93015557
Ti       6.21657743       1.80193664       7.39595776
Ti       4.61547341       2.76157518       0.05981233
Ti       4.72451956       4.49857237       2.54443936
Ti       4.62192543       2.69051635       4.91193122
Al       4.71236944       4.57700329       7.37411299
24
Lattice="9.285277933244307 0.04377445304678629 0.006717089000464843 -3.0731264769606628 5.41034639571857 0.03383893746055025 0.004983442382138611 0.06229752507859908 9.825994239342808" Properties=species:S:1:pos:R:3 n_minim_iter=6 stress="0.08659640050495457 8.398987850783137e-05 0.00010255760797808093 8.398987850783137e-05 0.08675059237534886 -0.0002546143751259148 0.00010255760797808093 -0.0002546143751259148 0.08688680764776893" pbc="T T T"
Ti      -0.02954172       0.05718493       0.02390210
Ti       0.02248844       1.77752094       2.47390237
Ti       0.07982309       0.13366744       4.86919126
Ti       0.06682492       1.77857434       7.34931316
Ti      -1.53346959       2.67051739       0.11198184
Al      -1.49272983       4.52516119       2.44600442
Ti      -1.52771965       2.64469808       4.77815027
Ti      -1.49243000       4.64437244       7.50638531
Ti       3.06995080       0.11601251      -0.02687805
Ti       3.14359300       1.80607491       2.49170209
Ti       3.07098404       0.14668164       4.92502437
Ti       3.13823752       1.82288893       7.31477774
Ti       1.54181199       2.69846972       0.07248394
V        1.34655212       4.53592017       2.30959053
Ti       1.57817075       2.63451681       4.82956626
Ti       1.62502962       4.66586907       7.47475644
Al       6.14820446       0.04063800       0.15094701
Ti       6.17031646       1.91573892       2.50617009
Ti       6.18729784       0.15332822       4.93394766
Ti       6.21366194       1.79273047       7.39860496
Ti       4.60791656       2.75848501       0.06195292
Ti       4.71622836       4.49596972       2.54548010
Ti       4.61760581       2.68527006       4.91342408
Al       4.70735480       4.57242304       7.37464946
24
Lattice="9.292333528225695 0.04289895380279306 0.00820705343403569 -3.075967322955938 5.410923517903544 0.03597533719224687 0.006504732783437098 0.06701940121855599 9.818075418840653" Properties=species:S:1:pos:R:3 n_minim_iter=7 stress="0.08776458856941914 -6.074791468564986e-05 0.000267266399202734 -6.074791468564986e-05 0.08774122333131358 0.0002723579792728141 0.000267266399202734 0.0002723579792728141 0.08770700446412305" pbc="T T T"
Ti      -0.03233267       0.05665793       0.02427528
Ti       0.02269844       1.77890623       2.47032475
Ti       0.07894950       0.13301142       4.86845837
Ti       0.06554546       1.78556716       7.34479015
Ti      -1.53560597       2.66829850       0.10934575
Al      -1.49470317       4.52623576       2.44533192
Ti      -1.52826131       2.64639967       4.78188028
Ti      -1.49506002       4.64388583       7.49490537
Ti       3.07345636       0.11806806      -0.02409095
Ti       3.14663275       1.80907988       2.48845079
Ti       3.07649278       0.14223596       4.91835427
Ti       3.14335287       1.83174630       7.31414742
Ti       1.54364701       2.69998235       0.07079067
V        1.35340279       4.53681373       2.31945926
Ti       1.57847403       2.64443770       4.82803384
Ti       1.62734883       4.66590253       7.46652134
Al       6.15316723       0.03981729       0.15803637
Ti       6.17482099       1.91846173       2.50256076
Ti       6.18992287       0.15232956       4.92825653
Ti       6.21974909       1.79640026       7.39660339
Ti       4.60988795       2.75898796       0.05970395
Ti       4.71980950       4.49514158       2.54540066
Ti       4.62207218       2.68845649       4.91697047
Al       4.71382959       4.57598686       7.37052065
24
Lattice="9.29149577413577 0.04243409594249896 0.0005886954698463085 -3.0759884718508026 5.411832872628213 0.03532215632050773 -0.0013663085927990049 0.0613894723190096 9.817509345129315" Properties=species:S:1:pos:R:3 n_minim_iter=8 stress="0.08769702310745536 -0.00013035657977949317 -0.0002709510543504855 -0.00013035657977949317 0.08786686854745851 -0.00014580208258713946 -0.0002709510543504855 -0.00014580208258713946 0.08766961836751391" pbc="T T T"
Ti      -0.03263279       0.05648625       0.02438679
Ti       0.02074443       1.77769197       2.46877228
Ti       0.07473513       0.12984186       4.86842095
Ti       0.05955509       1.78145591       7.34327600
Ti      -1.53589670       2.66867351       0.10922254
Al      -1.49695017       4.52562011       2.44372417
Ti      -1.53217493       2.64383039       4.78128765
Ti      -1.50136074       4.64042092       7.49332726
Ti       3.07336157       0.11823992      -0.02650441
Ti       3.14418399       1.80788402       2.48456653
Ti       3.07239579       0.13858863       4.91544874
Ti       3.13731765       1.82791762       7.31020951
Ti       1.54333651       2.70044334       0.06785896
V        1.35140724       4.53618932       2.31477944
Ti       1.57429869       2.64237346       4.82493075
Ti       1.62080309       4.66236613       7.46223976
Al       6.15268354       0.03951735       0.15329628
Ti       6.17205120       1.91681499       2.49575015
Ti       6.18551837       0.14931242       4.92315958
Ti       6.21313334       1.79205954       7.39002586
Ti       4.60954690       2.75945788       0.05447653
Ti       4.71708257       4.49396748       2.53855225
Ti       4.61760752       2.68585633       4.91156096
Al       4.70767991       4.57188689       7.36353162
24
Lattice="9.282902149379307 0.041117875634201315 0.002887387060070849 -3.0739022614590494 5.410891931834803 0.03824237971555549 0.000964960966123826 0.06785542861981884 9.829174007088882" Properties=species:S:1:pos:R:3 n_minim_iter=9 stress="0.08628740328278366 -7.107631785957188e-05 -0.0001889661060516743 -7.107631785957188e-05 0.08638549837845909 -0.00019740561826784797 -0.0001889661060516743 -0.00019740561826784797 0.08628945553757798" pbc="T T T"
Ti      -0.03197088       0.05504710       0.02571537
Ti       0.02287749       1.77774871       2.47159846
Ti       0.07385749       0.13216712       4.87443637
Ti       0.06481465       1.77745779       7.35189026
Ti      -1.53681611       2.67242488       0.12010810
Al      -1.49738261       4.52803937       2.44968858
Ti      -1.53144202       2.64390911       4.77617968
Ti      -1.49822150       4.65371140       7.52281847
Ti       3.07098008       0.11841045      -0.02685542
Ti       3.13945757       1.80705552       2.49217768
Ti       3.06833407       0.14216485       4.92705413
Ti       3.13596154       1.82612952       7.31557213
Ti       1.54012567       2.69997571       0.07448091
V        1.34301337       4.53884762       2.29168838
Ti       1.57557777       2.63748730       4.83124015
Ti       1.61676743       4.67485826       7.48560471
Al       6.14990409       0.04109911       0.14895476
Ti       6.16543117       1.91078346       2.49968884
Ti       6.18756143       0.15823545       4.94025516
Ti       6.20753316       1.79394160       7.39706901
Ti       4.61104119       2.76204538       0.06743337
Ti       4.71199821       4.49508827       2.54390781
Ti       4.61383723       2.68688594       4.91374350
Al       4.70682310       4.56988180       7.37748838
24
Lattice="9.284058862607065 0.041415866955295144 0.004506363006926541 -3.074102636756716 5.410155138047122 0.0385261172347398 0.002637849149731739 0.06930593459953065 9.829129054929767" Properties=species:S:1:pos:R:3 n_minim_iter=10 stress="0.0864988596277101 -3.65306991736273e-05 -8.187629957216345e-05 -3.65306991736273e-05 0.08652735427612208 -9.847300683344831e-05 -8.187629957216345e-05 -9.847300683344831e-05 0.08650256759435448" pbc="T T T"
Ti      -0.03403627       0.05416571       0.02656144
Ti       0.02403604       1.77764982       2.46942421
Ti       0.07261765       0.13014537       4.87714553
Ti       0.06569933       1.77824176       7.35209160
Ti      -1.53828008       2.67152528       0.12064401
Al      -1.49820257       4.52800404       2.44966565
Ti      -1.53112167       2.64260726       4.77728590
Ti      -1.49851854       4.65383829       7.52352484
Ti       3.07244737       0.12100663      -0.02483616
Ti       3.13984957       1.80849165       2.49168258
Ti       3.07062095       0.13783804       4.92670417
Ti       3.13911935       1.82957573       7.31774342
Ti       1.54062917       2.70109537       0.07382570
V        1.34631978       4.53939942       2.28949554
Ti       1.57615554       2.64155288       4.83190697
Ti       1.61743955       4.67562588       7.48669018
Al       6.15183037       0.04181206       0.15291729
Ti       6.16574523       1.91066909       2.49745893
Ti       6.18908903       0.15891399       4.94250942
Ti       6.20953761       1.79493273       7.39875327
Ti       4.61302683       2.76395951       0.06868126
Ti       4.71298183       4.49393054       2.54395799
Ti       4.61569974       2.68781549       4.91705319
Al       4.71122600       4.56906703       7.37859511
24
Lattice="9.284612329791926 0.04167233075114481 0.005946362059969077 -3.0741291451458537 5.409536492905821 0.03920555374263616 0.0041212286931756785 0.0713533936260133 9.829543313465113" Properties=species:S:1:pos:R:3 n_minim_iter=11 stress="0.08658726922873632 -1.101518638315709e-05 -9.264842716387497e-07 -1.101518638315709e-05 0.08658109732232437 -2.8642077714535586e-06 -9.264842716387497e-07 -2.8642077714535586e-06 0.08659413300147753" pbc="T T T"
Ti      -0.03580233       0.05348695       0.02750255
Ti       0.02523907       1.77778370       2.46783087
Ti       0.07143377       0.12879390       4.87982914
Ti       0.06687978       1.77923142       7.35266341
Ti      -1.53970393       2.67110173       0.12189055
Al      -1.49877591       4.52819101       2.45011356
Ti      -1.53081570       2.64167134       4.77785247
Ti      -1.49852156       4.65503652       7.52597754
Ti       3.07348549       0.12385874      -0.02305487
Ti       3.13983022       1.80997936       2.49150153
Ti       3.07218741       0.13447405       4.92697655
Ti       3.14171198       1.83277488       7.31997693
Ti       1.54084519       2.70211739       0.07329874
V        1.34917832       4.54033829       2.28589709
Ti       1.57656913       2.64487574       4.83265977
Ti       1.61785524       4.67730428       7.48916079
Al       6.15319059       0.04243701       0.15588545
Ti       6.16539910       1.91065455       2.49567983
Ti       6.19029092       0.15977831       4.94525694
Ti       6.21107353       1.79627110       7.40085339
Ti       4.61512398       2.76590937       0.07057962
Ti       4.71366395       4.49303404       2.54444211
Ti       4.61724659       2.68857304       4.91995297
Al       4.71457802       4.56882120       7.38071782
24
Lattice="9.285395228701821 0.042612384059722404 0.008084148552798697 -3.0738301743614334 5.408539592228477 0.04019892686569702 0.006326795029210952 0.07436785342694903 9.830010977222368" Properties=species:S:1:pos:R:3 n_minim_iter=12 stress="0.08662396898107662 8.015169686832583e-05 0.00010831678884362281 8.015169686832583e-05 0.08659951358190401 0.00012183361688203593 0.00010831678884362281 0.00012183361688203593 0.08662742138066357" pbc="T T T"
Ti      -0.03778159       0.05346895       0.02919138
Ti       0.02731673       1.77835147       2.46663700
Ti       0.07029319       0.12786139       4.88325714
Ti       0.06963478       1.78138285       7.35330923
Ti      -1.54175636       2.67109336       0.12386255
Al      -1.49828981       4.52808060       2.45075088
Ti      -1.53003350       2.64048061       4.77755846
Ti      -1.49721797       4.65676616       7.53013651
Ti       3.07426334       0.12999724      -0.02051232
Ti       3.13966414       1.81253395       2.49087887
Ti       3.07349486       0.13108267       4.92790144
Ti       3.14505541       1.83663622       7.32332225
Ti       1.54093936       2.70339736       0.07108824
V        1.35467139       4.54221820       2.27886066
Ti       1.57690757       2.64789786       4.83292210
Ti       1.61937910       4.67956943       7.49357084
Al       6.15418894       0.04311088       0.15859443
Ti       6.16420992       1.91202883       2.49401395
Ti       6.19130276       0.15953618       4.94898999
Ti       6.21397110       1.79839983       7.40523341
Ti       4.61905573       2.76874791       0.07357908
Ti       4.71536841       4.49172582       2.54575348
Ti       4.62020228       2.68824570       4.92315799
Al       4.71746990       4.56981941       7.38548259
24
Lattice="9.284814377580995 0.04190996210651886 0.007071943511642199 -3.0740496499802656 5.408542459758382 0.040400683085529056 0.005273878620556128 0.07412342790069384 9.831033695608529" Properties=species:S:1:pos:R:3 n_minim_iter=13 stress="0.0863044854242905 2.378541774515806e-05 1.2206840790537736e-05 2.378541774515806e-05 0.08632301763473771 1.9092809202686096e-05 1.2206840790537736e-05 1.9092809202686096e-05 0.0863204831893564" pbc="T T T"
Ti      -0.03692668       0.05619440       0.03087835
Ti       0.02828008       1.77897307       2.46918021
Ti       0.07024779       0.12929497       4.88399956
Ti       0.07162681       1.78229095       7.35345365
Ti      -1.54349382       2.67323914       0.12551859
Al      -1.49617618       4.52713172       2.45087535
Ti      -1.53058882       2.63967822       4.77411780
Ti      -1.49594371       4.65692853       7.53513328
Ti       3.07224285       0.13736052      -0.02028709
Ti       3.13786530       1.81326481       2.48901247
Ti       3.06981079       0.13205932       4.93001923
Ti       3.14276601       1.83376155       7.32467115
Ti       1.53929193       2.70287172       0.06531008
V        1.35852230       4.54366637       2.26816079
Ti       1.57439901       2.64244421       4.83047816
Ti       1.61912094       4.67874652       7.49816752
Al       6.15182623       0.04143447       0.15376719
Ti       6.16020764       1.91357727       2.49437559
Ti       6.18846934       0.15307226       4.94968282
Ti       6.21418700       1.79654568       7.40983388
Ti       4.62213909       2.76879847       0.07468426
Ti       4.71578604       4.48939239       2.54643376
Ti       4.62110331       2.68208756       4.92059161
Al       4.71045417       4.57089166       7.39125669
24
Lattice="9.285342545878866 0.041027738073587235 0.006063559248536259 -3.074741379923621 5.408852186466963 0.03970774747129439 0.004233751879211756 0.07230160946971674 9.83040915084382" Properties=species:S:1:pos:R:3 n_minim_iter=14 stress="0.08641719006863294 -0.0001031718049625934 -5.9670786531874254e-05 -0.0001031718049625934 0.08635383237982906 -7.843173501140226e-05 -5.9670786531874254e-05 -7.843173501140226e-05 0.08636215056562256" pbc="T T T"
Ti      -0.03678310       0.05679227       0.03089363
Ti       0.02821160       1.77802181       2.46870602
Ti       0.06984129       0.12767717       4.88381245
Ti       0.07007058       1.78072893       7.35241261
Ti      -1.54442552       2.67281537       0.12468714
Al      -1.49679561       4.52751781       2.45000786
Ti      -1.53174733       2.63827235       4.77392828
Ti      -1.49794060       4.65491428       7.53375880
Ti       3.07231728       0.13748513      -0.02035008
Ti       3.13810417       1.81269274       2.48783723
Ti       3.06936252       0.13052340       4.92943037
Ti       3.14136647       1.83311517       7.32396289
Ti       1.53889785       2.70289794       0.06316119
V        1.35880622       4.54302988       2.26652185
Ti       1.57336005       2.64168180       4.82980090
Ti       1.61735754       4.67719333       7.49653181
Al       6.15330589       0.04183010       0.15387153
Ti       6.16054302       1.91140039       2.49298279
Ti       6.18840772       0.15146756       4.94867406
Ti       6.21315591       1.79432851       7.40888765
Ti       4.62142767       2.76854514       0.07370636
Ti       4.71540197       4.48880902       2.54500673
Ti       4.62034697       2.68166710       4.92001203
Al       4.71127600       4.56876543       7.38910895
24
Lattice="9.284935747110325 0.04179666909971058 0.006342819482587999 -3.074158525362573 5.408755364817186 0.03953141980150006 0.0045282303791765914 0.07215319948561504 9.830555450869925" Properties=species:S:1:pos:R:3 n_minim_iter=15 stress="0.08636997127914671 -7.727467395861227e-05 -4.832416276547821e-05 -7.727467395861227e-05 0.08631623526262976 -5.8006836059087175e-05 -4.832416276547821e-05 -5.8006836059087175e-05 0.08632982305775383" pbc="T T T"
Ti      -0.03569242       0.05924000       0.03130127
Ti       0.02955146       1.77717059       2.46992902
Ti       0.07079368       0.12697986       4.88370246
Ti       0.07008014       1.78040216       7.35175684
Ti      -1.54568471       2.67240702       0.12411727
Al      -1.49485471       4.52866576       2.44992812
Ti      -1.53197650       2.63669034       4.77318413
Ti      -1.49774323       4.65343454       7.53494462
Ti       3.07123475       0.14055022      -0.01978490
Ti       3.13900605       1.81342149       2.48700247
Ti       3.06799441       0.13151939       4.93070499
Ti       3.13938496       1.83427825       7.32511200
Ti       1.53810123       2.70318509       0.05832057
V        1.36195161       4.54340161       2.26189906
Ti       1.57239452       2.63993326       4.82977203
Ti       1.61693976       4.67736279       7.49785637
Al       6.15478406       0.04411000       0.15376315
Ti       6.16069036       1.90990873       2.49370962
Ti       6.18818309       0.15005627       4.94920242
Ti       6.21266147       1.79379759       7.41163317
Ti       4.62080300       2.76921012       0.07461495
Ti       4.71619505       4.48982949       2.54594389
Ti       4.62041673       2.68232548       4.92050904
Al       4.71333583       4.56916533       7.39039032
24
Lattice="9.284627245985376 0.04237799527301569 0.0069485838100355685 -3.0737163151317595 5.408639871930609 0.03974784895355349 0.00515536532814952 0.07289405705782996 9.830757358867864" Properties=species:S:1:pos:R:3 n_minim_iter=16 stress="0.08631577774354535 -1.308250688237114e-05 -8.448638549230234e-06 -1.308250688237114e-05 0.08630676971066092 -9.479387046686966e-06 -8.448638549230234e-06 -9.479387046686966e-06 0.08631072477651511" pbc="T T T"
Ti      -0.03555197       0.05945273       0.03130502
Ti       0.02982699       1.77743780       2.47027760
Ti       0.07121583       0.12750335       4.88366337
Ti       0.07078062       1.78099854       7.35202147
Ti      -1.54542857       2.67253477       0.12431719
Al      -1.49414609       4.52864627       2.45024541
Ti      -1.53144032       2.63705350       4.77314910
Ti      -1.49672998       4.65402385       7.53552654
Ti       3.07106336       0.14093974      -0.01966249
Ti       3.13915758       1.81379024       2.48745832
Ti       3.06805747       0.13245240       4.93119547
Ti       3.13967206       1.83488950       7.32565325
Ti       1.53820276       2.70331387       0.05835494
V        1.36242761       4.54370702       2.26189469
Ti       1.57273871       2.64005967       4.83018175
Ti       1.61780153       4.67810821       7.49863767
Al       6.15434965       0.04431814       0.15379077
Ti       6.16073748       1.91057006       2.49456779
Ti       6.18828890       0.15063410       4.94976910
Ti       6.21303905       1.79468285       7.41248549
Ti       4.62091061       2.76943404       0.07518484
Ti       4.71658386       4.49045215       2.54679411
Ti       4.62076454       2.68278185       4.92092097
Al       4.71341590       4.57019923       7.39141578
24
Lattice="9.284120720910131 0.04338086134739342 0.008018928993952654 -3.0729621756283536 5.408511251985543 0.04001040670847601 0.006264582614983512 0.07399151346005867 9.83094834909253" Properties=species:S:1:pos:R:3 n_minim_iter=17 stress="0.08623214627929207 9.043871209317752e-05 5.624436796632518e-05 9.043871209317752e-05 0.08629430806760198 6.903715344374114e-05 5.624436796632518e-05 6.903715344374114e-05 0.08627857948889006" pbc="T T T"
Ti      -0.03529976       0.06010796       0.03123687
Ti       0.03035638       1.77782167       2.47066819
Ti       0.07194591       0.12807100       4.88346874
Ti       0.07183713       1.78178632       7.35227099
Ti      -1.54503067       2.67285310       0.12463055
Al      -1.49270128       4.52838700       2.45066871
Ti      -1.53057475       2.63752598       4.77301631
Ti      -1.49501678       4.65483362       7.53628399
Ti       3.07088985       0.14176740      -0.01948860
Ti       3.13956390       1.81436563       2.48831250
Ti       3.06820574       0.13409617       4.93215826
Ti       3.13988218       1.83620591       7.32679617
Ti       1.53846954       2.70379494       0.05769979
V        1.36358757       4.54408164       2.26113329
Ti       1.57316859       2.64031826       4.83117961
Ti       1.61939174       4.67938165       7.49975016
Al       6.15354206       0.04454369       0.15380888
Ti       6.16110169       1.91136662       2.49610857
Ti       6.18867187       0.15160539       4.95088097
Ti       6.21346585       1.79591105       7.41393902
Ti       4.62098444       2.76980092       0.07608147
Ti       4.71742485       4.49183610       2.54827758
Ti       4.62124863       2.68367726       4.92170845
Al       4.71341968       4.57179560       7.39289207
24