24
Lattice="9.292592089631235 0.05026175942247076 0.005084665615750012 -3.0717248807487847 5.400932684756062 0.02846119368519009 0.003486692754199855 0.05276977031537166 9.634723672583505" Properties=species:S:1:pos:R:3 n_minim_iter=27 stress="0.08420527680632793 -5.587650937205215e-06 -2.550579324119463e-05 -5.587650937205215e-06 0.08422723233985652 -1.698233217230374e-06 -2.550579324119463e-05 -1.698233217230374e-06 0.08418717247917037" pbc="T T T"
Ti      -0.03967752       0.05601927       0.02398003
Ti       0.02222525       1.77388320       2.41635925
Ti       0.07441896       0.11886244       4.78508551
Ti       0.05676206       1.78592730       7.20709504
Ti      -1.53429847       2.65436448       0.08976267
Al      -1.49274365       4.51291851       2.39165203
Ti      -1.52644992       2.63374852       4.71223497
Ti      -1.49961956       4.60909893       7.32048128
Ti       3.07633687       0.12611508      -0.01865171
Ti       3.14965918       1.81167896       2.43032483
Ti       3.08240348       0.12057752       4.81457376
Ti       3.14697131       1.83823294       7.18656567
Ti       1.54891618       2.70096661       0.05456122
V        1.37543700       4.52606041       2.30857221
Ti       1.57453311       2.65818746       4.73626819
Ti       1.63178718       4.63572227       7.30219334
Al       6.15215971       0.04218412       0.17206535
Ti       6.17539676       1.92603368       2.44346074
Ti       6.17760273       0.13899377       4.82186233
Ti       6.22087615       1.79070996       7.26194972
Ti       4.60550687       2.75860458       0.03684625
Ti       4.72317848       4.48357373       2.48856931
Ti       4.62420157       2.68454793       4.83719946
Al       4.71938864       4.56636353       7.22157041
