24
Lattice="8.318023553881416 0.04790932821783695 -0.01707909996451519 -2.745064227353409 4.785147163800603 0.01534951933552915 -0.01789855674840135 0.017310007925594843 9.171207493448323" Properties=species:S:1:pos:R:3 n_minim_iter=13 stress="-0.0270400647209003 -1.264400569241765e-06 9.310787701799486e-06 -1.264400569241765e-06 -0.027035419561683236 -8.763560926448458e-07 9.310787701799486e-06 -8.763560926448458e-07 -0.02706778755654015" pbc="T T T"
Ti      -0.08179113      -0.01924039      -0.00912985
Ti       0.02885691       1.61711353       2.29132432
Ti      -0.00953854      -0.02546735       4.57870837
Ti      -0.00422614       1.59823942       6.86688128
Ti      -1.41759973       2.38258454       0.05975287
Al      -1.35488468       3.99749298       2.29301935
Ti      -1.42399564       2.42332450       4.55508672
Ti      -1.36911482       3.95580449       6.89434699
Ti       2.74795949       0.05019086      -0.00244103
Ti       2.79253352       1.63094156       2.30055952
Ti       2.73130716       0.00708012       4.58239135
Ti       2.81510743       1.62869002       6.85165130
Ti       1.37846898       2.39403249       0.00412779
V        1.38246374       4.02615135       2.29508917
Ti       1.37379926       2.41382408       4.60115218
Ti       1.49076429       4.04506342       6.89264022
Al       5.47749248       0.02645252       0.02592972
Ti       5.52598054       1.66040139       2.25376555
Ti       5.54898129       0.04262839       4.60610056
Ti       5.60383299       1.60991031       6.90205371
Ti       4.14366489       2.44790460      -0.06134063
Ti       4.20910685       4.03058680       2.27002050
Ti       4.19217222       2.47477244       4.63001120
Al       4.24179929       4.03594282       6.85325652
