24
Lattice="9.284367152201858 0.042979983793883327 0.007671422320354917 -3.0732791686680523 5.4088498428481 0.03936072276665282 0.005909781906345096 0.0726373216988146 9.830290795190761" Properties=species:S:1:pos:R:3 n_minim_iter=18 stress="0.08629329257806945 1.7217364224830066e-05 1.0496369713471229e-05 1.7217364224830066e-05 0.08630464594389299 1.2513246238010263e-05 1.0496369713471229e-05 1.2513246238010263e-05 0.0863037310312919" pbc="T T T"
Ti      -0.03534988       0.06114407       0.03088532
Ti       0.03037158       1.77733427       2.46962416
Ti       0.07168329       0.12641407       4.88297008
Ti       0.07067350       1.78037031       7.35134219
Ti      -1.54532285       2.67314739       0.12428726
Al      -1.49218285       4.52737488       2.44993704
Ti      -1.53112966       2.63667730       4.77286881
Ti      -1.49581411       4.65344901       7.53475363
Ti       3.07142687       0.14212126      -0.01978413
Ti       3.14000434       1.81378976       2.48835203
Ti       3.06825704       0.13369500       4.93236720
Ti       3.13844051       1.83675301       7.32748517
Ti       1.53879231       2.70467518       0.05461835
V        1.36466317       4.54311280       2.25819279
Ti       1.57219573       2.64029086       4.83222823
Ti       1.61927413       4.67861754       7.49815114
Al       6.15349018       0.04378009       0.15352811
Ti       6.16219823       1.90959962       2.49585477
Ti       6.18928685       0.15098469       4.95100523
Ti       6.21221411       1.79403461       7.41338556
Ti       4.62041208       2.76944746       0.07517107
Ti       4.71786171       4.49262012       2.54777423
Ti       4.62049703       2.68363691       4.92173854
Al       4.71252794       4.57032136       7.39108754
