24
Lattice="7.733149116058823 0.24831477829437804 -0.06099484970091673 -2.434906245695957 4.513779439178399 0.04177072024842552 -0.06906050513640426 0.040434793415911455 8.36324602005302" Properties=species:S:1:pos:R:3 n_minim_iter=44 stress="-0.27480693983016213 1.745071709516564e-05 -2.4956319966850436e-05 1.745071709516564e-05 -0.27491934576112226 8.402313983440729e-06 -2.4956319966850436e-05 8.402313983440729e-06 -0.27489361485534247" pbc="T T T"
Ti      -0.15845175       0.06514978      -0.09239268
Ti       0.20166375       1.58215757       2.05611833
Ti      -0.16235622       0.06829716       4.27095046
Ti       0.02309916       1.53093387       6.24914946
Ti      -1.24446728       2.33846712      -0.04361702
Al      -1.08938404       3.77835752       2.13446043
Ti      -1.30421405       2.37959491       4.26391714
Ti      -1.25634320       3.79717638       6.33976153
Ti       2.50392717       0.08946221      -0.04730070
Ti       2.77108373       1.45903927       2.10589721
Ti       2.41098563       0.09674331       4.29211795
Ti       2.56530458       1.58895337       6.27056556
Ti       1.29365790       2.33789465      -0.10939655
V        1.68013071       3.64969746       2.11072181
Ti       1.25433263       2.39002704       4.24152719
Ti       1.50615580       3.85002343       6.28361861
Al       5.03118990       0.23661795      -0.05197370
Ti       5.30156113       1.65875092       2.00527607
Ti       5.02888127       0.27211844       4.14474892
Ti       5.28914871       1.72370673       6.25125924
Ti       3.75891434       2.49942608      -0.09346026
Ti       4.07433445       3.92317446       2.07190350
Ti       3.75839346       2.53067707       4.22535714
Al       3.96788844       3.97287410       6.23842660
