24
Lattice="9.191690585557687 0.09825506311373791 -0.008304893548992536 -3.009888097510991 5.27389328089922 0.012259626480616017 -0.010157302685734327 0.017848548082938735 9.133047960326286" Properties=species:S:1:pos:R:3 n_minim_iter=21 stress="0.0507310646488419 7.639180269488089e-06 2.9384146864185264e-05 7.639180269488089e-06 0.05076435779111708 1.7630833486705e-05 2.9384146864185264e-05 1.7630833486705e-05 0.05076197153431114" pbc="T T T"
Ti      -0.05311460       0.04022642       0.00690413
Ti       0.02913051       1.74881383       2.29583141
Ti       0.05400097      -0.00102570       4.56521322
Ti       0.03202521       1.78664911       6.82513134
Ti      -1.52478900       2.58418780       0.05007073
Al      -1.44070101       4.42023604       2.24648355
Ti      -1.51954987       2.67508163       4.53417169
Ti      -1.48779499       4.38500996       6.85083678
Ti       3.04589518       0.10896392      -0.01403579
Ti       3.14444751       1.81818541       2.31034781
Ti       3.02029330       0.01141634       4.56174052
Ti       3.10475137       1.84513763       6.80791640
Ti       1.55358178       2.66476332       0.03194465
V        1.49047206       4.44504947       2.26450687
Ti       1.52370614       2.69856518       4.53333182
Ti       1.64481667       4.46751050       6.86577466
Al       6.07654175       0.07137840       0.09239452
Ti       6.14476827       1.90454667       2.29411921
Ti       6.04278782       0.02623837       4.53922314
Ti       6.17084330       1.77732753       6.85469584
Ti       4.56012079       2.70511295      -0.02812637
Ti       4.68949192       4.41815471       2.30264961
Ti       4.61779002       2.71462549       4.61234045
Al       4.67928208       4.50047236       6.83904936
