4
Lattice="3.9321902899662327 0.0 0.0 0.0 3.9321902899662327 0.0 0.0 0.0 3.9321902899662327" Properties=species:S:1:pos:R:3 n_minim_iter=1 stress="-0.010510851010941813 1.1973666208506326e-17 -2.5908024211833247e-18 1.1973666208506326e-17 -0.010510851010941798 4.760800513818534e-19 -2.5908024211833247e-18 4.760800513818534e-19 -0.01051085101094181" pbc="T T T"
Al       0.00000000       0.00000000       0.00000000
Al       1.96609514       1.96609514       0.00000000
Al       1.96609514       0.00000000       1.96609514
Al       0.00000000       1.96609514       1.96609514
