4
Lattice="4.097599229036533 0.0 0.0 0.0 4.097599229036533 0.0 0.0 0.0 4.097599229036533" Properties=species:S:1:pos:R:3 n_minim_iter=1 stress="0.03128503785030516 -7.194646104894452e-18 -1.0446674298413109e-18 -7.194646104894452e-18 0.031285037850305175 -2.6474704211855345e-18 -1.0446674298413109e-18 -2.6474704211855345e-18 0.03128503785030515" pbc="T T T"
Al       0.00000000       0.00000000       0.00000000
Al       2.04879961       2.04879961       0.00000000
Al       2.04879961       0.00000000       2.04879961
Al       0.00000000       2.04879961       2.04879961
