4
Lattice="3.897390320749315 0.0 0.0 0.0 3.897390320749315 0.0 0.0 0.0 3.897390320749315" Properties=species:S:1:pos:R:3 n_minim_iter=1 stress="-0.030704175305809402 4.759460335770405e-18 2.52084669911331e-19 4.759460335770405e-18 -0.030704175305809406 2.2167779386602845e-18 2.52084669911331e-19 2.2167779386602845e-18 -0.030704175305809378" pbc="T T T"
Al       0.00000000       0.00000000       0.00000000
Al       1.94869516       1.94869516       0.00000000
Al       1.94869516       0.00000000       1.94869516
Al       0.00000000       1.94869516       1.94869516
