1
Lattice="2.670188072877273 6.80543890555666e-17 4.140001706886546e-50 1.3350940364386366 2.3124507039939326 4.1795600471063306e-50 -7.934370799694721e-50 -3.395755459176935e-50 2.4770638365660336" Properties=species:S:1:pos:R:3 cutoff=-1.0 nneightol=1.2 n_minim_iter=1 energy=-162.83538285530764 free_energy=-162.83538285530764 pbc="T T T"
Si       0.00000000       0.00000000       0.00000000
