1
Lattice="2.837498236972237 7.231857970038509e-17 4.399408290253626e-50 1.4187491184861187 2.4573455564115148 4.441445299470818e-50 -6.556855579840263e-49 -3.722701965526401e-49 2.6322731123392504" Properties=species:S:1:pos:R:3 cutoff=-1.0 nneightol=1.2 n_minim_iter=1 energy=-162.6768722219766 free_energy=-162.6768722219766 pbc="T T T"
Si       0.00000000       0.00000000       0.00000000
