1
Lattice="2.601691287453038 6.630862929741836e-17 4.033800645076318e-50 1.300845643726519 2.253130747738973 4.0723442181456916e-50 -3.0183144929246186e-49 -1.6519217219332011e-49 2.4135211551276563" Properties=species:S:1:pos:R:3 cutoff=-1.0 nneightol=1.2 n_minim_iter=1 energy=-162.81060360816375 free_energy=-162.81060360816375 pbc="T T T"
Si       0.00000000       0.00000000       0.00000000
1
Lattice="2.5937010859035046 5.731860425377722e-17 1.282324108955079e-49 1.2968505429517523 2.246211030215719 2.512301747546383e-49 -4.4767244958630706e-49 -2.0906660237636323e-49 2.4284143320602936" Properties=species:S:1:pos:R:3 cutoff=-1.0 nneightol=1.2 n_minim_iter=2 stress="-0.05095669441453573 -8.350065661687611e-17 1.5563692802995432e-17 -8.350065661687611e-17 -0.050956694414537866 -5.2720806033191367e-17 1.5563692802995432e-17 -5.2720806033191367e-17 -0.05120004811243333" pbc="T T T"
Si       0.00000000       0.00000000       0.00000000
