1
Lattice="2.438915388771755 4.8649684710100785e-17 1.4761686407583461e-49 1.2194576943858773 2.1121626843571395 1.7262745495251313e-49 -1.666641666001719e-48 -1.7188528085503962e-48 2.3010663256217074" Properties=species:S:1:pos:R:3 cutoff=-1.0 nneightol=1.2 n_minim_iter=1 stress="-0.21900973349780836 1.5240429246456258e-18 -2.7007458339068995e-17 1.5240429246456258e-18 -0.21900973349780575 -1.2220697684135158e-16 -2.7007458339068995e-17 -1.2220697684135158e-16 -0.23184352361631547" pbc="T T T"
Si       0.00000000       0.00000000       0.00000000
