1
Lattice="2.8176549427501096 7.181283882061197e-17 4.368642190747633e-50 1.4088274713750548 2.4401607595203827 4.410385225247501e-50 -4.889931772358306e-49 -2.742857119104518e-49 2.6138650058035164" Properties=species:S:1:pos:R:3 cutoff=-1.0 nneightol=1.2 n_minim_iter=1 stress="0.06900604809117807 5.387700302532114e-17 -2.2481835173256674e-18 5.387700302532114e-17 0.06900604809117772 1.5853522929348803e-17 -2.2481835173256674e-18 1.5853522929348803e-17 0.0797128681976346" pbc="T T T"
Si       0.00000000       0.00000000       0.00000000
