1
Lattice="2.837498236972237 7.231857970038512e-17 4.399408290253626e-50 1.4187491184861183 2.4573455564115148 4.441445299470816e-50 -5.740612313025481e-49 -3.242437808130387e-49 2.6322731123392504" Properties=species:S:1:pos:R:3 cutoff=-1.0 nneightol=1.2 n_minim_iter=1 stress="0.07398362970986101 1.0211012184788003e-16 4.972793383637198e-18 1.0211012184788003e-16 0.07398362970986072 2.7457154203069036e-17 4.972793383637198e-18 2.7457154203069036e-17 0.08452394168414722" pbc="T T T"
Si       0.00000000       0.00000000       0.00000000
