1
Lattice="2.8570678087328787 7.281734428696138e-17 4.429749995886666e-50 1.4285339043664393 2.4742933026974123 4.472076924673765e-50 -7.423949411105751e-49 -4.231953012175196e-49 2.6504272936861604" Properties=species:S:1:pos:R:3 cutoff=-1.0 nneightol=1.2 n_minim_iter=1 stress="0.08235308320610775 2.246353918737283e-17 -7.369024635451728e-18 2.246353918737283e-17 0.08235308320610726 6.9279133252008444e-18 -7.369024635451728e-18 6.9279133252008444e-18 0.09050765869971061" pbc="T T T"
Si       0.00000000       0.00000000       0.00000000
