1
Lattice="2.4648632446694956 4.916727339486608e-17 1.4918737412089406e-49 1.2324316223347476 2.134634186738322 1.7446405508457324e-49 -1.4028628113623884e-48 -1.5195350762027957e-48 2.3255475920499147" Properties=species:S:1:pos:R:3 cutoff=-1.0 nneightol=1.2 n_minim_iter=1 stress="-0.1747402705380116 1.0956783861920237e-16 -7.561143192040315e-19 1.0956783861920237e-16 -0.174740270538013 2.0483824283891034e-17 -7.561143192040315e-19 2.0483824283891034e-17 -0.18173387546990602" pbc="T T T"
Si       0.00000000       0.00000000       0.00000000
