2
Lattice="2.9987962484785107 0.0 0.0 0.0 2.9987962484785107 0.0 0.0 1.6414877257093592e-47 2.9987962484785107" Properties=species:S:1:pos:R:3 Minim_Constant_Volume=F n_minim_iter=1 energy=-3186.8022930454863 free_energy=-3186.8022930454863 pbc="T T T"
Ti       0.00000000       0.00000000       0.00000000
Ti       1.49939812       1.49939812       1.49939812
