2
Lattice="3.3640909782272583 0.0 0.0 0.0 3.3640909782272583 0.0 0.0 0.0 3.3640909782272583" Properties=species:S:1:pos:R:3 Minim_Constant_Volume=F n_minim_iter=1 stress="-0.00808992753981561 2.1933482201608853e-18 2.544742650579069e-20 2.1933482201608853e-18 -0.00808992753981561 -0.0 2.544742650579069e-20 -0.0 -0.00808992753981561" pbc="T T T"
Ti       0.00000000       0.00000000       0.00000000
Ti       1.68204549       1.68204549       1.68204549
