2
Lattice="3.2679209711556925 0.0 0.0 0.0 3.267920971155693 0.0 0.0 4.968308153162365e-32 3.2679209711556925" Properties=species:S:1:pos:R:3 Minim_Constant_Volume=F n_minim_iter=1 stress="0.060405248546331024 2.0425918351570222e-19 -1.271854798263756e-18 2.0425918351570222e-19 0.06040524854633084 4.577647533495608e-19 -1.271854798263756e-18 4.577647533495608e-19 0.06040524854633104" pbc="T T T"
Ti       0.00000000       0.00000000       0.00000000
Ti       1.63396049       1.63396049       1.63396049
