2
Lattice="2.9078670820125843 0.0 0.0 0.0 2.9078670820125843 0.0 0.0 -1.0380519657785307e-33 2.9078670820125843" Properties=species:S:1:pos:R:3 Minim_Constant_Volume=F n_minim_iter=1 stress="-0.3726027400583792 -6.5613312549409814e-18 2.624044818553072e-18 -6.5613312549409814e-18 -0.3726027400583792 -1.6650167444413398e-17 2.624044818553072e-18 -1.6650167444413398e-17 -0.37260274005837923" pbc="T T T"
Ti       0.00000000       0.00000000       0.00000000
Ti       1.45393354       1.45393354       1.45393354
