2
Lattice="3.139126777195372 0.0 0.0 0.0 3.139126777195372 0.0 0.0 0.0 3.139126777195372" Properties=species:S:1:pos:R:3 Minim_Constant_Volume=F n_minim_iter=1 stress="-0.022026274694886338 1.1764416157878365e-19 -3.1487821418042657e-19 1.1764416157878365e-19 -0.022026274694886327 1.6823832815411196e-19 -3.1487821418042657e-19 1.6823832815411196e-19 -0.02202627469488631" pbc="T T T"
Ti       0.00000000       0.00000000       0.00000000
Ti       1.56956339       1.56956339       1.56956339
