2
Lattice="2.876257327600344 0.0 0.0 0.0 2.8762573276003445 0.0 0.0 0.0 2.876257327600344" Properties=species:S:1:pos:R:3 Minim_Constant_Volume=F n_minim_iter=1 stress="-0.4264499591585689 -4.957422736274504e-18 2.9161310213379438e-18 -4.957422736274504e-18 -0.4264499591585689 -1.4580655106689719e-18 2.9161310213379438e-18 -1.4580655106689719e-18 -0.4264499591585688" pbc="T T T"
Ti       0.00000000       0.00000000       0.00000000
Ti       1.43812866       1.43812866       1.43812866
