2
Lattice="2.7671254019645253 1.862838059149509e-17 2.767125401964525 2.7671254019645253 2.767125401964525 1.301547847607945e-16 -2.0965506319678577e-16 2.767125401964525 2.767125401964525" Properties=species:S:1:pos:R:3 n_minim_iter=1 energy=-326.3362348141934 free_energy=-326.3362348141934 pbc="T T T"
Si       0.00000000      -0.00000000      -0.00000000
Si       1.38356270       1.38356270       1.38356270
