2
Lattice="2.9164058992411697 1.963334188315998e-17 2.9164058992411697 2.9164058992411697 2.9164058992411697 1.3717635703150986e-16 -2.209655054587675e-16 2.9164058992411697 2.9164058992411697" Properties=species:S:1:pos:R:3 n_minim_iter=1 stress="0.06147752620572053 3.7410209422381876e-17 5.1633454379458695e-18 3.7410209422381876e-17 0.06147752620572051 9.35623296115419e-17 5.1633454379458695e-18 9.35623296115419e-17 0.061477526205720556" pbc="T T T"
Si       0.00000000      -0.00000000      -0.00000000
Si       1.45820295       1.45820295       1.45820295
