2
Lattice="2.5477152208187843 1.715130392661754e-17 2.5477152208187843 2.5477152208187843 2.5477152208187843 1.198345857264189e-16 -1.964104476899509e-16 2.5477152208187843 2.5477152208187843" Properties=species:S:1:pos:R:3 n_minim_iter=1 stress="-0.17823400588155344 2.89505904069787e-16 2.234905422747455e-16 2.89505904069787e-16 -0.17823400588155344 -2.0602460691274357e-16 2.234905422747455e-16 -2.0602460691274357e-16 -0.17823400588155344" pbc="T T T"
Si       0.00000000      -0.00000000      -0.00000000
Si       1.27385761       1.27385761       1.27385761
