2
Lattice="2.721379389181326 1.8320416906125487e-17 2.721379389181326 2.721379389181326 2.721379389181326 1.2800307076791413e-16 -2.0979870112466062e-16 2.721379389181326 2.721379389181326" Properties=species:S:1:pos:R:3 n_minim_iter=1 stress="-0.004100682335390856 -1.6228672758424992e-17 -2.1367767526130488e-17 -1.6228672758424992e-17 -0.004100682335390829 5.3709062494564506e-17 -2.1367767526130488e-17 5.3709062494564506e-17 -0.004100682335390972" pbc="T T T"
Si       0.00000000      -0.00000000      -0.00000000
Si       1.36068969       1.36068969       1.36068969
