2
Lattice="2.7894418931398923 1.8778615955163948e-17 2.789441893139892 2.7894418931398923 2.789441893139892 1.312044654523468e-16 -2.113459028545694e-16 2.789441893139892 2.789441893139892" Properties=species:S:1:pos:R:3 n_minim_iter=1 stress="0.018189489955776964 -2.824449989109724e-16 6.494456231530379e-17 -2.824449989109724e-16 0.01818948995577661 9.759329648402575e-17 6.494456231530379e-17 9.759329648402575e-17 0.018189489955776753" pbc="T T T"
Si       0.00000000      -0.00000000      -0.00000000
Si       1.39472095       1.39472095       1.39472095
