2
Lattice="2.8960107851312333 1.9496041294044237e-17 2.8960107851312333 2.8960107851312333 2.8960107851312333 1.3621705042210718e-16 -2.1942024157785025e-16 2.8960107851312333 2.8960107851312333" Properties=species:S:1:pos:R:3 n_minim_iter=1 stress="0.06147752620572053 3.7410209422381876e-17 5.1633454379458695e-18 3.7410209422381876e-17 0.06147752620572051 9.35623296115419e-17 5.1633454379458695e-18 9.35623296115419e-17 0.061477526205720556" pbc="T T T"
Si       0.00000000      -0.00000000      -0.00000000
Si       1.44800539       1.44800539       1.44800539
