2
Lattice="2.875324287643392 1.935677910230008e-17 2.875324287643392 2.875324287643392 2.875324287643392 1.352440382752514e-16 -2.178529006344097e-16 2.875324287643392 2.875324287643392" Properties=species:S:1:pos:R:3 n_minim_iter=1 stress="0.05452756580012651 -1.2008078350105835e-16 -1.3240786519658054e-18 -1.2008078350105835e-16 0.05452756580012655 4.5951086800905156e-17 -1.3240786519658054e-18 4.5951086800905156e-17 0.05452756580012663" pbc="T T T"
Si      -0.00000000      -0.00000000      -0.00000000
Si       1.43766214       1.43766214       1.43766214
