2
Lattice="2.520895174083433 1.6970750476559543e-17 2.520895174083433 2.520895174083433 2.520895174083433 1.1857307534903019e-16 -1.9434281574140725e-16 2.520895174083433 2.520895174083433" Properties=species:S:1:pos:R:3 n_minim_iter=1 stress="-0.17823400588155344 2.89505904069787e-16 2.234905422747455e-16 2.89505904069787e-16 -0.17823400588155344 -2.0602460691274357e-16 2.234905422747455e-16 -2.0602460691274357e-16 -0.17823400588155344" pbc="T T T"
Si       0.00000000      -0.00000000      -0.00000000
Si       1.26044759       1.26044759       1.26044759
