2
Lattice="4.600402248063169 -2.272713956392522e-17 8.617569537422948e-17 -2.2727139563925206e-17 4.600402248063169 -2.5055394373861746e-16 2.3002011240315845 2.3002011240315845 1.2687440145531348" Properties=species:S:1:pos:R:3:forces:R:3 cutoff=-1.0 nneightol=1.2 n_minim_iter=1 energy=-325.5842244426876 stress="-0.0939584240634521 -1.2342203445884092e-17 3.73743890033348e-17 -1.2342203445884092e-17 -0.09395842406345174 -6.022775937518666e-17 3.73743890033348e-17 -6.022775937518666e-17 -0.08402323705080225" free_energy=-325.5842244426876 pbc="T T T"
Si      -0.00000000      -1.15010056      -0.31718600       0.00000000       0.00000000       0.00000000
Si      -0.00000000       1.15010056       0.31718600      -0.00000000      -0.00000000      -0.00000000
