2
Lattice="4.398864000357269 -1.2083124435167619e-17 -2.0566772908733015e-16 -1.2083124435167283e-17 4.398864000357273 3.704221965176857e-16 2.1994320001786347 2.1994320001786365 1.1894269118907677" Properties=species:S:1:pos:R:3:forces:R:3 cutoff=-1.0 nneightol=1.2 n_minim_iter=2 energy=-324.6461292167205 stress="-0.3517097883475826 1.0941222031836015e-16 1.875265943049435e-17 1.0941222031836015e-16 -0.3517097883475809 -2.211585014709137e-16 1.875265943049435e-17 -2.211585014709137e-16 -0.3482939560286415" free_energy=-324.6461292167205 pbc="T T T"
Si      -0.00000000      -1.09971600      -0.29735673      -0.00000000      -0.00000000       0.00000000
Si      -0.00000000       1.09971600       0.29735673       0.00000000       0.00000000      -0.00000000
