2
Lattice="2.5732064617935837 -3.161204487317482e-17 2.5732064617935837 2.5732064617935837 2.5732064617935837 1.434200297885838e-16 -7.956956434201215e-17 2.5732064617935837 2.5732064617935837" Properties=species:S:1:pos:R:3 n_minim_iter=1 energy=-325.9463419884469 free_energy=-325.9463419884469 pbc="T T T"
Si       0.00000000       0.00000000       0.00000000
Si       1.28660323       1.28660323       1.28660323
