2
Lattice="2.9155269875723717 -3.5817479603190645e-17 2.9155269875723717 2.9155269875723717 2.9155269875723717 1.6249957926640403e-16 -9.015491592804894e-17 2.9155269875723717 2.9155269875723717" Properties=species:S:1:pos:R:3 n_minim_iter=1 energy=-325.98202837154884 free_energy=-325.98202837154884 pbc="T T T"
Si       0.00000000       0.00000000       0.00000000
Si       1.45776349       1.45776349       1.45776349
