2
Lattice="2.7662914786737223 -3.3984109574776004e-17 2.7662914786737223 2.7662914786737223 2.7662914786737223 1.5418180086441748e-16 -8.554020482587513e-17 2.7662914786737223 2.7662914786737223" Properties=species:S:1:pos:R:3 n_minim_iter=1 stress="0.019909313548046714 -9.518218125664613e-17 7.179637413127774e-17 -9.518218125664613e-17 0.019909313548046655 3.605696061379621e-18 7.179637413127774e-17 3.605696061379621e-18 0.019909313548046884" pbc="T T T"
Si       0.00000000       0.00000000       0.00000000
Si       1.38314574       1.38314574       1.38314574
