2
Lattice="2.8744577566613208 -3.5312940853679654e-17 2.8744577566613208 2.8744577566613208 2.8744577566613208 1.6021054789324651e-16 -8.888495921840499e-17 2.8744577566613208 2.8744577566613208" Properties=species:S:1:pos:R:3 n_minim_iter=1 stress="0.05591565833811382 -1.1528029468160382e-16 4.2296817964461504e-17 -1.1528029468160382e-16 0.055915658338113995 5.823745456713146e-17 4.2296817964461504e-17 5.823745456713146e-17 0.05591565833811425" pbc="T T T"
Si       0.00000000       0.00000000       0.00000000
Si       1.43722888       1.43722888       1.43722888
