2
Lattice="2.5989402335596568 -3.1928186294356436e-17 2.5989402335596568 2.5989402335596568 2.5989402335596568 1.4485432523594183e-16 -8.036531277444688e-17 2.5989402335596568 2.5989402335596568" Properties=species:S:1:pos:R:3 n_minim_iter=1 stress="-0.11219271781074971 -2.2097212318522798e-16 4.664266723249898e-17 -2.2097212318522798e-16 -0.11219271781074967 1.1621139124029407e-16 4.664266723249898e-17 1.1621139124029407e-16 -0.11219271781075084" pbc="T T T"
Si       0.00000000       0.00000000       0.00000000
Si       1.29947012       1.29947012       1.29947012
