2
Lattice="2.6241742411354103 -3.223818807293845e-17 2.6241742411354103 2.6241742411354103 2.6241742411354103 1.462607658663129e-16 -8.11456073288163e-17 2.6241742411354103 2.6241742411354103" Properties=species:S:1:pos:R:3 n_minim_iter=1 stress="-0.061176723455730046 -1.4315443307308712e-16 4.0668222480172317e-17 -1.4315443307308712e-16 -0.061176723455729866 8.362301168613746e-17 4.0668222480172317e-17 8.362301168613746e-17 -0.06117672345572914" pbc="T T T"
Si       0.00000000       0.00000000       0.00000000
Si       1.31208712       1.31208712       1.31208712
