2
Lattice="2.648932064037806 -3.254233988515142e-17 2.648932064037806 2.648932064037806 2.648932064037806 1.476406659057707e-16 -8.191117713895396e-17 2.648932064037806 2.648932064037806" Properties=species:S:1:pos:R:3 n_minim_iter=1 stress="-0.040532066403691135 -1.8730403555248926e-16 7.52107667545114e-17 -1.8730403555248926e-16 -0.0405320664036912 -9.661847971844266e-17 7.52107667545114e-17 -9.661847971844266e-17 -0.04053206640369095" pbc="T T T"
Si      -0.00000000       0.00000000       0.00000000
Si       1.32446603       1.32446603       1.32446603
