20
Lattice="5.732326229652146 -3.5077313778205574e-16 -2.1959361065652533e-15 1.6836260413851472e-16 2.7513776508028904 9.003088552926442e-14 1.7042591003685536e-14 -1.4557544857881692e-12 44.48840343741476" Properties=species:S:1:pos:R:3 unique_starting_index=4 config_type=initial n_minim_iter=1 energy=-3247.4083375943515 free_energy=-3247.4083375943515 pbc="T T T"
Si       3.63701291       0.91708649      28.01679983
Si       3.63701291       1.83429117      16.47160361
Si       1.70832716       0.96309146      24.63616035
Si       1.70832716       1.78828619      19.85224308
Si       2.09531332      -0.45860234      38.71580532
Si       2.09531332       3.20997999       5.77259811
Si       4.02399907       2.33878029      42.09644480
Si       4.02399907       0.41259736       2.39195863
Si       2.70214118       1.81738997       9.10144459
Si       2.70214118       0.93398768      35.38695884
Si       2.27640956       2.31029870      36.77989891
Si       2.27640956       0.44107895       7.70850453
Si       3.03018505       0.44170114      13.14275712
Si       3.03018505       2.30967651      31.34564631
Si       3.45591667       0.93460988      29.95270625
Si       3.45591667       1.81676777      14.53569719
Si       5.87927081       1.93586717      42.06986375
Si       5.87927081       0.81551048       2.41853969
Si      -0.14694458       2.19119931      19.82566203
Si      -0.14694458       0.56017834      24.66274141
20
Lattice="5.731280481580304 -3.507091462509051e-16 -2.1955355020187994e-15 1.683348840262814e-16 2.7509246493916395 8.98632872142537e-14 1.703993171168821e-14 -1.457998185407538e-12 44.481461555443246" Properties=species:S:1:pos:R:3 unique_starting_index=4 config_type=initial n_minim_iter=2 stress="0.00016119882735468269 7.234641638470219e-17 -2.1134018790717162e-17 7.234641638470219e-17 -0.00014600192721001023 -1.9372850558157396e-17 -2.1134018790717162e-17 -1.9372850558157396e-17 -0.00019683185623674414" pbc="T T T"
Si       3.63632439       0.91692012      28.01242274
Si       3.63632439       1.83400453      16.46903882
Si       1.70799365       0.96292540      24.63233157
Si       1.70799365       1.78799925      19.84912999
Si       2.09495609      -0.45854220      38.70976960
Si       2.09495609       3.20946685       5.77169196
Si       4.02328683       2.33838773      42.08986077
Si       4.02328683       0.41253692       2.39160079
Si       2.70163180       1.81709439       9.10000648
Si       2.70163180       0.93383026      35.38145508
Si       2.27599008       2.30991237      36.77417595
Si       2.27599008       0.44101228       7.70728561
Si       3.02964869       0.44163206      13.14072430
Si       3.02964869       2.30929259      31.34073725
Si       3.45529040       0.93445005      29.94801638
Si       3.45529040       1.81647460      14.53344517
Si       5.87817758       1.93556218      42.06331037
Si       5.87817758       0.81536247       2.41815118
Si      -0.14689710       2.19082480      19.82257959
Si      -0.14689710       0.56009985      24.65888196
20
Lattice="5.729725035604541 -3.5061396522949943e-16 -2.194939642703899e-15 1.6834334097159046e-16 2.7510628525896497 8.986764292676916e-14 1.7041752027845997e-14 -1.458156201060727e-12 44.48621335401626" Properties=species:S:1:pos:R:3 unique_starting_index=4 config_type=initial n_minim_iter=3 stress="-0.0002220899841875876 1.5183402425792667e-16 -1.1589416658686373e-16 1.5183402425792667e-16 3.0013316540028678e-05 7.892519404856772e-17 -1.1589416658686373e-16 7.892519404856772e-17 9.815780611413137e-05" pbc="T T T"
Si       3.63525473       0.91691361      28.01537209
Si       3.63525473       1.83414924      16.47084127
Si       1.70748667       0.96295445      24.63501212
Si       1.70748667       1.78810841      19.85120124
Si       2.09447031      -0.45861781      38.71394794
Si       2.09447031       3.20968066       5.77226541
Si       4.02223836       2.33848587      42.09430791
Si       4.02223836       0.41257698       2.39190544
Si       2.70085888       1.81719865       9.10097010
Si       2.70085888       0.93386421      35.38524325
Si       2.27534393       2.31000861      36.77818377
Si       2.27534393       0.44105424       7.70802958
Si       3.02886615       0.44166722      13.14213658
Si       3.02886615       2.30939563      31.34407678
Si       3.45438110       0.93447718      29.95113626
Si       3.45438110       1.81658567      14.53507710
Si       5.87654304       1.93569992      42.06784411
Si       5.87654304       0.81536293       2.41836924
Si      -0.14681800       2.19089436      19.82473743
Si      -0.14681800       0.56016850      24.66147592
20
Lattice="5.7328112259734345 -3.5080281573034664e-16 -2.196121898666186e-15 1.683708337681057e-16 2.751512139212871 8.986831404110078e-14 1.7034325348816213e-14 -1.4577502029787023e-12 44.46682656636136" Properties=species:S:1:pos:R:3 unique_starting_index=4 config_type=initial n_minim_iter=4 stress="-0.0001610785754980824 2.0181117155533242e-16 -6.829923178519681e-17 2.0181117155533242e-16 0.0008166056906488714 7.110875985979066e-17 -6.829923178519681e-17 7.110875985979066e-17 -0.0007839029571788266" pbc="T T T"
Si       3.63433186       0.91524291      28.00195485
Si       3.63433186       1.83626923      16.46487172
Si       1.70795447       0.96269888      24.62588287
Si       1.70795447       1.78881326      19.84094369
Si       2.09847936      -0.46051316      38.69828500
Si       2.09847936       3.21202530       5.76854157
Si       4.02485676       2.33845495      42.07435698
Si       4.02485676       0.41305719       2.39246959
Si       2.70079958       1.81794875       9.09627090
Si       2.70079958       0.93356339      35.37055566
Si       2.27570977       2.30970287      36.76465066
Si       2.27570977       0.44180927       7.70217591
Si       3.03201164       0.44219268      13.13714238
Si       3.03201164       2.30931946      31.32968419
Si       3.45710145       0.93394680      29.93558919
Si       3.45710145       1.81756534      14.53123737
Si       5.87940442       1.93716235      42.05097103
Si       5.87940442       0.81434979       2.41585553
Si      -0.14659319       2.19010586      19.81755775
Si      -0.14659319       0.56140628      24.64926881
20
Lattice="5.736911162478089 -3.5105369949634907e-16 -2.197692499892364e-15 1.6819736749014013e-16 2.748677357446435 8.979724987321394e-14 1.7046362139859203e-14 -1.4584201030625595e-12 44.4982477050775" Properties=species:S:1:pos:R:3 unique_starting_index=4 config_type=initial n_minim_iter=5 stress="0.00010170612556985614 1.6233523410733191e-16 6.536129162742574e-16 1.6233523410733191e-16 -0.0004893289582649828 -3.558005435661429e-17 6.536129162742574e-16 -3.558005435661429e-17 0.0002940371089274957" pbc="T T T"
Si       3.63415537       0.91252697      28.02033310
Si       3.63415537       1.83615039      16.47791460
Si       1.70876423       0.96131907      24.64482547
Si       1.70876423       1.78735829      19.85342223
Si       2.10275579      -0.46181171      38.72703845
Si       2.10275579       3.21048906       5.77120925
Si       4.02814693       2.33565775      42.10254608
Si       4.02814693       0.41301961       2.39570162
Si       2.70119992       1.81653034       9.10178943
Si       2.70119992       0.93214701      35.39645827
Si       2.27657798       2.30667381      36.79260841
Si       2.27657798       0.44200355       7.70563930
Si       3.03571125       0.44219166      13.14733442
Si       3.03571125       2.30648569      31.35091328
Si       3.46033318       0.93233513      29.95476315
Si       3.46033318       1.81634223      14.54348455
Si       5.88335208       1.93626696      42.08210842
Si       5.88335208       0.81241039       2.41613929
Si      -0.14644092       2.18674907      19.83298456
Si      -0.14644092       0.56192828      24.66526314
20
Lattice="5.747255287212284 -3.5168667831598673e-16 -2.201655121014156e-15 1.6827255209987836e-16 2.749906022540899 8.985226221342689e-14 1.7048839160534543e-14 -1.4583929547053619e-12 44.50471378145653" Properties=species:S:1:pos:R:3 unique_starting_index=4 config_type=initial n_minim_iter=6 stress="3.649715400419359e-05 2.4560401914950673e-16 -2.243741087538713e-16 2.4560401914950673e-16 -0.00021789710341234942 2.1879040555501926e-16 -2.243741087538713e-16 2.1879040555501926e-16 0.00015767998104687688" pbc="T T T"
Si       3.62816380       0.90477732      28.01663749
Si       3.62816380       1.84512870      16.48807630
Si       1.71031871       0.95993504      24.65534681
Si       1.71031871       1.78997099      19.84936697
Si       2.11909149      -0.47017569      38.74043319
Si       2.11909149       3.22008172       5.76428059
Si       4.03693658       2.33488805      42.10172386
Si       4.03693658       0.41501797       2.40298992
Si       2.69833357       1.81962022       9.09674980
Si       2.69833357       0.93028580      35.40796399
Si       2.27801165       2.30487987      36.80346968
Si       2.27801165       0.44502615       7.70124411
Si       3.04892172       0.44466721      13.15560709
Si       3.04892172       2.30523881      31.34910669
Si       3.46924364       0.92992686      29.95360100
Si       3.46924364       1.81997916      14.55111278
Si       5.89327448       1.94222045      42.09465860
Si       5.89327448       0.80768557       2.41005518
Si      -0.14601920       2.18263858      19.84230171
Si      -0.14601920       0.56726744      24.66241207
20
Lattice="5.7508408308187455 -3.519060852951268e-16 -2.2030286689162917e-15 1.6830544262306045e-16 2.750443518684235 8.98746573734555e-14 1.705006341330333e-14 -1.458420051847285e-12 44.507909601333665" Properties=species:S:1:pos:R:3 unique_starting_index=4 config_type=initial n_minim_iter=7 stress="8.360591838783878e-05 1.605412839452706e-16 -7.214895619347867e-17 1.605412839452706e-16 3.6120663924926375e-05 1.940728070286332e-16 -7.214895619347867e-17 1.940728070286332e-16 8.2090436136187e-05" pbc="T T T"
Si       3.62147316       0.89879499      28.01281201
Si       3.62147316       1.85164853      16.49509759
Si       1.71090360       0.95897415      24.66163691
Si       1.71090360       1.79146937      19.84627269
Si       2.12936767      -0.47642677      38.74905239
Si       2.12936767       3.22687029       5.75885721
Si       4.03993724       2.33419591      42.10022750
Si       4.03993724       0.41624761       2.40768211
Si       2.69415295       1.82231569       9.09316710
Si       2.69415295       0.92812782      35.41474250
Si       2.27750323       2.30366855      36.81039437
Si       2.27750323       0.44677497       7.69751523
Si       3.05668788       0.44709394      13.16078770
Si       3.05668788       2.30334958      31.34712191
Si       3.47333760       0.92844679      29.95147003
Si       3.47333760       1.82199673      14.55643957
Si       5.89765864       1.94620106      42.10217267
Si       5.89765864       0.80424246       2.40573694
Si      -0.14681781       2.17946422      19.84821787
Si      -0.14681781       0.57097930      24.65969174
20
Lattice="5.745250856001809 -3.5156402294066485e-16 -2.20088726470385e-15 1.6828516392253387e-16 2.7501121246451508 8.986915355967469e-14 1.705148613892828e-14 -1.4584548010356922e-12 44.51162351969101" Properties=species:S:1:pos:R:3 unique_starting_index=4 config_type=initial n_minim_iter=8 stress="-5.7351809817905415e-05 5.1936573740220793e-17 5.319157605400424e-16 5.1936573740220793e-17 9.18470468155015e-05 -4.65890009880932e-17 5.319157605400424e-16 -4.65890009880932e-17 -0.0001508419285361941" pbc="T T T"
Si       3.61140017       0.89307672      28.01038768
Si       3.61140017       1.85703541      16.50123584
Si       1.70961891       0.95835451      24.66566207
Si       1.70961891       1.79175761      19.84596145
Si       2.13385068      -0.48197935      38.75704760
Si       2.13385068       3.23209147       5.75457592
Si       4.03563194       2.33341058      42.10177321
Si       4.03563194       0.41670155       2.40985031
Si       2.68598867       1.82498568       9.09122079
Si       2.68598867       0.92512644      35.42040273
Si       2.27399538       2.30224358      36.81739173
Si       2.27399538       0.44786854       7.69423179
Si       3.05926219       0.44992962      13.16459097
Si       3.05926219       2.30018250      31.34703255
Si       3.47125547       0.92718752      29.95004355
Si       3.47125547       1.82292461      14.56157997
Si       5.89502521       1.94866062      42.10868003
Si       5.89502521       0.80145151       2.40294349
Si      -0.14977436       2.17650757      19.85286827
Si      -0.14977436       0.57360456      24.65875525
20
Lattice="5.732089274637339 -3.5075863800470167e-16 -2.19584533397977e-15 1.6820375722011914e-16 2.7487817782609563 8.98947210110966e-14 1.7060909283379252e-14 -1.4581406247767768e-12 44.536221930337256" Properties=species:S:1:pos:R:3 unique_starting_index=4 config_type=initial n_minim_iter=9 stress="-7.44574093998322e-05 1.6644064427916366e-16 1.6948625492780805e-15 1.6644064427916366e-16 -0.00012050378154211262 -1.2734212315987818e-16 1.6948625492780805e-15 -1.2734212315987818e-16 1.4103703583622196e-05" pbc="T T T"
Si       3.60735314       0.89213499      28.02819163
Si       3.60735314       1.85664679      16.50803030
Si       1.70550859       0.95918440      24.67314288
Si       1.70550859       1.78959737      19.86307905
Si       2.12473613      -0.48225590      38.77614126
Si       2.12473613       3.23103768       5.76008067
Si       4.02658068       2.33357529      42.13119001
Si       4.02658068       0.41520649       2.40503192
Si       2.67833023       1.82493281       9.09835055
Si       2.67833023       0.92384896      35.43787138
Si       2.27045328       2.30044776      36.83752777
Si       2.27045328       0.44833401       7.69869416
Si       3.05375905       0.45054193      13.16976042
Si       3.05375905       2.29823985      31.36646151
Si       3.46163599       0.92605688      29.96680512
Si       3.46163599       1.82272490      14.56941681
Si       5.88651523       1.94642229      42.12888727
Si       5.88651523       0.80235949       2.40733466
Si      -0.15442596       2.17675037      19.86077630
Si      -0.15442596       0.57203140      24.67544563
20
Lattice="5.734729760408632 -3.5092021490073975e-16 -2.1968568496911698e-15 1.682172068099151e-16 2.7490015711357803 9.009425535844621e-14 1.71185168929209e-14 -1.4599524083224746e-12 44.68660226709509" Properties=species:S:1:pos:R:3 unique_starting_index=4 config_type=initial n_minim_iter=10 stress="0.00042009638066010826 1.7650742232302714e-17 9.321798241434871e-17 1.7650742232302714e-17 0.00018798396540052137 1.1035653793008906e-16 9.321798241434871e-17 1.1035653793008906e-16 0.0012476173747548833" pbc="T T T"
Si       3.59041336       0.86217823      28.11196674
Si       3.59041336       1.88682334      16.57463553
Si       1.69106401       0.95943685      24.74672607
Si       1.69106401       1.78956472      19.93987619
Si       2.14431640      -0.51232255      38.91793666
Si       2.14431640       3.26132412       5.76866560
Si       4.04366575       2.33393764      42.28317733
Si       4.04366575       0.41506393       2.40342494
Si       2.64437504       1.83594042       9.11762756
Si       2.64437504       0.91306115      35.56897471
Si       2.27266331       2.28566649      36.97784335
Si       2.27266331       0.46333508       7.70875892
Si       3.09035472       0.46143964      13.22567357
Si       3.09035472       2.28756193      31.46092870
Si       3.46206646       0.91116571      30.05206005
Si       3.46206646       1.83783586      14.63454222
Si       5.90587263       1.95700648      42.27571684
Si       5.90587263       0.79199509       2.41088542
Si      -0.17114287       2.16649588      19.93241571
Si      -0.17114287       0.58250569      24.75418656
20
Lattice="5.738877791781998 -3.511740416932427e-16 -2.198445875070918e-15 1.68319904223037e-16 2.750679849805231 9.025399775853796e-14 1.7106386560336058e-14 -1.4572186872894916e-12 44.65493694521129" Properties=species:S:1:pos:R:3 unique_starting_index=4 config_type=initial n_minim_iter=11 stress="-0.0005964577956091315 2.63020862661134e-17 -1.7694846658669703e-16 2.63020862661134e-17 1.6529602807926524e-05 1.442480434669258e-16 -1.7694846658669703e-16 1.442480434669258e-16 -0.0015405955183971612" pbc="T T T"
Si       3.59162127       0.84966460      28.08968649
Si       3.59162127       1.90101525      16.56525046
Si       1.67920344       0.96142450      24.71749291
Si       1.67920344       1.78925535      19.93744404
Si       2.14725653      -0.52567533      38.89271893
Si       2.14725653       3.27635518       5.76221801
Si       4.05967435       2.33676442      42.26491251
Si       4.05967435       0.41391542       2.39002443
Si       2.62859325       1.84622598       9.11132370
Si       2.62859325       0.90445387      35.54361325
Si       2.27793015       2.28203251      36.95617579
Si       2.27793015       0.46864734       7.69876115
Si       3.11028455       0.47088605      13.21614477
Si       3.11028455       2.27979380      31.43879217
Si       3.46094764       0.90669259      30.02622963
Si       3.46094764       1.84398726      14.62870732
Si       5.91903169       1.96069566      42.24332613
Si       5.91903169       0.78998419       2.41161081
Si      -0.18015389       2.16532411      19.91585766
Si      -0.18015389       0.58535574      24.73907928
20
Lattice="5.751662584705906 -3.5195637014946623e-16 -2.2033434659043484e-15 1.682364797139546e-16 2.7493165284727232 9.036770682758199e-14 1.710996946609592e-14 -1.4549686635978303e-12 44.6642898515205" Properties=species:S:1:pos:R:3 unique_starting_index=4 config_type=initial n_minim_iter=12 stress="0.00011062298573326991 -5.0458772962773205e-17 1.8470111598522904e-17 -5.0458772962773205e-17 0.00031393076854808994 1.0892453579405501e-16 1.8470111598522904e-17 1.0892453579405501e-16 0.0014592852878449192" pbc="T T T"
Si       3.58687655       0.82695092      28.08280092
Si       3.58687655       1.92236561      16.58148893
Si       1.66819353       0.96130810      24.71616397
Si       1.66819353       1.78800843      19.94812588
Si       2.16478603      -0.54770735      38.91363386
Si       2.16478603       3.29702388       5.75065599
Si       4.08346905       2.33596636      42.28027081
Si       4.08346905       0.41335017       2.38401904
Si       2.60705224       1.85833082       9.11190565
Si       2.60705224       0.89098571      35.55238420
Si       2.28469331       2.27234920      36.97387440
Si       2.28469331       0.47696733       7.69041545
Si       3.14461035       0.48367256      13.22023928
Si       3.14461035       2.26564397      31.44405058
Si       3.46696927       0.89769093      30.02256038
Si       3.46696927       1.85162560      14.64172947
Si       5.94443097       1.96618754      42.25564511
Si       5.94443097       0.78312899       2.40864475
Si      -0.19276839       2.15778725      19.92350018
Si      -0.19276839       0.59152928      24.74078967
20
Lattice="5.766486431073787 -3.52863472588536e-16 -2.2090221761126076e-15 1.6827634868536775e-16 2.74996806625018 9.031757722255849e-14 1.7052825701764675e-14 -1.4512234777659372e-12 44.51512034783694" Properties=species:S:1:pos:R:3 unique_starting_index=4 config_type=initial n_minim_iter=13 stress="0.0004117946322228708 -1.3211223474514201e-17 1.0997557160183399e-15 -1.3211223474514201e-17 -0.0007300922811068717 -5.2903872574282316e-17 1.0997557160183399e-15 -5.2903872574282316e-17 -0.00047629121243580283" pbc="T T T"
Si       3.59856890       0.82797937      27.98556287
Si       3.59856890       1.92198870      16.52955747
Si       1.66772841       0.96199159      24.63403125
Si       1.66772841       1.78797648      19.88108910
Si       2.16791754      -0.54700466      38.78711765
Si       2.16791754       3.29697273       5.72800270
Si       4.09875802       2.33697562      42.13864927
Si       4.09875802       0.41299244       2.37647108
Si       2.61254512       1.85907765       9.08881112
Si       2.61254512       0.89089042      35.42630923
Si       2.29228196       2.27070082      36.84623091
Si       2.29228196       0.47926725       7.66888944
Si       3.15394131       0.48409361      13.16874906
Si       3.15394131       2.26587445      31.34637129
Si       3.47420447       0.89571679      29.92644962
Si       3.47420447       1.85425128      14.58867073
Si       5.95893408       1.96416185      42.11449607
Si       5.95893408       0.78580622       2.40062427
Si      -0.19244765       2.16079025      19.85693590
Si      -0.19244765       0.58917782      24.65818445
20
Lattice="5.765915808581009 -3.5282855499413163e-16 -2.208803582389063e-15 1.6830164798578014e-16 2.7503815068125417 9.033254027034174e-14 1.704568147774091e-14 -1.4505869649374753e-12 44.496470887754974" Properties=species:S:1:pos:R:3 unique_starting_index=4 config_type=initial n_minim_iter=14 stress="0.00015686027473762397 -6.1360378996504066e-18 -4.900963604464363e-17 -6.1360378996504066e-18 -4.768971471874323e-05 2.0213524850194511e-16 -4.900963604464363e-17 2.0213524850194511e-16 -9.50942359991335e-05" pbc="T T T"
Si       3.59439922       0.81880687      27.96958547
Si       3.59439922       1.93157464      16.52688542
Si       1.66045054       0.96291203      24.61943082
Si       1.66045054       1.78746948      19.87704007
Si       2.17151659      -0.55638388      38.77512087
Si       2.17151659       3.30676539       5.72135002
Si       4.10546526       2.33810278      42.12527552
Si       4.10546526       0.41227872       2.37119537
Si       2.59945938       1.86377929       9.08630873
Si       2.59945938       0.88660222      35.41016216
Si       2.29388734       2.26496562      36.83428097
Si       2.29388734       0.48541589       7.66218992
Si       3.16645643       0.48858854      13.16192672
Si       3.16645643       2.26179297      31.33454417
Si       3.47202846       0.88977486      29.91042536
Si       3.47202846       1.86060664      14.58604553
Si       5.96531462       1.96571793      42.09788764
Si       5.96531462       0.78466358       2.39858324
Si      -0.19939881       2.15985433      19.84965220
Si      -0.19939881       0.59052717      24.64681869
20
Lattice="5.76344132893449 -3.5267713636315807e-16 -2.2078556602047575e-15 1.6833932130073082e-16 2.750997163224591 9.035464375620261e-14 1.703706844928646e-14 -1.4498156721370048e-12 44.47398722405517" Properties=species:S:1:pos:R:3 unique_starting_index=4 config_type=initial n_minim_iter=15 stress="-0.00037664566964496626 3.574028415093878e-17 5.252404754516818e-16 3.574028415093878e-17 0.0009280912731678823 1.8334608323245905e-16 5.252404754516818e-16 1.8334608323245905e-16 0.0006803790983917336" pbc="T T T"
Si       3.58470803       0.80291455      27.94874844
Si       3.58470803       1.94808262      16.52523878
Si       1.64694776       0.96465632      24.60165243
Si       1.64694776       1.78634084      19.87233479
Si       2.17873330      -0.57258403      38.76223239
Si       2.17873330       3.32358120       5.71175483
Si       4.11649357       2.34015490      42.10932840
Si       4.11649357       0.41084226       2.36465882
Si       2.57416072       1.87287466       9.08417347
Si       2.57416072       0.87812250      35.38981375
Si       2.29661243       2.25398399      36.82108359
Si       2.29661243       0.49701318       7.65290364
Si       3.18928061       0.49737608      13.15282014
Si       3.18928061       2.25362109      31.32116709
Si       3.46682890       0.87848541      29.88989725
Si       3.46682890       1.87251176      14.58408998
Si       5.97537370       1.96675587      42.08057121
Si       5.97537370       0.78424129       2.39341602
Si      -0.21193237       2.15973987      19.84357759
Si      -0.21193237       0.59125729      24.63040963
20
Lattice="5.73727543543094 -3.5107599012698704e-16 -2.1978320453574795e-15 1.6843609509484282e-16 2.7525786382538326 9.040247477327888e-14 1.7034392771573592e-14 -1.4496464508044977e-12 44.46700256840438" Properties=species:S:1:pos:R:3 unique_starting_index=4 config_type=initial n_minim_iter=16 stress="-7.989764662205607e-05 2.9880560746025964e-17 1.262809412480859e-15 2.9880560746025964e-17 -0.0014302117308456238 1.5279203399993368e-16 1.262809412480859e-15 1.5279203399993368e-16 -0.00280954869299804" pbc="T T T"
Si       3.55937967       0.80379435      27.95850275
Si       3.55937967       1.94878429      16.50849982
Si       1.62237720       0.97169890      24.61335936
Si       1.62237720       1.78087973      19.85364321
Si       2.17789577      -0.57249497      38.74200110
Si       2.17789577       3.32507361       5.72500147
Si       4.11489824       2.34798822      42.08714449
Si       4.11489824       0.40459042       2.37985808
Si       2.52664812       1.89232907       9.10106507
Si       2.52664812       0.86024957      35.36593749
Si       2.30090807       2.23551099      36.80146747
Si       2.30090807       0.51706765       7.66553510
Si       3.21062732       0.51603975      13.13243621
Si       3.21062732       2.23653889      31.33456636
Si       3.43636736       0.85922167      29.89903639
Si       3.43636736       1.89335696      14.56796618
Si       5.96626480       1.93677579      42.09788328
Si       5.96626480       0.81580285       2.36911929
Si      -0.22898937       2.19209216      19.86438200
Si      -0.22898937       0.56048647      24.60262057
20
Lattice="5.737931614212848 -3.511161430912557e-16 -2.198083413933136e-15 1.6850363896138518e-16 2.7536824385057015 9.040709870016459e-14 1.703355963247667e-14 -1.4500820593090318e-12 44.464827721383976" Properties=species:S:1:pos:R:3 unique_starting_index=4 config_type=initial n_minim_iter=17 stress="4.377077696239745e-05 7.205916671266119e-17 1.439919138345984e-15 7.205916671266119e-17 0.0009644664992735596 -5.114067506005477e-17 1.439919138345984e-15 -5.114067506005477e-17 0.0012662230306927976" pbc="T T T"
Si       3.54077345       0.77468302      27.94998742
Si       3.54077345       1.97899942      16.51484030
Si       1.59308389       0.97606972      24.60768554
Si       1.59308389       1.77761272      19.85714218
Si       2.19715816      -0.60215820      38.74725416
Si       2.19715816       3.35584063       5.71757356
Si       4.14484773       2.35291094      42.08955604
Si       4.14484773       0.40077150       2.37527168
Si       2.47221925       1.91775047       9.10743258
Si       2.47221925       0.83593197      35.35739514
Si       2.31184283       2.21324793      36.80588917
Si       2.31184283       0.54043451       7.65893855
Si       3.26571236       0.54090925      13.12498128
Si       3.26571236       2.21277319      31.33984644
Si       3.42608879       0.83640671      29.89135241
Si       3.42608879       1.91727573      14.57347531
Si       5.99265107       1.93045318      42.10991746
Si       5.99265107       0.82322925       2.35491026
Si      -0.25471946       2.20007047      19.87750360
Si      -0.25471946       0.55361197      24.58732412
20
Lattice="5.749386453447511 -3.5181708887489704e-16 -2.2024715269020314e-15 1.6856306306196046e-16 2.754653545736303 9.041703620832379e-14 1.7028716716047023e-14 -1.4500184023111315e-12 44.452185651883475" Properties=species:S:1:pos:R:3 unique_starting_index=4 config_type=initial n_minim_iter=18 stress="-0.00014764413305836424 1.5927587425255976e-16 7.717783451406213e-16 1.5927587425255976e-16 0.001510274237129273 -2.2101498788610147e-16 7.717783451406213e-16 -2.2101498788610147e-16 0.002461654035184371" pbc="T T T"
Si       3.53853496       0.76088143      27.93785764
Si       3.53853496       1.99377211      16.51432801
Si       1.58146551       0.97711467      24.59763256
Si       1.58146551       1.77753888      19.85455310
Si       2.21085149      -0.61644534      38.74042084
Si       2.21085149       3.37109888       5.71176481
Si       4.16792095       2.35444144      42.08064592
Si       4.16792095       0.40021211       2.37153973
Si       2.45305823       1.93033859       9.10533172
Si       2.45305823       0.82431496      35.34685393
Si       2.32033509       2.20529911      36.79850898
Si       2.32033509       0.54935444       7.65367668
Si       3.29632823       0.55301181      13.12076110
Si       3.29632823       2.20164173      31.33142455
Si       3.42905136       0.82797233      29.87976950
Si       3.42905136       1.92668121      14.57241615
Si       6.01365595       1.93012763      42.10212502
Si       6.01365595       0.82452591       2.35006063
Si      -0.26426949       2.20185268      19.87603219
Si      -0.26426949       0.55280086      24.57615346
20
Lattice="5.758763002897489 -3.5239085972121146e-16 -2.206063489862146e-15 1.6859054150522749e-16 2.7551025977990857 9.04166658410532e-14 1.7020783335995727e-14 -1.449581487796671e-12 44.431476159279484" Properties=species:S:1:pos:R:3 unique_starting_index=4 config_type=initial n_minim_iter=19 stress="-8.176314307563011e-06 1.5103274394528743e-16 7.411471251371456e-16 1.5103274394528743e-16 0.0007007086833105508 -2.5584714526837095e-16 7.411471251371456e-16 -2.5584714526837095e-16 0.0013115256144149406" pbc="T T T"
Si       3.53953842       0.75471195      27.92275584
Si       3.53953842       2.00039065      16.50872032
Si       1.57725382       0.97672850      24.58407971
Si       1.57725382       1.77837409      19.84739645
Si       2.21922458      -0.62283935      38.72445840
Si       2.21922458       3.37794195       5.70701776
Si       4.18150919       2.35427980      42.06313453
Si       4.18150919       0.40082280       2.36834163
Si       2.44647968       1.93587156       9.09990065
Si       2.44647968       0.81923104      35.33157551
Si       2.32530888       2.20176552      36.78236131
Si       2.32530888       0.55333707       7.64911485
Si       3.31228332       0.55832026      13.11583743
Si       3.31228332       2.19678234      31.31563873