14
Lattice="5.33965447548187 -0.05201946142183567 -8.392842104319794e-16 0.03183378147562575 2.626616942085085 -3.0641354437870124e-14 4.122588226890255e-15 1.7857295502642855e-13 15.31177332075475" Properties=species:S:1:pos:R:3 unique_starting_index=0 config_type=initial n_minim_iter=4 energy=-2279.046282131037 free_energy=-2279.046282131037 pbc="T T T"
Si       1.92923685       1.28994687      12.19588684
Si       0.75650728      -0.00264813       4.54000018
Si       3.44225141       1.28465061       3.11588648
Si       4.61498098       2.57724561      10.77177314
Si       4.12731305       1.28074073       5.47691906
Si       3.89808555      -0.04546145      13.13280572
Si       1.24417520       1.29385675       9.83485426
Si       1.47340271       2.62005894       2.17896760
Si       2.11949077      -0.02360272       6.54260853
Si       0.56625336       1.31090146      14.19849519
Si       3.25199749       2.59820020       8.76916479
Si       4.80523490       1.26369602       1.11327813
Si       2.66982724      -0.02600973      -0.00000000
Si       0.01591689       1.31330847       7.65588666
