14
Lattice="5.4964801279699325 0.15237122671003522 -3.359524050315264e-15 0.13290996800265792 2.5935642905765888 -3.0255511447264155e-14 4.309081485379742e-15 1.7890278437438105e-13 15.35457330330889" Properties=species:S:1:pos:R:3 unique_starting_index=0 config_type=initial n_minim_iter=1 energy=-2278.8865170950376 free_energy=-2278.8865170950376 pbc="T T T"
Si       1.98432500       1.12731802      12.24190256
Si       0.83037005       0.24564974       4.56461590
Si       3.64506510       1.61861750       3.11267075
Si       4.79902004       2.50028578      10.78995740
Si       4.25691969       1.38554063       5.52632005
Si       4.05425548       0.13979836      13.20360670
Si       1.37247040       1.36039489       9.82825326
Si       1.57513461       2.60613716       2.15096660
Si       2.22551490       0.24861797       6.56654899
Si       0.58918015       1.12434979      14.24383565
Si       3.40387519       2.49731755       8.78802431
Si       5.04020995       1.62158573       1.11073766
Si       2.74824006       0.07618561      -0.00000000
Si       0.06645498       1.29678215       7.67728665
14
Lattice="5.467858983290397 0.1534405672451626 -3.472938453694471e-15 0.13264400216670175 2.5963945095370806 -3.029315709016173e-14 3.983551814180239e-15 1.7803270722750814e-13 15.280952062239212" Properties=species:S:1:pos:R:3 unique_starting_index=0 config_type=initial n_minim_iter=2 stress="-0.0002551076308930451 0.0007694766743229592 5.510925537416245e-15 0.0007694766743229592 -0.004416395687744681 -8.736095667329799e-15 5.510925537416245e-15 -8.736095667329799e-15 -0.0017173885677727898" pbc="T T T"
Si       1.97434309       1.12919309      12.18270512
Si       0.82590840       0.24572445       4.54222909
Si       3.62615990       1.62064199       3.09824695
Si       4.77459458       2.50411063      10.73872298
Si       4.23556614       1.38775314       5.49922422
Si       4.03254433       0.14060496      13.13970025
Si       1.36493684       1.36208193       9.78172784
Si       1.56795865       2.60923011       2.14125181
Si       2.21372079       0.24934351       6.53497434
Si       0.58653070       1.12557403      14.17545037
Si       3.38678220       2.50049156       8.74597772
Si       5.01397228       1.62426105       1.10550169
Si       2.73392949       0.07672028      -0.00000000
Si       0.06632200       1.29819725       7.64047603
14
Lattice="5.450729993533255 0.14862148478058138 -3.4266434751409416e-15 0.1294099825021771 2.616086620772832 -3.0522451909477996e-14 3.9406783986297165e-15 1.7793310077929693e-13 15.272597732427352" Properties=species:S:1:pos:R:3 unique_starting_index=0 config_type=initial n_minim_iter=3 stress="0.0005479043197041931 0.0010247091536534768 5.58539069890044e-15 0.0010247091536534768 0.002555667571074988 2.4513134520970536e-15 5.58539069890044e-15 2.4513134520970536e-15 -0.0009445501180880146" pbc="T T T"
Si       1.96749148       1.13665696      12.17463825
Si       0.82257851       0.24569710       4.53833939
Si       3.61264849       1.62805115       3.09795948
Si       4.75756147       2.51901101      10.73425835
Si       4.22244274       1.39384790       5.49465975
Si       4.01835724       0.13712764      13.13095861
Si       1.35769724       1.37086021       9.77793798
Si       1.56178273       2.62758047       2.14163912
Si       2.20586371       0.24902685       6.53120908
Si       0.58420628       1.13332720      14.16750795
Si       3.37427627       2.51568126       8.74138865
Si       4.99593370       1.63138090       1.10508978
Si       2.72536500       0.07431074      -0.00000000
Si       0.06470499       1.30804331       7.63629887
14
Lattice="5.390873396840729 0.0943322339809563 -2.721601826893975e-15 0.1023111552284216 2.6173333457504433 -3.0527098052313035e-14 4.126123616829103e-15 1.790145657377283e-13 15.364772629410027" Properties=species:S:1:pos:R:3 unique_starting_index=0 config_type=initial n_minim_iter=4 stress="-0.004469801209902833 -0.0007473773203036895 -1.2570221467410962e-14 -0.0007473773203036895 0.00020023310706084057 -4.16837952692408e-15 -1.2570221467410962e-14 -4.16837952692408e-15 0.0028922707256362366" pbc="T T T"
Si       1.93874135       1.12426725      12.24031197
Si       0.80785093       0.23156554       4.55792566
Si       3.55444320       1.58739832       3.12446065
Si       4.68533362       2.48010004      10.80684697
Si       4.17189408       1.35399472       5.51895833
Si       3.96557160       0.09617030      13.20134464
Si       1.32129047       1.35767086       9.84581430
Si       1.52761296       2.61549528       2.16342799
Si       2.17586322       0.22826657       6.56930387
Si       0.57072906       1.12756622      14.25169019
Si       3.31732133       2.48339901       8.79546876
Si       4.92245550       1.58409936       1.11308244
Si       2.69543670       0.04716612      -0.00000000
Si       0.05115558       1.30866667       7.68238631
14
Lattice="5.40898934861371 0.060748920113777985 -2.38147609229918e-15 0.08692593103071367 2.6164925441738536 -3.051627678829204e-14 3.9754514982805065e-15 1.7816722877156502e-13 15.29304927841286" Properties=species:S:1:pos:R:3 unique_starting_index=0 config_type=initial n_minim_iter=5 stress="-0.0010164587848755025 -0.002158669088074494 -2.2318343349269672e-14 -0.002158669088074494 0.00015223607871368158 -9.353147500221606e-15 -2.2318343349269672e-14 -9.353147500221606e-15 -0.0012766344385813182" pbc="T T T"
Si       1.94203442       1.11950142      12.17544404
Si       0.80592322       0.21911931       4.52891940
Si       3.55388086       1.55774004       3.11760524
Si       4.68999206       2.45812215      10.76412988
Si       4.18736843       1.32962783       5.48407801
Si       3.96957855       0.06974183      13.13060265
Si       1.30854685       1.34761364       9.80897127
Si       1.52633672       2.60749964       2.16244663
Si       2.17738212       0.21503612       6.53752115
Si       0.57057552       1.12358461      14.18404579
Si       3.31853316       2.46220535       8.75552813
Si       4.92533976       1.55365685       1.10900349
Si       2.70449467       0.03037446      -0.00000000
Si       0.04346297       1.30824627       7.64652464
14
Lattice="5.415550003380671 0.07314199171681494 -2.518487944816697e-15 0.0930168614134374 2.6134442427049676 -3.048302931944825e-14 4.005343637971524e-15 1.783266503420602e-13 15.307168598093519" Properties=species:S:1:pos:R:3 unique_starting_index=0 config_type=initial n_minim_iter=6 stress="0.0002806978223210753 -0.0004998232311579618 -7.841837728478388e-15 -0.0004998232311579618 -0.0003949314655493985 -2.132344106750024e-15 -7.841837728478388e-15 -2.132344106750024e-15 -0.00042249952887657915" pbc="T T T"
Si       1.95085652       1.13224569      12.17928893
Si       0.80342691       0.21104743       4.52570463
Si       3.55771034       1.55434055       3.12787967
Si       4.70513995       2.47553880      10.78146396
Si       4.20613867       1.34022713       5.47967445
Si       3.96369476       0.07620798      13.13325875
Si       1.30242819       1.34635911       9.82749415
Si       1.54487210       2.61037825       2.17390985
Si       2.17507280       0.21922020       6.54207511
Si       0.57921064       1.12407292      14.19565940
Si       3.33349407       2.46736603       8.76509349
Si       4.92935623       1.56251332       1.11150919
Si       2.70777500       0.03657100      -0.00000000
Si       0.04650843       1.30672212       7.65358430
14
Lattice="5.408257987421935 0.08458545899939217 -2.634997726573985e-15 0.09817231793052016 2.615894326017699 -3.051332556122225e-14 4.053349665380359e-15 1.785690744393275e-13 15.328346640499669" Properties=species:S:1:pos:R:3 unique_starting_index=0 config_type=initial n_minim_iter=7 stress="0.0004224432931822374 0.0014811646308145075 1.6610614008206657e-14 0.0014811646308145075 0.0003197860421805648 -1.1971567549860901e-15 1.6610614008206657e-14 -1.1971567549860901e-15 0.0006964377821624419" pbc="T T T"
Si       1.95432813       1.15451009      12.19113196
Si       0.79888703       0.19572980       4.52695864
Si       3.55210218       1.54596970       3.13721468
Si       4.70754328       2.50474998      10.80138800
Si       4.21640151       1.35574492       5.47936975
Si       3.94507163       0.07908043      13.14354308
Si       1.29002880       1.34473486       9.84897689
Si       1.56135867       2.62139936       2.18480357
Si       2.16608172       0.22134240       6.54757776
Si       0.58713343       1.12889750      14.21175108
Si       3.34034859       2.47913739       8.78076888
Si       4.91929687       1.57158229       1.11659556
Si       2.70412899       0.04229273      -0.00000000
Si       0.04908616       1.30794716       7.66417332
14
Lattice="5.369076500700873 0.013559339866456327 -1.7938459162083346e-15 0.06351399263665529 2.6229847711222645 -3.058806611206259e-14 4.0625408752164506e-15 1.7855624962828254e-13 15.328009946298238" Properties=species:S:1:pos:R:3 unique_starting_index=0 config_type=initial n_minim_iter=8 stress="0.00032080853027685407 -0.0002570452578639492 8.345783717346645e-15 -0.0002570452578639492 0.0014555369514039805 -1.611704257260305e-15 8.345783717346645e-15 -1.611704257260305e-15 -0.0008884799368788198" pbc="T T T"
Si       1.92673000       1.21025525      12.20479998
Si       0.78956524       0.10801680       4.54079500
Si       3.50586049       1.42628886       3.12320997
Si       4.64302525       2.52852731      10.78721494
Si       4.19878072       1.33401736       5.48544808
Si       3.88659103      -0.00218596      13.14945305
Si       1.23380978       1.30252675       9.84256187
Si       1.54599946       2.63873008       2.17855690
Si       2.13681599       0.17269536       6.53082608
Si       0.57947926       1.14557670      14.19483105
Si       3.29577450       2.46384875       8.79718387
Si       4.85311124       1.49096742       1.13317890
Si       2.68453825       0.00677967      -0.00000000
Si       0.03175700       1.31149239       7.66400497
14
Lattice="5.381893799247224 0.03841033960919159 -2.068364146201143e-15 0.07584979639064124 2.612173754014482 -3.0465212982590356e-14 4.121929982889127e-15 1.7886220464315144e-13 15.354375877085937" Properties=species:S:1:pos:R:3 unique_starting_index=0 config_type=initial n_minim_iter=9 stress="0.0008318720594402448 0.00033564674288540943 6.5158393964174575e-15 0.00033564674288540943 -0.0015233885043742768 3.4503185561165236e-15 6.5158393964174575e-15 3.4503185561165236e-15 0.0015295904582896796" pbc="T T T"
Si       1.93403197       1.20057525      12.22855889
Si       0.79483982       0.12471680       4.55137095
Si       3.52371162       1.45000884       3.12581699
Si       4.66290377       2.52586730      10.80300493
Si       4.19948252       1.34394762       5.50196092
Si       3.91128308       0.01975477      13.17914885
Si       1.25826108       1.30663648       9.85241496
Si       1.54646051       2.63082933       2.17522702
Si       2.15320768       0.18047678       6.55048925
Si       0.57566412       1.14481527      14.22767719
Si       3.30453591       2.47010731       8.80388663
Si       4.88207948       1.50576883       1.12669869
Si       2.69094690       0.01920517      -0.00000000
Si       0.03792490       1.30608688       7.67718794
14
Lattice="5.325972549734831 -0.01355733009754656 -1.437848918130715e-15 0.04984206803243929 2.617010482123073 -3.051331952524374e-14 4.156194723120881e-15 1.791055181388814e-13 15.37474103180209" Properties=species:S:1:pos:R:3 unique_starting_index=0 config_type=initial n_minim_iter=10 stress="-0.0047928751499977515 -0.0011487912860129782 -4.66250692382964e-16 -0.0011487912860129782 -0.0034863181139209 5.173051431988986e-15 -4.66250692382964e-16 5.173051431988986e-15 0.000987288470463467" pbc="T T T"
Si       1.90565545       1.24345255      12.24250915
Si       0.78225186       0.05827403       4.55513863
Si       3.47015917       1.36000060       3.13223189
Si       4.59356275       2.54517913      10.81960240
Si       4.15317166       1.32869936       5.50736815
Si       3.86070819      -0.04053011      13.19473867
Si       1.22264295       1.27475379       9.86737288
Si       1.51510642       2.64398327       2.18000236
Si       2.13689726       0.13418667       6.56576471
Si       0.55101005       1.16753991      14.25313522
Si       3.23891736       2.46926648       8.80897633
Si       4.82480457       1.43591325       1.12160581
Si       2.66298627      -0.00677867      -0.00000000
Si       0.02492103       1.30850524       7.68737052
14
Lattice="5.347111604289383 0.0034247932995102315 -1.6679932152321013e-15 0.05824698845509754 2.621318000143972 -3.056729322276547e-14 4.069204054969655e-15 1.786095248816961e-13 15.332634955090569" Properties=species:S:1:pos:R:3 unique_starting_index=0 config_type=initial n_minim_iter=11 stress="-0.001081207247068763 4.9908506085917596e-05 -1.8081260395678827e-16 4.9908506085917596e-05 -0.0007193320585319653 -1.65185228900523e-15 -1.8081260395678827e-16 -1.65185228900523e-15 -0.0004283213493769969" pbc="T T T"
Si       1.91692830       1.25918525      12.20933443
Si       0.78575100       0.05318614       4.54301695
Si       3.48843029       1.36555754       3.12330053
Si       4.61960760       2.57155665      10.78961801
Si       4.17147851       1.34700912       5.49290647
Si       3.87831239      -0.03121293      13.15922395
Si       1.23388008       1.27773368       9.83972849
Si       1.52704620       2.65595572       2.17341101
Si       2.14938619       0.13464601       6.55066100
Si       0.55329310       1.17772538      14.21697847
Si       3.25597240       2.49009678       8.78197396
Si       4.85206549       1.44701741       1.11565648
Si       2.67355580       0.00171240      -0.00000000
Si       0.02912349       1.31065900       7.66631748
14
Lattice="5.35782391275366 -0.00022144367371565443 -1.6325446784852991e-15 0.05667167591444777 2.6254243964432282 -3.0616885216076075e-14 4.054104255842619e-15 1.7844818636259177e-13 15.319848147803288" Properties=species:S:1:pos:R:3 unique_starting_index=0 config_type=initial n_minim_iter=12 stress="0.0016227187716454897 0.0002502558035668825 8.544941426343719e-15 0.0002502558035668825 0.001564044753430796 -1.3304781884440283e-15 8.544941426343719e-15 -1.3304781884440283e-15 -0.00015197767728276137" pbc="T T T"
Si       1.92133182       1.27674280      12.19701109
Si       0.78591598       0.03585868       4.53708702
Si       3.49316377       1.34846015       3.12283706
Si       4.62857961       2.58934428      10.78276113
Si       4.18121722       1.35152276       5.48341937
Si       3.88385449      -0.03914273      13.14334344
Si       1.23327837       1.27368019       9.83642878
Si       1.53064110       2.66434568       2.17650471
Si       2.15409135       0.12196810       6.54562479
Si       0.55315645       1.19063338      14.20554887
Si       3.26040424       2.50323485       8.77422335
Si       4.86133914       1.43456958       1.11429928
Si       2.67891196      -0.00011072      -0.00000000
Si       0.02833584       1.31271220       7.65992407
14
Lattice="5.362595796858231 -0.004668280798700519 -1.5683670369325797e-15 0.054804427697858316 2.621252780141605 -3.056900464642978e-14 4.0972139132096426e-15 1.7862110190119285e-13 15.335470156691084" Properties=species:S:1:pos:R:3 unique_starting_index=0 config_type=initial n_minim_iter=13 stress="0.002395555467673567 0.00034408961452419597 4.0099195730800865e-15 0.00034408961452419597 0.0006557397653400285 -3.2026309870534956e-15 4.0099195730800865e-15 -3.2026309870534956e-15 0.0008222604909807835" pbc="T T T"
Si       1.92082129       1.27419111      12.21193221
Si       0.78787882       0.03410114       4.54419713
Si       3.49657893       1.34239339       3.12353794
Si       4.62952140       2.58248336      10.79127302
Si       4.17327996       1.34294100       5.48267258
Si       3.89801595      -0.03931703      13.15040765
Si       1.24412026       1.27364350       9.85279758
Si       1.51938428       2.65590153       2.18506250
Si       2.15577530       0.10017889       6.54869538
Si       0.55292481       1.20811336      14.21643046
Si       3.26162493       2.51640561       8.78677478
Si       4.86447541       1.40847114       1.11903970
Si       2.68129790      -0.00233414      -0.00000000
Si       0.02740221       1.31062639       7.66773508
14
Lattice="5.3473998025811875 -0.02543328842500231 -1.3149908378543549e-15 0.04463981007444359 2.6212169294702994 -3.056607644114605e-14 4.12082643879118e-15 1.7872868164776836e-13 15.344908572259264" Properties=species:S:1:pos:R:3 unique_starting_index=0 config_type=initial n_minim_iter=14 stress="-0.00012553578314699368 -0.00015914571201044832 -3.592314641315647e-16 -0.00015914571201044832 -0.0006328262236305141 -6.839462556139937e-16 -3.592314641315647e-16 -6.839462556139937e-16 0.00011155669129829548" pbc="T T T"
Si       1.91070817       1.28295212      12.22323086
Si       0.78531164       0.01493970       4.55077657
Si       3.48133144       1.31283152       3.12167772
Si       4.60672798       2.58084394      10.79413200
Si       4.14922885       1.32814345       5.47774271
Si       3.89419076      -0.05568491      13.15019699
Si       1.24281076       1.26764020       9.86716587
Si       1.49784885       2.65146855       2.19471158
Si       2.14778917       0.06132227       6.54730572
Si       0.54823063       1.23656955      14.21976001
Si       3.24425044       2.53446137       8.79760285
Si       4.84380898       1.35921409       1.12514857
Si       2.67369990      -0.01271664      -0.00000000
Si       0.02231991       1.31060846       7.67245429
14
Lattice="5.34206268688159 -0.03223880222227049 -1.2352199861560936e-15 0.04112204970003644 2.62761844354527 -3.064074757545037e-14 4.116863487394435e-15 1.7866327836074543e-13 15.339824688477714" Properties=species:S:1:pos:R:3 unique_starting_index=0 config_type=initial n_minim_iter=15 stress="-0.0001520669805415428 0.00031490724267675224 6.617702585092882e-15 0.00031490724267675224 0.0009447598083307317 -6.76122104544854e-16 6.617702585092882e-15 -6.76122104544854e-16 -0.0002939100487018382" pbc="T T T"
Si       1.91227019       1.28543510      12.22279196
Si       0.77932218       0.01225472       4.55287961
Si       3.47091454       1.30994454       3.11703273
Si       4.60386256       2.58312492      10.78694508
Si       4.13698599       1.31864744       5.46720413
Si       3.89666906      -0.05319642      13.13711647
Si       1.24619874       1.27673220       9.87262056
Si       1.48651567       2.64857606       2.20270822
Si       2.14130553       0.02591198       6.54166692
Si       0.55028684       1.27177784      14.21157926
Si       3.24187921       2.56946766       8.79815777
Si       4.83289790       1.32360180       1.12824543
Si       2.67103134      -0.01611940      -0.00000000
Si       0.02056102       1.31380922       7.66991234
14
Lattice="5.334275265788449 -0.04512772398518369 -1.0813738307651761e-15 0.03479424311829256 2.629701448456391 -3.066462669614293e-14 4.12095034439737e-15 1.7862873681609937e-13 15.337557503623566" Properties=species:S:1:pos:R:3 unique_starting_index=0 config_type=initial n_minim_iter=16 stress="-0.0014677947768607232 0.00024413219294871667 -3.9241500671646745e-14 0.00024413219294871667 -7.33882255326295e-05 6.697921616138721e-16 -3.9241500671646745e-14 6.697921616138721e-16 0.0006465390422782892" pbc="T T T"
Si       1.92133668       1.28095582      12.22651529
Si       0.76319808       0.01133104       4.55773654
Si       3.44773283       1.30361790       3.11104221
Si       4.60587143       2.57324269      10.77982097
Si       4.13401056       1.29997916       5.47137592
Si       3.88479946      -0.05282002      13.14015468
Si       1.23505895       1.28459457       9.86618158
Si       1.48427005       2.63739375       2.19740283
Si       2.13531052      -0.00558799       6.54860625
Si       0.54922424       1.29787485      14.21738500
Si       3.23375899       2.59016171       8.78895126
Si       4.81984527       1.28669887       1.12017251
Si       2.66713763      -0.02256386      -0.00000000
Si       0.01739712       1.31485072       7.66877875
14
Lattice="5.343798168753063 -0.04674387066255001 -1.0730324759652314e-15 0.03429382236587322 2.628550713734916 -3.0652990358137997e-14 4.094330775060728e-15 1.7842978270012047e-13 15.321358476006365" Properties=species:S:1:pos:R:3 unique_starting_index=0 config_type=initial n_minim_iter=17 stress="-0.0003211815032478427 0.00010494661058426018 4.280262643646074e-15 0.00010494661058426018 2.516381189246092e-05 3.504745515842476e-17 4.280262643646074e-15 3.504745515842476e-17 -4.414951473509184e-05" pbc="T T T"
Si       1.92465758       1.27719596      12.21345911
Si       0.76438842       0.01370746       4.55277988
Si       3.45343441       1.30461088       3.10789936
Si       4.61370358       2.56809938      10.76857860
Si       4.14012556       1.29683855       5.46722954
Si       3.89271860      -0.05267900      13.12790877
Si       1.23796643       1.28496829       9.85412894
Si       1.48537339       2.63448584       2.19344970
Si       2.13908346      -0.00553257       6.54251909
Si       0.54996253       1.29643599      14.20319833
Si       3.23900853       2.58733941       8.77883939
Si       4.82812946       1.28537085       1.11816015
Si       2.67189908      -0.02337194      -0.00000000
Si       0.01714691       1.31427536       7.66067924
14
Lattice="5.355623784796396 -0.055265587147337425 -9.820688313302646e-16 0.030615835403019556 2.626490645873328 -3.06321659796172e-14 4.076365590676171e-15 1.7823000182331369e-13 15.30627624493428" Properties=species:S:1:pos:R:3 unique_starting_index=0 config_type=initial n_minim_iter=18 stress="0.0011563800751145806 -0.0001945817973994594 -3.576116106630036e-15 -0.0001945817973994594 -1.9793073401638288e-05 -4.779336616519191e-16 -3.576116106630036e-15 -4.779336616519191e-16 -0.00046518170647920424" pbc="T T T"
Si       1.92803414       1.27778880      12.20135971
Si       0.76508567       0.00782372       4.54822159
Si       3.45820548       1.29343625       3.10491653
Si       4.62115395       2.56340133      10.75805465
Si       4.14561527       1.28856895       5.46447697
Si       3.90312833      -0.05822201      13.11761509
Si       1.24062435       1.28265610       9.84179928
Si       1.48311129       2.62944707       2.18866116
Si       2.14231138      -0.01677498       6.53649397
Si       0.55080843       1.30238751      14.18963210
Si       3.24392824       2.58800004       8.76978227
Si       4.83543119       1.26883754       1.11664415
Si       2.67781189      -0.02763279      -0.00000000
Si       0.01530792       1.31324532       7.65313812
14
Lattice="5.3465309373278105 -0.06190850231345377 -8.896510021480783e-16 0.027230321993540377 2.627613230206308 -3.064781512336045e-14 4.115701163454737e-15 1.7834671557683267e-13 15.318222137728679" Properties=species:S:1:pos:R:3 unique_starting_index=0 config_type=initial n_minim_iter=19 stress="0.0007840426349120929 -0.00033204085263441254 -1.1536278059764339e-14 -0.00033204085263441254 0.00030544535597523583 -2.9177281691800234e-17 -1.1536278059764339e-14 -2.9177281691800234e-17 0.0004651822904354964" pbc="T T T"
Si       1.92522939       1.27920861      12.20517115
Si       0.76165124       0.00364376       4.54606008
Si       3.44853187       1.28649612       3.11305099
Si       4.61211002       2.56206097      10.77216206
Si       4.13385934       1.27976667       5.47367984
Si       3.89955223      -0.05882281      13.13279091
Si       1.23990192       1.28593805       9.84454230
Si       1.47420903       2.62452754       2.18543123
Si       2.13292323      -0.02843513       6.54285021
Si       0.55395740       1.31128749      14.20196128
Si       3.24083803       2.59413986       8.77537192
Si       4.81980385       1.25441724       1.11626085
Si       2.67326547      -0.03095425      -0.00000000
Si       0.01361516       1.31380662       7.65911107
14
Lattice="5.3379814893318285 -0.06163175368674134 -8.856763399294373e-16 0.027160139508654035 2.6273980657616383 -3.064712500063276e-14 4.1304076789267914e-15 1.7836702180208933e-13 15.320956071455013" Properties=species:S:1:pos:R:3 unique_starting_index=0 config_type=initial n_minim_iter=20 stress="5.332029866794147e-05 -0.0001655007765478041 1.7076293655800606e-14 -0.0001655007765478041 7.934951690935945e-05 -5.023142063050048e-16 1.7076293655800606e-14 -5.023142063050048e-16 0.00040960717840038445" pbc="T T T"
Si       1.92350560       1.28456263      12.20090318
Si       0.75906521      -0.00167948       4.54042515
Si       3.44163603       1.28120368       3.12005289
Si       4.60607642       2.56744579      10.78053092
Si       4.12646031       1.27695538       5.48173618
Si       3.89409200      -0.05570397      13.14221422
Si       1.23868132       1.28881094       9.83921989
Si       1.47104963       2.62147029       2.17874185
Si       2.12210579      -0.03218941       6.54441109
Si       0.56046503       1.31507257      14.20488913
Si       3.24303584       2.59795573       8.77654498
Si       4.80467660       1.25069374       1.11606695
Si       2.66899074      -0.03081588      -0.00000000
Si       0.01358007       1.31369903       7.66047804
14
Lattice="5.337810666360613 -0.058680262912575804 -9.190041851312278e-16 0.0285525466468788 2.6272591867518043 -3.064797665341255e-14 4.132507846834609e-15 1.7831483374077952e-13 15.317553805906986" Properties=species:S:1:pos:R:3 unique_starting_index=0 config_type=initial n_minim_iter=21 stress="-3.874164971471308e-06 -3.1025455010817756e-05 -8.711820063186219e-15 -3.1025455010817756e-05 1.5830422584278435e-05 1.9216015195280582e-16 -8.711820063186219e-15 1.9216015195280582e-16 9.583276974726537e-05" pbc="T T T"
Si       1.92412044       1.28514573      12.19739562
Si       0.75906117      -0.00085627       4.53861872
Si       3.44224278       1.28343319       3.12015818
Si       4.60730204       2.56943519      10.77893509
Si       4.12732103       1.27875998       5.48124833
Si       3.89367124      -0.05315079      13.14002523
Si       1.23904218       1.28981894       9.83630547
Si       1.47269197       2.62172971       2.17752857
Si       2.12106190      -0.02902000       6.54296589
Si       0.56211971       1.31330947      14.20174280
Si       3.24530132       2.59759893       8.77458791
Si       4.80424350       1.25526946       1.11581101
Si       2.66890533      -0.02934013      -0.00000000
Si       0.01427627       1.31362959       7.65877690
