2
Lattice="2.8824136341141187 -9.1668186232638e-16 4.911534894989e-41 -1.4412068170570584 2.496243431357451 2.490032794565471e-25 -1.8954294993195706e-40 -4.554211387435998e-25 4.5655704959838825" Properties=species:S:1:pos:R:3 n_minim_iter=1 energy=-3187.305832549072 free_energy=-3187.305832549072 pbc="T T T"
Ti       0.00000000       0.00000000       0.00000000
Ti       0.00000000       1.66416229       2.28278525
