2
Lattice="2.775059263652292 -8.816013736796489e-16 5.173671453069946e-41 -1.3875296318261454 2.403271819330224 2.3972924952808247e-25 -2.1013759984696342e-40 -4.434035179183731e-25 4.445094544377992" Properties=species:S:1:pos:R:3 n_minim_iter=2 stress="-0.06184182030844529 -1.0450744307999913e-17 -1.4465474871150877e-16 -1.0450744307999913e-17 -0.06184182030844525 -7.386639347427926e-17 -1.4465474871150877e-16 -7.386639347427926e-17 -0.0704543245539462" pbc="T T T"
Ti      -0.00000000       0.00000000       0.00000000
Ti       0.00000000       1.60218121       2.22254727
