2
Lattice="2.724129205750804 -8.654215357945143e-16 5.078720188381875e-41 -1.362064602875401 2.3591650953713224 2.353295508553135e-25 -2.821724353113429e-40 -4.352658297842518e-25 4.363514692917522" Properties=species:S:1:pos:R:3 n_minim_iter=1 stress="-0.14585856308746672 -1.7993817229468334e-17 -7.876706635593882e-18 -1.7993817229468334e-17 -0.1458585630874675 2.0156485849623446e-19 -7.876706635593882e-18 2.0156485849623446e-19 -0.15027199467629032" pbc="T T T"
Ti       0.00000000       0.00000000       0.00000000
Ti       0.00000000       1.57277673       2.18175735
