2
Lattice="2.928540063173865 -9.313512561956432e-16 4.990132762840752e-41 -1.4642700315869317 2.536190090709052 2.529880066898495e-25 -2.5981213319421378e-40 -4.627091110873131e-25 4.638631995939282" Properties=species:S:1:pos:R:3 n_minim_iter=1 stress="0.041261282522744275 -2.0536532839916487e-17 3.720748376895173e-19 -2.0536532839916487e-17 0.041261282522744296 -1.600263201857798e-18 3.720748376895173e-19 -1.600263201857798e-18 0.04514576848326249" pbc="T T T"
Ti       0.00000000       0.00000000       0.00000000
Ti       0.00000000       1.69079339       2.31931600
