2
Lattice="2.724129205750804 -8.654215357945141e-16 5.078720188381875e-41 -1.3620646028754013 2.3591650953713232 2.353295508553137e-25 -1.8835802635811815e-40 -4.35265829784252e-25 4.363514692917523" Properties=species:S:1:pos:R:3 n_minim_iter=1 stress="-0.09539189386820762 2.4933116400155297e-18 1.0214544376671847e-18 2.4933116400155297e-18 -0.09539189386820761 -2.111393968820987e-19 1.0214544376671847e-18 -2.111393968820987e-19 -0.10194277661852717" pbc="T T T"
Ti       0.00000000       0.00000000       0.00000000
Ti       0.00000000       1.57277673       2.18175735
