2
Lattice="2.6805863481697054 -7.825993280892346e-16 -6.400302827723151e-41 -1.3402931740848525 2.3214558745527225 2.3156801080211537e-25 -3.09946085663578e-40 -3.853040612894285e-25 3.8626508621422837" Properties=species:S:1:pos:R:3 n_minim_iter=3 stress="-0.7850366081266416 1.625301966172093e-16 7.222201818601348e-18 1.625301966172093e-16 -0.7850366081266404 -3.4641429387528776e-18 7.222201818601348e-18 -3.4641429387528776e-18 -0.7839981806537147" pbc="T T T"
Ti       0.00000000      -0.00000000      -0.00000000
Ti       0.00000000       1.54763725       1.93132543
