2
Lattice="2.8587862301628286 -9.09167738607401e-16 4.87127460145884e-41 -1.4293931150814136 2.4757814993101572 2.4696217716668643e-25 -1.551719928320485e-40 -4.516880106853297e-25 4.5281461037661925" Properties=species:S:1:pos:R:3 n_minim_iter=1 stress="-0.004137918067084323 -9.652855898053113e-17 1.799493012231541e-17 -9.652855898053113e-17 -0.004137918067084222 -4.578070147162995e-18 1.799493012231541e-17 -4.578070147162995e-18 -0.005684012792706107" pbc="T T T"
Ti       0.00000000       0.00000000       0.00000000
Ti       0.00000000       1.65052100       2.26407305
