2
Lattice="3.002948628157131 -9.426577902392355e-16 6.065591216818017e-41 -1.5014743140785647 2.600629798243706 2.59415944887617e-25 -2.5367378810774353e-40 -4.912328107984842e-25 4.924580430825058" Properties=species:S:1:pos:R:3 n_minim_iter=1 stress="0.07158833143084772 1.3531808354503435e-18 1.1554529679893313e-19 1.3531808354503435e-18 0.07158833143084777 4.51321078080485e-19 1.1554529679893313e-19 4.51321078080485e-19 0.07615456612081363" pbc="T T T"
Ti       0.00000000       0.00000000       0.00000000
Ti       0.00000000       1.73375320       2.46229022
