2
Lattice="3.002948628157131 -9.426577902392357e-16 6.065591216818016e-41 -1.5014743140785647 2.600629798243706 2.59415944887617e-25 -1.8472946880680127e-40 -4.912328107984845e-25 4.924580430825058" Properties=species:S:1:pos:R:3 n_minim_iter=1 stress="0.07413532295857356 1.1977089947815813e-18 2.0308640277232704e-19 1.1977089947815813e-18 0.07413532295857365 -1.1046833089036045e-18 2.0308640277232704e-19 -1.1046833089036045e-18 0.07712688657062748" pbc="T T T"
Ti       0.00000000       0.00000000       0.00000000
Ti       0.00000000       1.73375320       2.46229022
