2
Lattice="2.5573867891889446 3.726216303125448e-17 2.5573867891889446 2.5573867891889446 2.5573867891889446 -8.133461883371196e-17 -6.944570023238968e-17 2.5573867891889446 2.5573867891889446" Properties=species:S:1:pos:R:3 n_minim_iter=1 energy=-325.85049887132175 free_energy=-325.85049887132175 pbc="T T T"
Si       0.00000000      -0.00000000      -0.00000000
Si       1.27869339       1.27869339       1.27869339
