2
Lattice="2.9002227541204237 0.0 0.0 0.0 2.9002227541204237 0.0 0.0 0.0 4.185058829679619" Properties=species:S:1:pos:R:3:tags:I:1 spacegroup="P 1" unit_cell=conventional n_minim_iter=1 energy=-1704.0733599935636 free_energy=-1704.0733599935636 pbc="T T T"
Ti       1.45011138       1.45011138       2.09252942        0
Al       0.00000000       0.00000000       0.00000001        1
