2
Lattice="2.74494479145056 0.0 0.0 0.0 2.74494479145056 0.0 0.0 0.0 3.960990727392334" Properties=species:S:1:pos:R:3:tags:I:1 spacegroup="P 1" unit_cell=conventional n_minim_iter=1 energy=-1704.2885612920647 free_energy=-1704.2885612920647 pbc="T T T"
Ti       1.37247240       1.37247240       1.98049537        0
Al       0.00000000       0.00000000       0.00000000        1
