2
Lattice="2.7682081446174993 0.0 0.0 0.0 2.7682081446174993 0.0 0.0 0.0 3.9945600459699957" Properties=species:S:1:pos:R:3:tags:I:1 spacegroup="P 1" unit_cell=conventional n_minim_iter=1 energy=-1704.2960814299495 free_energy=-1704.2960814299495 pbc="T T T"
Ti       1.38410407       1.38410407       1.99728003        0
Al       0.00000000       0.00000000       0.00000000        1
