2
Lattice="2.941660106158884 0.0 0.0 0.0 2.941660106158884 0.0 0.0 0.0 4.244853462964499" Properties=species:S:1:pos:R:3:tags:I:1 spacegroup="P 1" unit_cell=conventional n_minim_iter=1 energy=-1703.9278415320082 free_energy=-1703.9278415320082 pbc="T T T"
Ti       1.47083005       1.47083005       2.12242674        0
Al       0.00000000       0.00000000       0.00000001        1
