2
Lattice="2.961948058339013 0.0 0.0 0.0 2.961948058339013 0.0 0.0 0.0 4.274129239553362" Properties=species:S:1:pos:R:3:tags:I:1 spacegroup="P 1" unit_cell=conventional n_minim_iter=1 energy=-1703.8461304544135 free_energy=-1703.8461304544135 pbc="T T T"
Ti       1.48097403       1.48097403       2.13706463        0
Al       0.00000000       0.00000000       0.00000001        1
2
Lattice="2.996135800869194 5.077864554640156e-68 1.4021426087842331e-36 3.3718155922257084e-54 2.9961358008691934 1.4837903229619445e-17 2.0233098637080804e-36 2.1411285680324728e-17 4.177144880902972" Properties=species:S:1:pos:R:3:tags:I:1 spacegroup="P 1" unit_cell=conventional n_minim_iter=2 stress="0.10371642767827645 -9.25247083407666e-19 8.789847292372827e-19 -9.25247083407666e-19 0.10371642767827641 -1.113842686441418e-17 8.789847292372827e-19 -1.113842686441418e-17 0.10200750570070694" pbc="T T T"
Ti       1.49806790       1.49806790       2.08857245        0
Al       0.00000000       0.00000000       0.00000001        1
