2
Lattice="2.8357518897993295 0.0 0.0 0.0 2.8357518897993295 0.0 0.0 0.0 4.092026541176698" Properties=species:S:1:pos:R:3:tags:I:1 spacegroup="P 1" unit_cell=conventional n_minim_iter=1 stress="0.03757962000713368 1.6732574335200708e-18 -2.549592417816391e-19 1.6732574335200708e-18 0.03757962000713368 3.3867898448901465e-18 -2.549592417816391e-19 3.3867898448901465e-18 0.03233659633224113" pbc="T T T"
Ti       1.41787594       1.41787594       2.04601328        0
Al       0.00000000       0.00000000       0.00000001        1
