2
Lattice="2.622235649315497 0.0 0.0 0.0 2.622235649315497 0.0 0.0 0.0 3.7839198530792637" Properties=species:S:1:pos:R:3:tags:I:1 spacegroup="P 1" unit_cell=conventional n_minim_iter=1 stress="-0.12648447002742774 -3.9494510207934495e-18 2.6550506451446373e-19 -3.9494510207934495e-18 -0.12648447002742774 1.7001415157615866e-17 2.6550506451446373e-19 1.7001415157615866e-17 -0.13286440711051975" pbc="T T T"
Ti       1.31111782       1.31111782       1.89195993        0
Al       0.00000000       0.00000000       0.00000000        1
