4
Lattice="1.8425539680496905 -3.191397088349705 -1.8607418655562076e-17 1.8425539680496894 3.191397088349705 1.8607418655562067e-17 2.091651499344729e-32 -3.541782594472904e-17 6.074585018373711" Properties=species:S:1:pos:R:3 cutoff=-1.0 nneightol=1.2 n_minim_iter=1 energy=-652.2504219325748 free_energy=-652.2504219325748 pbc="T T T"
Si       1.84255397       1.06379903       0.38280642
Si       1.84255397      -1.06379903       3.42009893
Si       1.84255397       1.06379903       2.65448608
Si       1.84255397      -1.06379903      -0.38280642
4
Lattice="1.8413402239549965 -3.1892948219103086 -1.8125970883347352e-17 1.8413402239549954 3.1892948219103086 1.8125970883347345e-17 2.1237755679935615e-32 -3.635779832786296e-17 6.082595946067546" Properties=species:S:1:pos:R:3 cutoff=-1.0 nneightol=1.2 n_minim_iter=2 stress="-0.09198831757476873 -4.511774693425671e-16 1.3293958323620666e-16 -4.511774693425671e-16 -0.09198831757476789 -1.0230884685702067e-16 1.3293958323620666e-16 -1.0230884685702067e-16 -0.09152404515885781" pbc="T T T"
Si       1.84134022       1.06309827       0.38352648
Si       1.84134022      -1.06309827       3.42482445
Si       1.84134022       1.06309827       2.65777149
Si       1.84134022      -1.06309827      -0.38352648
4
Lattice="1.8403989560089282 -3.1876644980041835 -1.7579976401099544e-17 1.8403989560089271 3.1876644980041835 1.7579976401099538e-17 2.195751122084957e-32 -3.741386708860407e-17 6.0888193974378355" Properties=species:S:1:pos:R:3 cutoff=-1.0 nneightol=1.2 n_minim_iter=3 stress="-0.09160093160234198 -2.82321785619057e-16 1.0942408516554235e-16 -2.82321785619057e-16 -0.09160093160234094 -1.6515120791532953e-16 1.0942408516554235e-16 -1.6515120791532953e-16 -0.09160652634981695" pbc="T T T"
Si       1.84039896       1.06255483       0.38628234
Si       1.84039896      -1.06255483       3.43069204
Si       1.84039896       1.06255483       2.65812736
Si       1.84039896      -1.06255483      -0.38628234
