4
Lattice="2.0169135051509652 -3.493396665393304 -1.4874255497519572e-17 2.0169135051509652 3.493396665393304 1.4874255497519554e-17 2.855741277884737e-32 -2.8370018832956264e-17 6.663037972201156" Properties=species:S:1:pos:R:3 cutoff=-1.0 nneightol=1.2 n_minim_iter=1 energy=-652.265765614396 free_energy=-652.265765614396 pbc="T T T"
Si       2.01691351       1.16446556       0.41757020
Si       2.01691351      -1.16446556       3.74908919
Si       2.01691351       1.16446556       2.91394879
Si       2.01691351      -1.16446556      -0.41757020
4
Lattice="2.0159223009437635 -3.4916798493457555 -1.6500846054776036e-17 2.0159223009437635 3.4916798493457555 1.650084605477602e-17 2.922715860062292e-32 -2.528154714717497e-17 6.6695918507177225" Properties=species:S:1:pos:R:3 cutoff=-1.0 nneightol=1.2 n_minim_iter=2 stress="0.056609503266603835 -2.4484703192505376e-17 -2.7255190390844745e-17 -2.4484703192505376e-17 0.05660950326660393 8.282561547184457e-18 -2.7255190390844745e-17 8.282561547184457e-18 0.05672982660078663" pbc="T T T"
Si       2.01592230       1.16389328       0.41820634
Si       2.01592230      -1.16389328       3.75300226
Si       2.01592230       1.16389328       2.91658959
Si       2.01592230      -1.16389328      -0.41820634
4
Lattice="2.0156612090204624 -3.491227624869152 -1.9168238969224768e-17 2.0156612090204624 3.491227624869152 1.916823896922481e-17 2.0302835894057101e-32 -2.019937115092279e-17 6.67131980910461" Properties=species:S:1:pos:R:3 cutoff=-1.0 nneightol=1.2 n_minim_iter=3 stress="0.056566793601929184 -4.17110011181939e-18 -5.0875932002687084e-17 -4.17110011181939e-18 0.05656679360192901 4.728044010516985e-18 -5.0875932002687084e-17 4.728044010516985e-18 0.05671599891951219" pbc="T T T"
Si       2.01566121       1.16374254       0.41938522
Si       2.01566121      -1.16374254       3.75504513
Si       2.01566121       1.16374254       2.91627468
Si       2.01566121      -1.16374254      -0.41938522
