4
Lattice="1.9597331589810212 -3.3943574006325847 -1.9623273098880478e-17 1.9597331589810203 3.3943574006325847 1.9623273098880462e-17 3.3416340035938335e-32 -3.7252746114345716e-17 6.44383502333921" Properties=species:S:1:pos:R:3 cutoff=-1.0 nneightol=1.2 n_minim_iter=1 energy=-652.6049771633087 free_energy=-652.6049771633087 pbc="T T T"
Si       1.95973316       1.13145247       0.40197348
Si       1.95973316      -1.13145247       3.62389099
Si       1.95973316       1.13145247       2.81994403
Si       1.95973316      -1.13145247      -0.40197348
