4
Lattice="1.8403989560089282 -3.1876644980041835 -1.7579976401099544e-17 1.8403989560089271 3.1876644980041835 1.7579976401099538e-17 2.195751122084957e-32 -3.741386708860407e-17 6.0888193974378355" Properties=species:S:1:pos:R:3 cutoff=-1.0 nneightol=1.2 n_minim_iter=3 stress="-0.09160093160234198 -2.82321785619057e-16 1.0942408516554235e-16 -2.82321785619057e-16 -0.09160093160234094 -1.6515120791532953e-16 1.0942408516554235e-16 -1.6515120791532953e-16 -0.09160652634981695" pbc="T T T"
Si       1.84039896       1.06255483       0.38628234
Si       1.84039896      -1.06255483       3.43069204
Si       1.84039896       1.06255483       2.65812736
Si       1.84039896      -1.06255483      -0.38628234
