4
Lattice="2.0691175149593697 -3.5838166627402854 -1.6025533110225595e-17 2.06911751495937 3.5838166627402854 1.602553311022534e-17 2.0390287010539474e-31 -5.5153565500662406e-17 6.8815884284927495" Properties=species:S:1:pos:R:3 cutoff=-1.0 nneightol=1.2 n_minim_iter=3 stress="0.06896685210857915 3.5466269012802083e-17 -6.527927413522374e-17 3.5466269012802083e-17 0.0689668521085792 6.4514881562896044e-18 -6.527927413522374e-17 6.4514881562896044e-18 0.069412735188019" pbc="T T T"
Si       2.06911751       1.19460555       0.43633156
Si       2.06911751      -1.19460555       3.87712578
Si       2.06911751       1.19460555       3.00446265
Si       2.06911751      -1.19460555      -0.43633156
