4
Lattice="2.04258804561437 -3.5378662739369062 -2.209457076472961e-17 2.04258804561437 3.5378662739369062 2.209457076472951e-17 6.105220922295459e-32 -3.77240756897454e-17 6.77904739583365" Properties=species:S:1:pos:R:3 cutoff=-1.0 nneightol=1.2 n_minim_iter=4 stress="0.06585064501893147 -1.2572353831755147e-17 -2.8404126541792327e-17 -1.2572353831755147e-17 0.06585064501893172 2.5067996490954735e-17 -2.8404126541792327e-17 2.5067996490954735e-17 0.06597008910406238" pbc="T T T"
Si       2.04258805       1.17928876       0.42846593
Si       2.04258805      -1.17928876       3.81798963
Si       2.04258805       1.17928876       2.96105777
Si       2.04258805      -1.17928876      -0.42846593
