4
Lattice="2.0053246030265854 -3.4733240981099356 -2.0079791045407246e-17 2.0053246030265846 3.4733240981099356 2.0079791045407228e-17 3.6804833188427596e-32 -3.811939802674123e-17 6.593745097860873" Properties=species:S:1:pos:R:3 cutoff=-1.0 nneightol=1.2 n_minim_iter=1 stress="0.04368652316718667 -3.657322528412345e-17 -1.519136080589548e-17 -3.657322528412345e-17 0.04368652316718679 -2.0568044331197313e-18 -1.519136080589548e-17 -2.0568044331197313e-18 0.04022802273604687" pbc="T T T"
Si       2.00532460       1.15777470       0.41132504
Si       2.00532460      -1.15777470       3.70819759
Si       2.00532460       1.15777470       2.88554751
Si       2.00532460      -1.15777470      -0.41132504
