4
Lattice="1.8021455075969637 -3.1214075817899447 -1.6563719001525256e-17 1.8021455075969635 3.1214075817899447 1.656371900152523e-17 2.2274348856973065e-32 -3.426069459160287e-17 5.987192714502454" Properties=species:S:1:pos:R:3 cutoff=-1.0 nneightol=1.2 n_minim_iter=3 stress="-0.1184908580077764 -2.884350773522574e-16 -1.7917807008944533e-16 -2.884350773522574e-16 -0.11849085800777719 -9.068641312049275e-17 -1.7917807008944533e-16 -9.068641312049275e-17 -0.11850021996209573" pbc="T T T"
Si       1.80214551       1.04046919       0.38270388
Si       1.80214551      -1.04046919       3.37630024
Si       1.80214551       1.04046919       2.61089247
Si       1.80214551      -1.04046919      -0.38270388
