4
Lattice="2.0021909838935334 -3.4678965105599198 -1.4765680418721476e-17 2.0021909838935334 3.4678965105599198 1.4765680418721463e-17 1.798272594912277e-32 -4.827853200956747e-17 6.614400924586432" Properties=species:S:1:pos:R:3 cutoff=-1.0 nneightol=1.2 n_minim_iter=4 stress="0.050321961132192165 4.914155312452927e-17 -3.8633507317557034e-17 4.914155312452927e-17 0.05032196113219209 -2.7036672558154825e-17 -3.8633507317557034e-17 -2.7036672558154825e-17 0.049982502498359116" pbc="T T T"
Si       2.00219098       1.15596550       0.41452213
Si       2.00219098      -1.15596550       3.72172260
Si       2.00219098       1.15596550       2.89267833
Si       2.00219098      -1.15596550      -0.41452213
