4
Lattice="1.895735627809003 -3.283510425083676 -1.9194684094465135e-17 1.8957356278090032 3.283510425083676 1.9194684094465144e-17 2.0434704100522923e-32 -3.561603754166953e-17 6.23041616936708" Properties=species:S:1:pos:R:3 cutoff=-1.0 nneightol=1.2 n_minim_iter=2 stress="-0.012233372516404363 -4.413338898493199e-17 -3.497526855795189e-17 -4.413338898493199e-17 -0.012233372516404764 -9.744407179015576e-17 -3.497526855795189e-17 -9.744407179015576e-17 -0.012612080616217918" pbc="T T T"
Si       1.89573563       1.09450348       0.38882978
Si       1.89573563      -1.09450348       3.50403786
Si       1.89573563       1.09450348       2.72637831
Si       1.89573563      -1.09450348      -0.38882978
