1
Lattice="2.805650214592655 1.1969024291516424e-16 -1.2851813977738721e-51 1.4028251072963276 2.429764359970501 -1.4022051468695672e-50 5.333468174985599e-50 2.313477510741977e-49 2.612263346498939" Properties=species:S:1:pos:R:3:forces:R:3 cutoff=-1.0 nneightol=1.2 n_minim_iter=1 energy=-162.7001470510503 stress="0.08783980174376192 -7.793016038319988e-19 1.9482540095800198e-19 -7.793016038319988e-19 0.08783980174376171 -4.870635023950049e-19 1.9482540095800198e-19 -4.870635023950049e-19 0.0957205873002509" free_energy=-162.7001470510503 pbc="T T T"
Si       0.00000000       0.00000000       0.00000000      -0.00000000       0.00000000       0.00000000
