1
Lattice="2.65881163303795 1.1342604597279792e-16 -1.2179191950559155e-51 1.329405816518975 2.3025984180884533 -1.3288183027989401e-50 3.6935667773195627e-50 5.56610839825766e-50 2.475546002885618" Properties=species:S:1:pos:R:3:forces:R:3 cutoff=-1.0 nneightol=1.2 n_minim_iter=1 energy=-162.8366645640124 stress="0.00013209007736536858 6.1808358453926076e-18 1.6158874457855444e-35 6.1808358453926076e-18 0.00013209007736537614 -4.578396922513043e-19 1.6158874457855444e-35 -4.578396922513043e-19 0.0016641754509179017" free_energy=-162.8366645640124 pbc="T T T"
Si       0.00000000       0.00000000       0.00000000       0.00000000       0.00000000       0.00000000
