1
Lattice="2.785609171785108 1.1883528342326736e-16 -1.2760012172673046e-51 1.392804585892554 2.412408307780834 -1.392189053905728e-50 5.0577607821055605e-50 2.011319316394105e-49 2.5936036856190903" Properties=species:S:1:pos:R:3:forces:R:3 cutoff=-1.0 nneightol=1.2 n_minim_iter=1 energy=-162.7329324442111 stress="0.08034148940121584 -6.369943544365975e-18 4.777457658274482e-18 -6.369943544365975e-18 0.08034148940121572 9.455384948668246e-18 4.777457658274482e-18 9.455384948668246e-18 0.08634795904291429" free_energy=-162.7329324442111 pbc="T T T"
Si       0.00000000       0.00000000       0.00000000      -0.00000000      -0.00000000      -0.00000000
