1
Lattice="2.5873402373699994 0.0 0.0 1.2936701186849995 2.240702373796079 0.0 0.0 0.0 2.58734024" Properties=species:S:1:pos:R:3:forces:R:3 cutoff=-1.0 nneightol=1.2 n_minim_iter=1 energy=-162.8010243833284 stress="-0.04113179595511347 -5.0885218038390874e-18 -1.0639636498936273e-17 -5.0885218038390874e-18 -0.041131795955112946 7.285838037315056e-18 -1.0639636498936273e-17 7.285838037315056e-18 0.04695379237246628" free_energy=-162.8010243833284 pbc="T T T"
Si       0.00000000       0.00000000       0.00000000      -0.00000000      -0.00000000      -0.00000000
1
Lattice="2.6806137629806193 1.0725373694693711e-16 -2.2006939428158456e-51 1.3403068814903094 2.3214796164754152 -1.1236324922121737e-50 3.154954109211386e-50 3.204785179009071e-50 2.484824855489047" Properties=species:S:1:pos:R:3:forces:R:3 cutoff=-1.0 nneightol=1.2 n_minim_iter=2 energy=-162.8343108858776 stress="0.01542671837486308 7.224722823537209e-17 1.7949621921831567e-18 7.224722823537209e-17 0.015426718374862359 -6.7311082206868395e-19 1.7949621921831567e-18 -6.7311082206868395e-19 0.011883814527101648" free_energy=-162.8343108858776 pbc="T T T"
Si       0.00000000       0.00000000       0.00000000      -0.00000000       0.00000000      -0.00000000
1
Lattice="2.666157884600333 8.171677736120033e-17 -2.6006524310440872e-51 1.3330789423001663 2.3089604585640693 -1.1532537298956297e-50 3.3386985826428424e-50 3.0357979637361075e-50 2.485851215288973" Properties=species:S:1:pos:R:3:forces:R:3 cutoff=-1.0 nneightol=1.2 n_minim_iter=3 energy=-162.8360276439299 stress="0.005977490109945985 -1.9497601015833922e-17 -2.7205954905814756e-18 -1.9497601015833922e-17 0.005977490109946357 7.028205017335477e-18 -2.7205954905814756e-18 7.028205017335477e-18 0.010230159528095044" free_energy=-162.8360276439299 pbc="T T T"
Si       0.00000000       0.00000000       0.00000000       0.00000000      -0.00000000       0.00000000
1
Lattice="2.658811633037949 1.1342604597279785e-16 -1.2179191950559152e-51 1.3294058165189744 2.302598418088455 -1.328818302798941e-50 3.4667725992217785e-50 2.83979705917233e-50 2.475546002885618" Properties=species:S:1:pos:R:3:forces:R:3 cutoff=-1.0 nneightol=1.2 n_minim_iter=4 energy=-162.8366645640124 stress="0.00013209007736536858 6.1808358453926076e-18 1.6158874457855444e-35 6.1808358453926076e-18 0.00013209007736537614 -4.578396922513043e-19 1.6158874457855444e-35 -4.578396922513043e-19 0.0016641754509179017" free_energy=-162.8366645640124 pbc="T T T"
Si       0.00000000       0.00000000       0.00000000       0.00000000       0.00000000       0.00000000
