1
Lattice="2.702406457276724 1.1528581989466585e-16 -1.2378886327497115e-51 1.3512032286383617 2.340352643352749 -1.3506060818337398e-50 3.7541278161199837e-50 5.6573722976256465e-50 2.516135938460515" Properties=species:S:1:pos:R:3:forces:R:3 cutoff=-1.0 nneightol=1.2 n_minim_iter=1 energy=-162.833187868161 stress="0.016569464803721335 1.3299684718812282e-16 1.7420241949074028e-17 1.3299684718812282e-16 0.0165694648037213 -4.578396922513045e-17 1.7420241949074028e-17 -4.578396922513045e-17 0.019364276531322295" free_energy=-162.833187868161 pbc="T T T"
Si       0.00000000       0.00000000       0.00000000       0.00000000       0.00000000      -0.00000000
