1
Lattice="2.702406457276724 1.152858198946658e-16 -1.2378886327497115e-51 1.351203228638362 2.340352643352749 -1.35060608183374e-50 3.9846405924853904e-50 8.428385210215003e-50 2.516135938460515" Properties=species:S:1:pos:R:3:forces:R:3 cutoff=-1.0 nneightol=1.2 n_minim_iter=1 energy=-162.823546230728 stress="0.03218125907009456 3.924340219296918e-18 3.924340219296896e-18 3.924340219296918e-18 0.03218125907009402 -1.3299152965395032e-17 3.924340219296896e-18 -1.3299152965395032e-17 0.035259654490079485" free_energy=-162.823546230728 pbc="T T T"
Si       0.00000000       0.00000000       0.00000000       0.00000000      -0.00000000       0.00000000
