1
Lattice="2.7856091717851084 1.1883528342326738e-16 -1.2760012172673047e-51 1.392804585892554 2.4124083077808343 -1.3921890539057284e-50 4.820150890992365e-50 1.7256865255287947e-49 2.5936036856190903" Properties=species:S:1:pos:R:3:forces:R:3 cutoff=-1.0 nneightol=1.2 n_minim_iter=1 energy=-162.7623072873546 stress="0.07085251823703162 1.243797830616044e-16 7.73240369135536e-18 1.243797830616044e-16 0.07085251823703144 2.899651384258261e-17 7.73240369135536e-18 2.899651384258261e-17 0.07548150383999924" free_energy=-162.7623072873546 pbc="T T T"
Si       0.00000000       0.00000000       0.00000000      -0.00000000       0.00000000       0.00000000
