1
Lattice="2.560651892568136 1.0705546750260686e-16 -1.431871155334325e-51 1.280325946284068 2.217589589212708 -2.9262650251933275e-50 4.18916720427459e-50 1.5892074172859206e-49 2.402080548402077" Properties=species:S:1:pos:R:3:forces:R:3 cutoff=-1.0 nneightol=1.2 n_minim_iter=2 energy=-162.8044438025101 stress="-0.06081816980966015 1.682870220166957e-17 1.1879083907060867e-17 1.682870220166957e-17 -0.06081816980966034 -8.90931293029565e-18 1.1879083907060867e-17 -8.90931293029565e-18 -0.06082480948899541" free_energy=-162.8044438025101 pbc="T T T"
Si       0.00000000       0.00000000       0.00000000      -0.00000000       0.00000000      -0.00000000
