1
Lattice="2.455845770439577 1.0021241876348232e-16 -2.2096792191294644e-51 1.2279228852197885 2.1268248249772403 -2.520395446742331e-50 5.388528475676845e-50 4.46048261723468e-49 2.3213143188765835" Properties=species:S:1:pos:R:3:forces:R:3 cutoff=-1.0 nneightol=1.2 n_minim_iter=1 energy=-162.5437625020269 stress="-0.22993367782920554 -3.1476478842276527e-18 5.72299615314131e-18 -3.1476478842276527e-18 -0.2299336778292072 -3.584920559053673e-17 5.72299615314131e-18 -3.584920559053673e-17 -0.2443880323930832" free_energy=-162.5437625020269 pbc="T T T"
Si       0.00000000       0.00000000       0.00000000       0.00000000      -0.00000000      -0.00000000
