8
Lattice="5.554797594847839 -1.5449161617658964e-16 2.2159524538824302e-48 -2.7773987974239196 4.8105958300189275 2.3157665296048608e-48 -1.8183638702371224e-48 -3.244074734395081e-48 4.5581498083384755" Properties=species:S:1:pos:R:3:tags:I:1 spacegroup="P 1" unit_cell=conventional n_minim_iter=1 energy=-9783.810506969905 free_energy=-9783.810506969905 pbc="T T T"
Ti       2.77739880       3.24730345       1.13953745        0
Ti      -1.42354370       4.02895205       3.41861235        1
Ti       1.42354371       4.02895205       3.41861235        2
Ti       1.35385509       0.78165341       1.13953745        3
Ti       4.20094251       0.78165341       1.13953745        4
Ti       0.00000000       1.56330201       3.41861235        5
Al       0.00000000       3.20706870       1.13953745        6
Al       2.77739880       1.60353676       3.41861235        7
8
Lattice="5.5438780567373716 -1.663468455665293e-16 2.2107646970445424e-48 -2.7719390283686858 4.801139232617669 2.3095508891328852e-48 -1.826212147667513e-48 -3.258824303475034e-48 4.576123475073612" Properties=species:S:1:pos:R:3:tags:I:1 spacegroup="P 1" unit_cell=conventional n_minim_iter=2 stress="-0.023217942020781524 -2.3992804315692943e-16 -5.4032577050524733e-20 -2.3992804315692943e-16 -0.023217942020783068 -4.4891630588379946e-17 -5.4032577050524733e-20 -4.4891630588379946e-17 -0.02292562682441395" pbc="T T T"
Ti       2.77193903       3.24049941       1.14403087        0
Ti      -1.42038113       4.02082172       3.43209260        1
Ti       1.42038114       4.02082172       3.43209260        2
Ti       1.35155790       0.78032712       1.14403087        3
Ti       4.19232017       0.78032712       1.14403087        4
Ti       0.00000000       1.56064943       3.43209260        5
Al       0.00000000       3.20076429       1.14403087        6
Al       2.77193903       1.60038455       3.43209260        7
8
Lattice="5.544056197573909 -1.48816473493641e-16 2.273633961147656e-48 -2.7720280987869543 4.801293507107563 1.1093255108756757e-48 -3.570906666623351e-48 -4.725720018981465e-49 4.575829401082283" Properties=species:S:1:pos:R:3:tags:I:1 spacegroup="P 1" unit_cell=conventional n_minim_iter=3 stress="-0.022483969553524323 -1.1734021190143518e-16 -1.4050066542951836e-16 -1.1734021190143518e-16 -0.02248396955352496 -9.662476162870805e-17 -1.4050066542951836e-16 -9.662476162870805e-17 -0.022351194210361115" pbc="T T T"
Ti       2.77202810       3.23599058       1.14395735        0
Ti      -1.41643183       4.01864445       3.43187205        1
Ti       1.41643184       4.01864445       3.43187205        2
Ti       1.35559627       0.78265867       1.14395735        3
Ti       4.18845994       0.78265867       1.14395735        4
Ti       0.00000000       1.56531254       3.43187205        5
Al       0.00000000       3.20086714       1.14395735        6
Al       2.77202810       1.60043597       3.43187205        7
