8
Lattice="5.998708680187783 -3.1899646586809666e-16 2.5524610595171327e-48 -2.999354340093891 5.195034106944842 3.484976587832358e-48 -1.9615713403476885e-48 -4.2250458365613355e-48 4.610019409415511" Properties=species:S:1:pos:R:3:tags:I:1 spacegroup="P 1" unit_cell=conventional n_minim_iter=1 energy=-9783.28001196331 free_energy=-9783.28001196331 pbc="T T T"
Ti       2.99935435       3.49726086       1.15250485        0
Ti      -1.52903507       4.34615008       3.45751455        1
Ti       1.52903508       4.34615008       3.45751455        2
Ti       1.47031927       0.84889442       1.15250485        3
Ti       4.52838942       0.84889442       1.15250485        4
Ti       0.00000001       1.69778365       3.45751455        5
Al       0.00000001       3.46336127       1.15250485        6
Al       2.99935435       1.73168324       3.45751455        7
