8
Lattice="5.298314552002313 -1.5546315658832868e-16 -2.142205201025829e-48 -2.6491572760011564 4.58847499927477 3.338652484387819e-48 1.7659859230568458e-48 -2.158501656233025e-48 4.367811687826495" Properties=species:S:1:pos:R:3:tags:I:1 spacegroup="P 1" unit_cell=conventional n_minim_iter=1 energy=-9782.018342001771 free_energy=-9782.018342001771 pbc="T T T"
Ti       2.64915728       3.06571455       1.09195292        0
Ti      -1.33040406       3.82709707       3.27585876        1
Ti       1.33040407       3.82709707       3.27585876        2
Ti       1.31875321       0.76138711       1.09195292        3
Ti       3.97956135       0.76138711       1.09195292        4
Ti       0.00000000       1.52276963       3.27585876        5
Al       0.00000000       3.05898793       1.09195292        6
Al       2.64915728       1.52949626       3.27585876        7
8
Lattice="5.3025184791973485 -1.5783192245355194e-16 -2.1538938433084475e-48 -2.6512592395986743 4.592115707021331 3.3660332018412075e-48 1.760874211226762e-48 -2.157726425385599e-48 4.360888681873521" Properties=species:S:1:pos:R:3:tags:I:1 spacegroup="P 1" unit_cell=conventional n_minim_iter=2 stress="-0.24836851058522239 -4.258063263514544e-17 -1.0647604468047132e-17 -4.258063263514544e-17 -0.2483685105852222 2.2697458522438166e-17 -1.0647604468047132e-17 2.2697458522438166e-17 -0.2505775130296347" pbc="T T T"
Ti       2.65125924       3.06698872       1.09022217        0
Ti      -1.33045654       3.82955451       3.27066651        1
Ti       1.33045655       3.82955451       3.27066651        2
Ti       1.32080270       0.76257039       1.09022217        3
Ti       3.98171579       0.76257039       1.09022217        4
Ti       0.00000000       1.52513618       3.27066651        5
Al       0.00000000       3.06141507       1.09022217        6
Al       2.65125924       1.53070983       3.27066651        7
8
Lattice="5.3007815681334245 -1.5629428261265068e-16 -1.9440579807755317e-48 -2.6503907840667122 4.590611497915859 3.3654676279245846e-48 1.6761592442316266e-48 -2.208229153874306e-48 4.3637470214107275" Properties=species:S:1:pos:R:3:tags:I:1 spacegroup="P 1" unit_cell=conventional n_minim_iter=3 stress="-0.24865452667678462 -1.9246130690248592e-16 1.7764465423874456e-16 -1.9246130690248592e-16 -0.24865452667678428 2.0097314293428288e-16 1.7764465423874456e-16 2.0097314293428288e-16 -0.24912628330577635" pbc="T T T"
Ti       2.65039079       3.06392591       1.09093675        0
Ti      -1.32823829       3.82727100       3.27281026        1
Ti       1.32823830       3.82727100       3.27281026        2
Ti       1.32215249       0.76334969       1.09093675        3
Ti       3.97862909       0.76334969       1.09093675        4
Ti       0.00000000       1.52669478       3.27281026        5
Al       0.00000000       3.06041226       1.09093675        6
Al       2.65039079       1.53020843       3.27281026        7
8
Lattice="5.300306906645802 -1.5666967477357594e-16 -4.450256201451792e-48 -2.650153453322901 4.590200429009379 3.3652852084953266e-48 2.9899202105243966e-49 1.7740141755716346e-49 4.3645286347910695" Properties=species:S:1:pos:R:3:tags:I:1 spacegroup="P 1" unit_cell=conventional n_minim_iter=4 stress="-0.2487441039953036 -1.732017418339775e-16 -1.969080472671233e-16 -1.732017418339775e-16 -0.2487441039953046 2.7260573268995884e-17 -1.969080472671233e-16 2.7260573268995884e-17 -0.2487423367911981" pbc="T T T"
Ti       2.65015346       3.06313374       1.09113216        0
Ti      -1.32767093       3.82666938       3.27339647        1
Ti       1.32767094       3.82666938       3.27339647        2
Ti       1.32248253       0.76354023       1.09113216        3
Ti       3.97782439       0.76354023       1.09113216        4
Ti       0.00000000       1.52707587       3.27339647        5
Al       0.00000000       3.06013821       1.09113216        6
Al       2.65015346       1.53007140       3.27339647        7
