8
Lattice="5.3874630817637 -1.4844241792966942e-16 2.0701075554376492e-48 -2.69373154088185 4.665679890758163 9.332134469272288e-49 -1.7187113897242592e-48 -1.886963387038842e-48 4.4729531738695805" Properties=species:S:1:pos:R:3:tags:I:1 spacegroup="P 1" unit_cell=conventional n_minim_iter=1 energy=-9783.15965969637 free_energy=-9783.15965969637 pbc="T T T"
Ti       2.69373155       3.13016877       1.11823829        0
Ti      -1.36393586       3.89792667       3.35471488        1
Ti       1.36393587       3.89792667       3.35471488        2
Ti       1.32979568       0.76776256       1.11823829        3
Ti       4.05766741       0.76776256       1.11823829        4
Ti       0.00000000       1.53552046       3.35471488        5
Al       0.00000000       3.11045793       1.11823829        6
Al       2.69373155       1.55523130       3.35471488        7
8
Lattice="5.396311146421648 -1.5706294926285878e-16 2.075257303138145e-48 -2.698155573210824 4.673342539526275 9.382459441789768e-49 -1.7116278279911563e-48 -1.8765889465089936e-48 4.458297038738247" Properties=species:S:1:pos:R:3:tags:I:1 spacegroup="P 1" unit_cell=conventional n_minim_iter=2 stress="-0.12559051608479543 1.3565109472520905e-17 -4.012232734465711e-17 1.3565109472520905e-17 -0.12559051608479518 1.3922996361873061e-16 -4.012232734465711e-17 1.3922996361873061e-16 -0.1270629511038457" pbc="T T T"
Ti       2.69815558       3.13439028       1.11457426        0
Ti      -1.36537977       3.90386875       3.34372278        1
Ti       1.36537978       3.90386875       3.34372278        2
Ti       1.33277580       0.76948314       1.11457426        3
Ti       4.06353535       0.76948314       1.11457426        4
Ti       0.00000000       1.53896161       3.34372278        5
Al       0.00000000       3.11556637       1.11457426        6
Al       2.69815558       1.55778552       3.34372278        7
8
Lattice="5.394443812441164 -1.5212094472507603e-16 -1.8158138277367646e-48 -2.697221906220582 4.671725380861825 3.79149531104532e-48 -1.716157567822604e-48 -1.1266717609550065e-47 4.461384130106071" Properties=species:S:1:pos:R:3:tags:I:1 spacegroup="P 1" unit_cell=conventional n_minim_iter=3 stress="-0.12487371842990974 1.1788547067159658e-17 7.779283627577496e-18 1.1788547067159658e-17 -0.12487371842990999 -1.1313050647715746e-17 7.779283627577496e-18 -1.1313050647715746e-17 -0.12482541718237043" pbc="T T T"
Ti       2.69722191       3.12729869       1.11534603        0
Ti      -1.35970511       3.89951437       3.34603810        1
Ti       1.35970511       3.89951437       3.34603810        2
Ti       1.33751680       0.77222036       1.11534603        3
Ti       4.05692702       0.77222036       1.11534603        4
Ti       0.00000000       1.54443604       3.34603810        5
Al       0.00000000       3.11448826       1.11534603        6
Al       2.69722191       1.55724647       3.34603810        7
