8
Lattice="6.143245362656449 -3.2189362856068865e-16 2.6790927090863886e-48 -3.071622681328224 5.320206545741431 2.9438739896662504e-48 -2.0836493146174604e-48 -3.8467764477944106e-48 4.777874593892317" Properties=species:S:1:pos:R:3:tags:I:1 spacegroup="P 1" unit_cell=conventional n_minim_iter=1 energy=-9782.463941243097 free_energy=-9782.463941243097 pbc="T T T"
Ti       3.07162269       3.58358678       1.19446865        0
Ti      -1.56766123       4.45189933       3.58340594        1
Ti       1.56766124       4.45189933       3.58340594        2
Ti       1.50396145       0.86831787       1.19446865        3
Ti       4.63928392       0.86831787       1.19446865        4
Ti       0.00000001       1.73663041       3.58340594        5
Al       0.00000001       3.54680969       1.19446865        6
Al       3.07162269       1.77340751       3.58340594        7
8
Lattice="6.10454878902512 -3.568814966020947e-16 2.7075243555333343e-48 -3.0522743945125597 5.286694329937287 3.0636506332388266e-48 -2.0749118846464044e-48 -3.965484458709884e-48 4.838640223108128" Properties=species:S:1:pos:R:3:tags:I:1 spacegroup="P 1" unit_cell=conventional n_minim_iter=2 stress="0.06914490545049937 -1.2525117349453258e-17 -3.9794112133834935e-18 -1.2525117349453258e-17 0.06914490545049971 -1.6787146225345756e-18 -3.9794112133834935e-18 -1.6787146225345756e-18 0.07131864190838352" pbc="T T T"
Ti       3.05227440       3.56120447       1.20966005        0
Ti      -1.55795175       4.42395204       3.62898016        1
Ti       1.55795176       4.42395204       3.62898016        2
Ti       1.49432264       0.86275287       1.20966005        3
Ti       4.61022616       0.86275287       1.20966005        4
Ti       0.00000001       1.72550045       3.62898016        5
Al       0.00000001       3.52446818       1.20966005        6
Al       3.05227440       1.76223673       3.62898016        7
8
Lattice="6.112337869141982 -3.9056084669150156e-16 2.7136582163377194e-48 -3.0561689345709904 5.293439871190602 3.0551702000370297e-48 -2.0672594474573295e-48 -3.9649740002551354e-48 4.826316119466414" Properties=species:S:1:pos:R:3:tags:I:1 spacegroup="P 1" unit_cell=conventional n_minim_iter=3 stress="0.0709112750804972 -3.1679362900074655e-17 6.680149901890684e-18 -3.1679362900074655e-17 0.07091127508049723 -2.382913020839283e-18 6.680149901890684e-18 -2.382913020839283e-18 0.07092363909695562" pbc="T T T"
Ti       3.05616894       3.56600436       1.20657903        0
Ti      -1.56016131       4.42972476       3.61973709        1
Ti       1.56016132       4.42972476       3.61973709        2
Ti       1.49600763       0.86372570       1.20657903        3
Ti       4.61633025       0.86372570       1.20657903        4
Ti       0.00000001       1.72744611       3.61973709        5
Al       0.00000001       3.52896521       1.20657903        6
Al       3.05616894       1.76448526       3.61973709        7
8
Lattice="6.11360071268604 -4.284044309435324e-16 2.4404388290733705e-48 -3.0568003563430195 5.294533525780761 2.2017883890590743e-48 -2.1783769468262093e-48 -2.6085331147802476e-48 4.824322448976312" Properties=species:S:1:pos:R:3:tags:I:1 spacegroup="P 1" unit_cell=conventional n_minim_iter=4 stress="0.07118130451814084 -4.6111933765969936e-17 -2.264498489684002e-17 -4.6111933765969936e-17 0.07118130451814052 -8.500570127565187e-17 -2.264498489684002e-17 -8.500570127565187e-17 0.07080401172209223" pbc="T T T"
Ti       3.05680036       3.56818818       1.20608061        0
Ti      -1.56173684       4.43136350       3.61824183        1
Ti       1.56173685       4.43136350       3.61824183        2
Ti       1.49506352       0.86318062       1.20608061        3
Ti       4.61853720       0.86318062       1.20608061        4
Ti       0.00000001       1.72635595       3.61824183        5
Al       0.00000001       3.52969432       1.20608061        6
Al       3.05680036       1.76484981       3.61824183        7
