8
Lattice="5.750847869999999 0.0 0.0 -2.8754239349999997 4.9803803487196285 0.0 0.0 0.0 4.65528205" Properties=species:S:1:pos:R:3:tags:I:1 spacegroup="P 1" unit_cell=conventional n_minim_iter=1 energy=-9783.517313932782 free_energy=-9783.517313932782 pbc="T T T"
Ti       2.87542394       3.28996953       1.16382051        0
Ti      -1.41148090       4.13517743       3.49146154        1
Ti       1.41148091       4.13517743       3.49146154        2
Ti       1.46394303       0.84521289       1.16382051        3
Ti       4.28690485       0.84521289       1.16382051        4
Ti       0.00000000       1.69042079       3.49146154        5
Al       0.00000000       3.32025855       1.16382051        6
Al       2.87542394       1.66013177       3.49146154        7
8
Lattice="5.637359130178654 -5.0941572167537945e-18 4.591236966873483e-51 -2.818679565089327 4.882096216990861 -6.113179971916587e-51 -4.9589391907420516e-51 8.595897962091226e-51 4.472745829915378" Properties=species:S:1:pos:R:3:tags:I:1 spacegroup="P 1" unit_cell=conventional n_minim_iter=2 stress="-0.0037406006833316007 1.6064560351529274e-16 -1.0005687397447885e-16 1.6064560351529274e-16 -0.0037406006833313413 1.9569815218932897e-16 -1.0005687397447885e-16 1.9569815218932897e-16 -0.04185807446028058" pbc="T T T"
Ti       2.81867957       3.22794453       1.11818646        0
Ti      -1.38613794       4.05502282       3.35455937        1
Ti       1.38613795       4.05502282       3.35455937        2
Ti       1.43254162       0.82708317       1.11818646        3
Ti       4.20481752       0.82708317       1.11818646        4
Ti       0.00000000       1.65416146       3.35455937        5
Al       0.00000000       3.25473570       1.11818646        6
Al       2.81867957       1.62737029       3.35455937        7
8
Lattice="5.583558465358197 -7.999620822566614e-17 1.5873804793263283e-49 -2.7917792326790987 4.835503474515854 7.786627171841573e-49 5.3249053663380835e-49 1.0524607939812448e-48 4.576148005727221" Properties=species:S:1:pos:R:3:tags:I:1 spacegroup="P 1" unit_cell=conventional n_minim_iter=3 stress="-0.004767557594275214 -1.603275623115605e-17 -2.1599191870978255e-18 -1.603275623115605e-17 -0.004767557594274697 -5.971538331012959e-18 -2.1599191870978255e-18 -5.971538331012959e-18 -0.007124076075460815" pbc="T T T"
Ti       2.79177924       3.20460058       1.14403700        0
Ti      -1.37937170       4.02005445       3.43211100        1
Ti       1.37937171       4.02005445       3.43211100        2
Ti       1.41240753       0.81545871       1.14403700        3
Ti       4.17115094       0.81545871       1.14403700        4
Ti       0.00000000       1.63091257       3.43211100        5
Al       0.00000000       3.22367382       1.14403700        6
Al       2.79177924       1.61183933       3.43211100        7
8
Lattice="5.601648132219297 -7.637106162434002e-17 5.297962139104726e-49 -2.8008240661096484 4.8511695855635635 7.910418720111606e-49 2.8912500419603376e-49 1.2865548371461596e-48 4.612406304032393" Properties=species:S:1:pos:R:3:tags:I:1 spacegroup="P 1" unit_cell=conventional n_minim_iter=4 stress="0.00446963686828771 -2.1891330365379606e-16 1.2371463131383386e-16 -2.1891330365379606e-16 0.00446963686828737 -1.4531912024393734e-16 1.2371463131383386e-16 -1.4531912024393734e-16 0.013423129939988203" pbc="T T T"
Ti       2.80082407       3.22734253       1.15310157        0
Ti      -1.39454438       4.03925849       3.45930473        1
Ti       1.39454439       4.03925849       3.45930473        2
Ti       1.40627969       0.81192081       1.15310157        3
Ti       4.19536845       0.81192081       1.15310157        4
Ti       0.00000000       1.62383676       3.45930473        5
Al       0.00000000       3.23411791       1.15310157        6
Al       2.80082407       1.61706138       3.45930473        7
8
Lattice="5.581310322428414 1.2933689790712775e-16 4.857861628747493e-49 -2.790655161214207 4.833556525627323 1.5909355405321007e-48 1.0703792103378918e-49 2.2875991269401488e-48 4.637125033372391" Properties=species:S:1:pos:R:3:tags:I:1 spacegroup="P 1" unit_cell=conventional n_minim_iter=5 stress="0.001026692696441622 -5.0358184029562173e-17 -5.5421795861730896e-17 -5.0358184029562173e-17 0.0010266926964413948 1.003781670230142e-17 -5.5421795861730896e-17 1.003781670230142e-17 0.02007329675418575" pbc="T T T"
Ti       2.79065517       3.24012163       1.15928126        0
Ti      -1.41069587       4.03684150       3.47784377        1
Ti       1.41069588       4.03684150       3.47784377        2
Ti       1.37995929       0.79672470       1.15928126        3
Ti       4.20135104       0.79672470       1.15928126        4
Ti       0.00000000       1.59344457       3.47784377        5
Al       0.00000000       3.22237585       1.15928126        6
Al       2.79065517       1.61119035       3.47784377        7
8
Lattice="5.60858308433411 -1.2263718160218845e-16 1.6499306686997998e-48 -2.804291542167055 4.857175430269022 1.948715106902017e-48 2.137376186117213e-50 7.607334099634363e-49 4.606731649457332" Properties=species:S:1:pos:R:3:tags:I:1 spacegroup="P 1" unit_cell=conventional n_minim_iter=6 stress="0.002870230342302784 -5.100760523520957e-18 -2.1809271682618142e-17 -5.100760523520957e-18 0.002870230342303152 8.360726705411543e-17 -2.1809271682618142e-17 8.360726705411543e-17 0.007127507499431425" pbc="T T T"
Ti       2.80429155       3.28204107       1.15168291        0
Ti      -1.44018095       4.06961068       3.45504873        1
Ti       1.44018096       4.06961068       3.45504873        2
Ti       1.36411059       0.78757447       1.15168291        3
Ti       4.24447251       0.78757447       1.15168291        4
Ti       0.00000000       1.57514409       3.45504873        5
Al       0.00000000       3.23812181       1.15168291        6
Al       2.80429155       1.61906334       3.45504873        7
8
Lattice="5.601874395307467 -1.5580092958778886e-16 2.23473260738365e-48 -2.8009371976537336 4.851365535145859 2.3353926054363952e-48 8.120004728922642e-50 7.933818461744112e-49 4.596780038392451" Properties=species:S:1:pos:R:3:tags:I:1 spacegroup="P 1" unit_cell=conventional n_minim_iter=7 stress="-2.642490537245915e-06 -3.5805665156324883e-16 8.34861123832194e-18 -3.5805665156324883e-16 -2.6424905373881084e-06 4.406754039486045e-18 8.34861123832194e-18 4.406754039486045e-18 0.0009994910350454315" pbc="T T T"
Ti       2.80093720       3.27482428       1.14919501        0
Ti      -1.43560821       4.06309733       3.44758503        1
Ti       1.43560822       4.06309733       3.44758503        2
Ti       1.36532899       0.78827791       1.14919501        3
Ti       4.23654542       0.78827791       1.14919501        4
Ti       0.00000000       1.57655097       3.44758503        5
Al       0.00000000       3.23424855       1.14919501        6
Al       2.80093720       1.61712670       3.44758503        7
