8
Lattice="5.7364955529861374 -1.9195961642636927e-16 1.3191709774622963e-48 -2.8682477764930687 4.967950877582456 2.2977105196453364e-48 -1.051199096827863e-48 -2.720937577017456e-48 4.602739893433569" Properties=species:S:1:pos:R:3:tags:I:1 spacegroup="P 1" unit_cell=conventional n_minim_iter=2 stress="0.026754616589471574 5.165949802787284e-17 -5.4463298506868353e-17 5.165949802787284e-17 0.026754616589471737 1.9351365753381242e-17 -5.4463298506868353e-17 1.9351365753381242e-17 0.026744898461477897" pbc="T T T"
Ti       2.86824778       3.35580279       1.15068497        0
Ti      -1.47208227       4.16187932       3.45205492        1
Ti       1.47208228       4.16187932       3.45205492        2
Ti       1.39616551       0.80608150       1.15068497        3
Ti       4.34033005       0.80608150       1.15068497        4
Ti       0.00000000       1.61215803       3.45205492        5
Al       0.00000000       3.31197222       1.15068497        6
Al       2.86824778       1.65598860       3.45205492        7
