8
Lattice="5.300306906645802 -1.5666967477357594e-16 -4.450256201451792e-48 -2.650153453322901 4.590200429009379 3.3652852084953266e-48 2.9899202105243966e-49 1.7740141755716346e-49 4.3645286347910695" Properties=species:S:1:pos:R:3:tags:I:1 spacegroup="P 1" unit_cell=conventional n_minim_iter=4 stress="-0.2487441039953036 -1.732017418339775e-16 -1.969080472671233e-16 -1.732017418339775e-16 -0.2487441039953046 2.7260573268995884e-17 -1.969080472671233e-16 2.7260573268995884e-17 -0.2487423367911981" pbc="T T T"
Ti       2.65015346       3.06313374       1.09113216        0
Ti      -1.32767093       3.82666938       3.27339647        1
Ti       1.32767094       3.82666938       3.27339647        2
Ti       1.32248253       0.76354023       1.09113216        3
Ti       3.97782439       0.76354023       1.09113216        4
Ti       0.00000000       1.52707587       3.27339647        5
Al       0.00000000       3.06013821       1.09113216        6
Al       2.65015346       1.53007140       3.27339647        7
