8
Lattice="5.192559184963098 -1.5147958394908325e-16 -4.9341106975725105e-48 -2.596279592481549 4.496888164832264 2.2527741769622524e-48 3.0346987442409583e-48 -2.577102960907232e-48 4.280037092615512" Properties=species:S:1:pos:R:3:tags:I:1 spacegroup="P 1" unit_cell=conventional n_minim_iter=2 stress="-0.33410487210495016 -2.295819240992165e-17 6.743713654244346e-17 -2.295819240992165e-17 -0.3341048721049499 -6.629231805181356e-17 6.743713654244346e-17 -6.629231805181356e-17 -0.33229208373174957" pbc="T T T"
Ti       2.59627960       2.99760789       1.07000927        0
Ti      -1.29786089       3.74725028       3.21002782        1
Ti       1.29786089       3.74725028       3.21002782        2
Ti       1.29841871       0.74964689       1.07000927        3
Ti       3.89414049       0.74964689       1.07000927        4
Ti       0.00000000       1.49928927       3.21002782        5
Al       0.00000000       2.99792994       1.07000927        6
Al       2.59627960       1.49896722       3.21002782        7
