8
Lattice="6.166119402619838 -3.3152034038361936e-16 2.6846895353908935e-48 -3.083059701309918 5.340016045436906 3.498492046490956e-48 -2.023554121037235e-48 -4.213185349678763e-48 4.647642181151608" Properties=species:S:1:pos:R:3:tags:I:1 spacegroup="P 1" unit_cell=conventional n_minim_iter=1 stress="0.07346301462598451 1.673471590382562e-16 -1.9035982740253418e-17 1.673471590382562e-16 0.0734630146259843 2.3089683335721928e-17 -1.9035982740253418e-17 2.3089683335721928e-17 0.06535272767533522" pbc="T T T"
Ti       3.08305971       3.58806919       1.16191054        0
Ti      -1.56582459       4.46404529       3.48573163        1
Ti       1.56582460       4.46404529       3.48573163        2
Ti       1.51723512       0.87598144       1.16191054        3
Ti       4.64888430       0.87598144       1.16191054        4
Ti       0.00000001       1.75195754       3.48573163        5
Al       0.00000001       3.56001604       1.16191054        6
Al       3.08305971       1.78001069       3.48573163        7
