8
Lattice="5.440903515178192 -1.6364718839002908e-16 2.230763653729738e-48 -2.720451757589096 4.711960663684371 1.0839090083136003e-48 -1.8489972492762367e-48 -2.110138297265062e-48 4.507338141671725" Properties=species:S:1:pos:R:3:tags:I:1 spacegroup="P 1" unit_cell=conventional n_minim_iter=3 stress="-0.051235362634332336 1.0259944922949062e-16 -5.745017351229248e-17 1.0259944922949062e-16 -0.0512353626343306 3.3816176743933653e-16 -5.745017351229248e-17 3.3816176743933653e-16 -0.05113096665634943" pbc="T T T"
Ti       2.72045176       3.16863337       1.12683453        0
Ti      -1.38388702       3.94029937       3.38050360        1
Ti       1.38388703       3.94029937       3.38050360        2
Ti       1.33656474       0.77167072       1.12683453        3
Ti       4.10433879       0.77167072       1.12683453        4
Ti       0.00000000       1.54333673       3.38050360        5
Al       0.00000000       3.14131183       1.12683453        6
Al       2.72045176       1.57065827       3.38050360        7
