8
Lattice="5.496260231296049 -1.4753350901867687e-16 2.254032693003447e-48 -2.7481301156480247 4.7599009861125126 1.0997618840256836e-48 -3.540121456564694e-48 -4.6849790259942935e-49 4.536380632896442" Properties=species:S:1:pos:R:3:tags:I:1 spacegroup="P 1" unit_cell=conventional n_minim_iter=3 stress="-0.022483969553524323 -1.1734021190143518e-16 -1.4050066542951836e-16 -1.1734021190143518e-16 -0.02248396955352496 -9.662476162870805e-17 -1.4050066542951836e-16 -9.662476162870805e-17 -0.022351194210361115" pbc="T T T"
Ti       2.74813012       3.20809272       1.13409516        0
Ti      -1.40422060       3.98399923       3.40228547        1
Ti       1.40422061       3.98399923       3.40228547        2
Ti       1.34390951       0.77591128       1.13409516        3
Ti       4.15235073       0.77591128       1.13409516        4
Ti       0.00000000       1.55181779       3.40228547        5
Al       0.00000000       3.17327209       1.13409516        6
Al       2.74813012       1.58663843       3.40228547        7
