8
Lattice="5.247825173336017 -1.5511838798320384e-16 -4.4061913645964085e-48 -2.6239125866680086 4.544749914728466 3.331963364320197e-48 2.960315095599914e-49 1.7564485250366835e-49 4.32131264147815" Properties=species:S:1:pos:R:3:tags:I:1 spacegroup="P 1" unit_cell=conventional n_minim_iter=4 stress="-0.2487441039953036 -1.732017418339775e-16 -1.969080472671233e-16 -1.732017418339775e-16 -0.2487441039953046 2.7260573268995884e-17 -1.969080472671233e-16 2.7260573268995884e-17 -0.2487423367911981" pbc="T T T"
Ti       2.62391259       3.03280370       1.08032816        0
Ti      -1.31452481       3.78877908       3.24098448        1
Ti       1.31452482       3.78877908       3.24098448        2
Ti       1.30938778       0.75597993       1.08032816        3
Ti       3.93843740       0.75597993       1.08032816        4
Ti       0.00000000       1.51195532       3.24098448        5
Al       0.00000000       3.02983783       1.08032816        6
Al       2.62391259       1.51492119       3.24098448        7
