8
Lattice="5.436892109600122 -1.4980435105043416e-16 2.0891004287862342e-48 -2.718446054800061 4.708486684548875 9.41775516447786e-49 -1.809593953012673e-48 -2.2058202334821518e-48 4.51399173387208" Properties=species:S:1:pos:R:3:tags:I:1 spacegroup="P 1" unit_cell=conventional n_minim_iter=4 stress="-0.08615188671528508 -3.7771658537454684e-16 2.0223982243319366e-17 -3.7771658537454684e-16 -0.08615188671528501 -8.338012553844209e-18 2.0223982243319366e-17 -8.338012553844209e-18 -0.08631362279061706" pbc="T T T"
Ti       2.71844606       3.15888752       1.12849793        0
Ti      -1.37644973       3.93368946       3.38549380        1
Ti       1.37644974       3.93368946       3.38549380        2
Ti       1.34199633       0.77480665       1.12849793        3
Ti       4.09489579       0.77480665       1.12849793        4
Ti       0.00000000       1.54960859       3.38549380        5
Al       0.00000000       3.13899584       1.12849793        6
Al       2.71844606       1.56950027       3.38549380        7
