8
Lattice="5.781666669130269 -1.9347117170406223e-16 1.3295585781998055e-48 -2.8908333345651345 5.0070702116805705 2.3158034733990378e-48 -1.0594765958784288e-48 -2.742363164499766e-48 4.638983432086586" Properties=species:S:1:pos:R:3:tags:I:1 spacegroup="P 1" unit_cell=conventional n_minim_iter=2 stress="0.026754616589471574 5.165949802787284e-17 -5.4463298506868353e-17 5.165949802787284e-17 0.026754616589471737 1.9351365753381242e-17 -5.4463298506868353e-17 1.9351365753381242e-17 0.026744898461477897" pbc="T T T"
Ti       2.89083334       3.38222752       1.15974586        0
Ti      -1.48367394       4.19465137       3.47923757        1
Ti       1.48367395       4.19465137       3.47923757        2
Ti       1.40715939       0.81242886       1.15974586        3
Ti       4.37450729       0.81242886       1.15974586        4
Ti       0.00000001       1.62485271       3.47923757        5
Al       0.00000001       3.33805182       1.15974586        6
Al       2.89083334       1.66902842       3.47923757        7
