14
Lattice="2.9747036523654202 -0.6030352087945754 -2.0933763838920264e-13 -0.548228710739658 5.15718255293427 2.5628102844140757e-13 1.4650151960111503e-12 -1.0256104983268055e-12 23.77243449213529" Properties=species:S:1:pos:R:3 unique_starting_index=0 config_type=initial n_minim_iter=1 energy=-2290.616526248259 free_energy=-2290.616526248259 pbc="T T T"
Si       0.20102156       0.99756681      19.11383747
Si       1.01221591       1.27950687       7.22762022
Si       2.22545338       3.55658054       4.65859702
Si       1.41425903       3.27464048      16.54481427
Si       2.46862305       0.82498775       8.52152828
Si       1.71931808       0.84905071      20.40774552
Si      -0.04214810       3.72915960      15.25090622
Si       0.70715686       3.70509663       3.36468897
Si       1.13888616       1.90432464       9.55634495
Si       0.07435131       0.37274903      21.44256219
Si       1.28758878       2.64982270      14.21608954
Si       2.35212363       4.18139831       2.32987230
Si       1.48735183      -0.30151760      -0.00000000
Si      -0.27411436       2.57859128      11.88621725
