10
Lattice="5.700766155357171 0.8735260676038658 1.9955784039268725e-15 -1.7331736886888975 4.813780234339899 -4.2047483463904524e-14 -1.5659096070049414e-14 7.985583959456816e-14 9.787982505903175" Properties=species:S:1:pos:R:3 unique_starting_index=14 config_type=initial n_minim_iter=9 energy=-1637.657596590772 free_energy=-1637.657596590772 pbc="T T T"
Si       1.04335143       2.60795077       0.70201283
Si       2.92424104       3.07935554       0.70201283
Si       2.36651744       1.31335293       1.46399416
Si       1.60107503       4.37395337       1.46399416
Si       2.21563443       1.20994092       6.05473972
Si       1.75195803       4.47736538       6.05473972
Si       1.55133730       3.74882244       3.36580201
Si       2.41625517       1.93848386       3.36580201
Si      -0.20108987       4.17029597       6.36600403
Si       4.16868233       1.51701033       6.36600403
