22
Lattice="8.991442351148466 -3.370541527301312 -2.7520424523485407 -7.550949832888287 10.604059946202243 -0.13771764235269748 -6.479667069886158 -1.0220281613822568 13.875640907352897" Properties=species:S:1:pos:R:3 unique_starting_index=18 config_type=initial n_minim_iter=1 energy=-3639.059025459095 free_energy=-3639.059025459095 pbc="T T T"
Si      -1.77052388       7.85838727      -0.58032582
Si      -1.10202059       0.60594888       6.80226194
Si      -5.26414584      -0.42953443      11.06720819
Si       0.43312596      -1.14695295      11.69731299
Si      -9.11007640       3.43563698      12.94746600
Si       6.14003532       0.60225194      -0.64504108
Si       5.31601199      -1.05328644      -1.40595060
Si      -1.93732604       0.80993377      10.59431593
Si      -2.42760063      -0.91688734      11.39926273
Si      -8.17562687       3.89681353       8.98639228
Si       0.22421660       0.52282147       4.32470624
Si      -6.46295619       5.96623654       7.49738586
Si      -4.83594384      -0.79647177       9.37823408
Si      -2.81716554       6.24119588      -0.02617067
Si      -0.33912694       1.89497348       5.47512742
Si      -1.18251759       6.78146092       1.00113519
Si      -2.23743283       1.51299427       3.81730874
Si       4.05144345      -5.28227024       8.10319631
Si      -0.36130936       2.17110929       3.57457210
Si      -6.48102567       4.90133857       8.61176803
Si      -6.06390966       4.73189932       6.78869059
Si      -2.84402142      -0.57856320       9.50062565
22
Lattice="8.991366497373871 -3.3705412518844096 -2.752087870931801 -7.55084202016756 10.6041019427313 -0.137628291516711 -6.479677382660537 -1.021988920476971 13.875609656531623" Properties=species:S:1:pos:R:3 unique_starting_index=18 config_type=initial n_minim_iter=2 stress="-0.00017051693780313672 -5.431419738278906e-05 -6.1418883041646415e-06 -5.431419738278906e-05 -6.893298334526928e-05 8.849224842008165e-06 -6.1418883041646415e-06 8.849224842008165e-06 -4.517241500959517e-05" pbc="T T T"
Si      -1.77047188       7.85843333      -0.58028032
Si      -1.10204179       0.60599230       6.80223578
Si      -5.26414839      -0.42949879      11.06718208
Si       0.43306217      -1.14689745      11.69726049
Si      -9.11004898       3.43568315      12.94746547
Si       6.13997751       0.60225745      -0.64507481
Si       5.31598206      -1.05325853      -1.40597477
Si      -1.93733792       0.80999202      10.59429393
Si      -2.42762444      -0.91684444      11.39921844
Si      -8.17557519       3.89686696       8.98642958
Si       0.22418998       0.52285364       4.32468862
Si      -6.46290486       5.96629805       7.49741496
Si      -4.83595319      -0.79645608       9.37821733
Si      -2.81713274       6.24121408      -0.02611567
Si      -0.33913929       1.89501495       5.47512351
Si      -1.18249149       6.78150951       1.00116747
Si      -2.23742216       1.51301061       3.81732479
Si       4.05136782      -5.28223303       8.10311994
Si      -0.36131275       2.17114201       3.57457115
Si      -6.48099584       4.90139032       8.61179663
Si      -6.06386198       4.73194039       6.78871421
Si      -2.84403239      -0.57853481       9.50059624
22
Lattice="8.99140477338152 -3.370527081012315 -2.7521069739108754 -7.550837095544345 10.604133943774377 -0.13760193318775604 -6.479735216510302 -1.022001470649482 13.87562777254798" Properties=species:S:1:pos:R:3 unique_starting_index=18 config_type=initial n_minim_iter=3 stress="7.146766419311257e-06 1.5324512231498555e-05 -8.884842195209187e-06 1.5324512231498555e-05 2.5245272745345826e-05 3.5486601919678356e-06 -8.884842195209187e-06 3.5486601919678356e-06 1.2977140694537522e-05" pbc="T T T"
Si      -1.77044662       7.85847337      -0.58026903
Si      -1.10205639       0.60600483       6.80224077
Si      -5.26419195      -0.42950593      11.06719566
Si       0.43304296      -1.14688421      11.69726757
Si      -9.11010324       3.43568161      12.94748956
Si       6.14000968       0.60227892      -0.64508742
Si       5.31601221      -1.05323793      -1.40598507
Si      -1.93735419       0.81000659      10.59430882
Si      -2.42765288      -0.91684296      11.39922662
Si      -8.17561217       3.89687476       8.98646052
Si       0.22418422       0.52286651       4.32469183
Si      -6.46292200       5.96632128       7.49743816
Si      -4.83599774      -0.79647077       9.37823127
Si      -2.81712732       6.24123501      -0.02609825
Si      -0.33913980       1.89503425       5.47513343
Si      -1.18247305       6.78154764       1.00117888
Si      -2.23743246       1.51301327       3.81733869
Si       4.05136297      -5.28222898       8.10311313
Si      -0.36130993       2.17115936       3.57457772
Si      -6.48102381       4.90140564       8.61182312
Si      -6.06388046       4.73195259       6.78873449
Si      -2.84405888      -0.57853845       9.50060592
22
Lattice="8.991485893359666 -3.370526769280874 -2.752041215697876 -7.550936750183642 10.60408156638742 -0.13763871149172335 -6.479726392409869 -1.0219791738273325 13.875488857802951" Properties=species:S:1:pos:R:3 unique_starting_index=18 config_type=initial n_minim_iter=4 stress="9.02172680678299e-05 -2.0276975887248595e-05 1.0594061107850202e-05 -2.0276975887248595e-05 -0.0001160613954868853 4.407846990540476e-05 1.0594061107850202e-05 4.407846990540476e-05 -2.3184027238270823e-05" pbc="T T T"
Si      -1.77049689       7.85842496      -0.58028137
Si      -1.10204342       0.60601269       6.80217152
Si      -5.26418133      -0.42948640      11.06707765
Si       0.43310993      -1.14687742      11.69717728
Si      -9.11014239       3.43567335      12.94732747
Si       6.14005394       0.60224839      -0.64506326
Si       5.31606142      -1.05325641      -1.40595091
Si      -1.93732173       0.81000522      10.59422462
Si      -2.42760691      -0.91682904      11.39911027
Si      -8.17565417       3.89689099       8.98637155
Si       0.22419566       0.52287022       4.32466798
Si      -6.46295483       5.96630729       7.49734451
Si      -4.83599556      -0.79646801       9.37814037
Si      -2.81717020       6.24119941      -0.02610064
Si      -0.33911928       1.89502721       5.47509540
Si      -1.18250940       6.78150832       1.00116379
Si      -2.23743761       1.51298223       3.81731039
Si       4.05148235      -5.28217842       8.10307171
Si      -0.36131238       2.17114124       3.57454792
Si      -6.48106454       4.90138932       8.61173830
Si      -6.06390488       4.73193172       6.78865086
Si      -2.84403131      -0.57854066       9.50051421
22
Lattice="8.991425028763816 -3.37054768755997 -2.751915996340943 -7.5508948178940605 10.604273741309296 -0.13781720572228442 -6.479604768342882 -1.0221722065190033 13.875340219205873" Properties=species:S:1:pos:R:3 unique_starting_index=18 config_type=initial n_minim_iter=5 stress="-2.4961315081037082e-06 -3.689277384975974e-05 4.640780104448833e-05 -3.689277384975974e-05 2.2327777817692245e-05 -3.205207681883514e-05 4.640780104448833e-05 -3.205207681883514e-05 7.149144688837296e-05" pbc="T T T"
Si      -1.77050748       7.85857373      -0.58039597
Si      -1.10200918       0.60595564       6.80207968
Si      -5.26407200      -0.42962407      11.06693970
Si       0.43319218      -1.14703786      11.69709046
Si      -9.11002719       3.43555866      12.94707903
Si       6.14000643       0.60225756      -0.64504271
Si       5.31602733      -1.05328404      -1.40590226
Si      -1.93723865       0.80988941      10.59412700
Si      -2.42749661      -0.91698182      11.39897452
Si      -8.17555773       3.89689315       8.98623584
Si       0.22420372       0.52284488       4.32464839
Si      -6.46285490       5.96634321       7.49715748
Si      -4.83590392      -0.79663001       9.37804909
Si      -2.81715074       6.24131251      -0.02617142
Si      -0.33907223       1.89501235       5.47503144
Si      -1.18251877       6.78162316       1.00106473
Si      -2.23739524       1.51291058       3.81726745
Si       4.05157200      -5.28231747       8.10309694
Si      -0.36131116       2.17112818       3.57448871
Si      -6.48098788       4.90137458       8.61159072
Si      -6.06380254       4.73192418       6.78849327
Si      -2.84394722      -0.57869640       9.50041171
22
Lattice="8.991410536816609 -3.3705056497499655 -2.751919805258728 -7.550823261119332 10.604267032962888 -0.13777713170524528 -6.479669939171378 -1.022211387386494 13.875175975010361" Properties=species:S:1:pos:R:3 unique_starting_index=18 config_type=initial n_minim_iter=6 stress="-4.827413843210892e-06 2.1773328871320052e-05 -2.0989547361150473e-05 2.1773328871320052e-05 1.4247893628633137e-05 -2.9057489903736364e-06 -2.0989547361150473e-05 -2.9057489903736364e-06 -4.504641214044749e-05" pbc="T T T"
Si      -1.77046373       7.85858840      -0.58037733
Si      -1.10204527       0.60595843       6.80198377
Si      -5.26411685      -0.42965015      11.06680369
Si       0.43313111      -1.14703406      11.69692137
Si      -9.11006411       3.43551466      12.94692959
Si       6.14000277       0.60229290      -0.64506829
Si       5.31602302      -1.05326785      -1.40591515
Si      -1.93728027       0.80988402      10.59399459
Si      -2.42754144      -0.91699562      11.39881366
Si      -8.17557447       3.89687712       8.98616378
Si       0.22418020       0.52285696       4.32460003
Si      -6.46284177       5.96633626       7.49708150
Si      -4.83594203      -0.79667139       9.37794435
Si      -2.81711134       6.24131735      -0.02615073
Si      -0.33908172       1.89502753       5.47495909
Si      -1.18249009       6.78164165       1.00105874
Si      -2.23740123       1.51288395       3.81723215
Si       4.05152196      -5.28228832       8.10296473
Si      -0.36132400       2.17113155       3.57444090
Si      -6.48099353       4.90136095       8.61151214
Si      -6.06378986       4.73190395       6.78842767
Si      -2.84399121      -0.57872420       9.50028726
22
Lattice="8.991439741493084 -3.3704999027973 -2.7518782008136005 -7.550839764371065 10.604264680451085 -0.1377681009998677 -6.479648733980935 -1.0221756320644129 13.875062594577763" Properties=species:S:1:pos:R:3 unique_starting_index=18 config_type=initial n_minim_iter=7 stress="-3.4801841241308888e-06 1.1941264179924758e-05 2.7506615118964635e-05 1.1941264179924758e-05 6.570454639026384e-06 1.8866099867370187e-05 2.7506615118964635e-05 1.8866099867370187e-05 -7.273015841750362e-06" pbc="T T T"
Si      -1.77050419       7.85855278      -0.58033738
Si      -1.10207761       0.60599875       6.80192392
Si      -5.26408032      -0.42959857      11.06669184
Si       0.43315334      -1.14699250      11.69683521
Si      -9.11006754       3.43553417      12.94679012
Si       6.14000798       0.60228340      -0.64506283
Si       5.31605705      -1.05328862      -1.40594370
Si      -1.93724499       0.80992434      10.59395533
Si      -2.42745280      -0.91696013      11.39868425
Si      -8.17560024       3.89696299       8.98615593
Si       0.22417670       0.52290623       4.32463418
Si      -6.46280839       5.96638593       7.49701966
Si      -4.83588819      -0.79669740       9.37788014
Si      -2.81714039       6.24130532      -0.02615344
Si      -0.33903711       1.89509386       5.47493508
Si      -1.18249129       6.78163670       1.00109906
Si      -2.23739282       1.51282589       3.81722922
Si       4.05165603      -5.28217043       8.10292110
Si      -0.36135052       2.17113044       3.57442293
Si      -6.48096416       4.90142181       8.61149044
Si      -6.06374098       4.73191188       6.78838176
Si      -2.84397236      -0.57874444       9.50019149
22
Lattice="8.991506756308082 -3.3705096615297996 -2.7519413489333475 -7.550901715110277 10.604274505977237 -0.13776422488375592 -6.479791037134148 -1.0222339564520921 13.875141646699923" Properties=species:S:1:pos:R:3 unique_starting_index=18 config_type=initial n_minim_iter=8 stress="3.38390075775328e-05 -3.1972284108030225e-05 -4.761501105260159e-05 -3.1972284108030225e-05 -2.05479956108228e-05 -6.961766849805149e-05 -4.761501105260159e-05 -6.961766849805149e-05 -1.3556703268736981e-05" pbc="T T T"
Si      -1.77054717       7.85854445      -0.58036140
Si      -1.10216288       0.60597023       6.80192858
Si      -5.26418917      -0.42963501      11.06674674
Si       0.43304754      -1.14706008      11.69684158
Si      -9.11023121       3.43548384      12.94685732
Si       6.14002132       0.60225203      -0.64513127
Si       5.31609632      -1.05330781      -1.40600016
Si      -1.93735551       0.80986424      10.59398654
Si      -2.42754011      -0.91701878      11.39870959
Si      -8.17572493       3.89695766       8.98623619
Si       0.22413244       0.52288925       4.32465405
Si      -6.46291171       5.96635980       7.49704539
Si      -4.83597540      -0.79675155       9.37794034
Si      -2.81717556       6.24129752      -0.02617293
Si      -0.33908993       1.89507120       5.47493781
Si      -1.18253688       6.78160034       1.00108125
Si      -2.23744583       1.51279481       3.81724459
Si       4.05164137      -5.28220028       8.10292922
Si      -0.36140180       2.17110242       3.57441449
Si      -6.48107757       4.90139644       8.61154061
Si      -6.06382658       4.73188263       6.78841805
Si      -2.84405857      -0.57880431       9.50022091
22
Lattice="8.991472952426907 -3.3705319187618916 -2.75209858880215 -7.55082264471038 10.604296326783064 -0.13754746953624586 -6.479881058199536 -1.022062244995941 13.875342166400273" Properties=species:S:1:pos:R:3 unique_starting_index=18 config_type=initial n_minim_iter=9 stress="2.0870226751382894e-06 -1.6926512516307362e-05 -2.1313100260580173e-05 -1.6926512516307362e-05 1.0586487138850188e-05 2.5290291404630356e-05 -2.1313100260580173e-05 2.5290291404630356e-05 7.89091625023208e-06" pbc="T T T"
Si      -1.77056172       7.85855594      -0.58020751
Si      -1.10227148       0.60611574       6.80197619
Si      -5.26423276      -0.42945071      11.06688745
Si       0.43291343      -1.14688445      11.69691480
Si      -9.11030579       3.43566154      12.94710998
Si       6.13995931       0.60222703      -0.64521321
Si       5.31609596      -1.05337269      -1.40613153
Si      -1.93746797       0.80999650      10.59416059
Si      -2.42755003      -0.91686970      11.39879431
Si      -8.17575739       3.89718703       8.98655339
Si       0.22408248       0.52299768       4.32478923
Si      -6.46289475       5.96649196       7.49725590
Si      -4.83599976      -0.79670386       9.37808238
Si      -2.81714522       6.24128776      -0.02609096
Si      -0.33911835       1.89519777       5.47506348
Si      -1.18254906       6.78153638       1.00124608
Si      -2.23748580       1.51281119       3.81732829
Si       4.05162554      -5.28200374       8.10292928
Si      -0.36146045       2.17114750       3.57447902
Si      -6.48109351       4.90156485       8.61181479
Si      -6.06379065       4.73197423       6.78863266
Si      -2.84409223      -0.57873336       9.50030572
22
Lattice="8.991358204651817 -3.370384909335915 -2.7520045212995057 -7.550647055288324 10.604160921958746 -0.13768453390269983 -6.479743131482353 -1.0222379384252582 13.875318117218711" Properties=species:S:1:pos:R:3 unique_starting_index=18 config_type=initial n_minim_iter=10 stress="-7.633174473937403e-07 2.4475932787631836e-05 2.4852385434690293e-05 2.4475932787631836e-05 -2.3628667481401898e-05 -3.1135030260112686e-05 2.4852385434690293e-05 -3.1135030260112686e-05 -3.206319484788255e-05" pbc="T T T"
Si      -1.77047859       7.85848568      -0.58023159
Si      -1.10222511       0.60608053       6.80194100
Si      -5.26409904      -0.42955776      11.06684948
Si       0.43298139      -1.14695337      11.69692090
Si      -9.11012652       3.43545900      12.94701611
Si       6.13990110       0.60227209      -0.64518786
Si       5.31605705      -1.05331971      -1.40611396
Si      -1.93738624       0.80987385      10.59416391
Si      -2.42740838      -0.91697598      11.39876429
Si      -8.17560394       3.89708131       8.98652742
Si       0.22412424       0.52299466       4.32485369
Si      -6.46270530       5.96633889       7.49716137
Si      -4.83589343      -0.79686994       9.37805890
Si      -2.81705665       6.24120096      -0.02618204
Si      -0.33904176       1.89517794       5.47507377
Si      -1.18246920       6.78144641       1.00120168
Si      -2.23744835       1.51271471       3.81730170
Si       4.05165103      -5.28194222       8.10302812
Si      -0.36141789       2.17110111       3.57445891
Si      -6.48091947       4.90143296       8.61176883
Si      -6.06361787       4.73182975       6.78857769
Si      -2.84396495      -0.57886269       9.50027378
22
Lattice="8.99130797838982 -3.370513501562268 -2.75223455311006 -7.550606726434871 10.60434091941535 -0.13742705607518707 -6.479811230262719 -1.0219855045688675 13.875780253772062" Properties=species:S:1:pos:R:3 unique_starting_index=18 config_type=initial n_minim_iter=11 stress="6.317633861879512e-06 -2.0360657409832984e-05 -2.69250723051293e-06 -2.0360657409832984e-05 2.1952558291370795e-05 1.3425912334843477e-05 -2.69250723051293e-06 1.3425912334843477e-05 -1.5313515003904523e-05" pbc="T T T"
Si      -1.77051008       7.85855710      -0.58001427
Si      -1.10233952       0.60625098       6.80212816
Si      -5.26412587      -0.42928543      11.06720336
Si       0.43285727      -1.14676181      11.69720679
Si      -9.11020066       3.43578692      12.94752288
Si       6.13980478       0.60219272      -0.64528448
Si       5.31604726      -1.05344002      -1.40626509
Si      -1.93752626       0.81004988      10.59452451
Si      -2.42743273      -0.91677545      11.39905926
Si      -8.17562018       3.89745230       8.98701715
Si       0.22409184       0.52311668       4.32509467
Si      -6.46271410       5.96657930       7.49753966
Si      -4.83591203      -0.79676208       9.37835870
Si      -2.81706816       6.24125775      -0.02607528
Si      -0.33909122       1.89536247       5.47529043
Si      -1.18252846       6.78153761       1.00135518
Si      -2.23749651       1.51275298       3.81746885
Si       4.05160528      -5.28183485       8.10316640
Si      -0.36148999       2.17117993       3.57459822
Si      -6.48095379       4.90172547       8.61221749
Si      -6.06361218       4.73203963       6.78896113
Si      -2.84395862      -0.57873323       9.50052941
22
Lattice="8.991143131526243 -3.3704381264431613 -2.75243696949838 -7.55037103604335 10.604241565434023 -0.1372881903752178 -6.479818366932775 -1.0219358373568364 13.87635654047106" Properties=species:S:1:pos:R:3 unique_starting_index=18 config_type=initial n_minim_iter=12 stress="-3.083869795892417e-05 3.7415648637226396e-05 -2.1118422032775402e-05 3.7415648637226396e-05 -6.045033791830985e-05 2.5667296977365773e-06 -2.1118422032775402e-05 2.5667296977365773e-06 6.948429772029803e-05" pbc="T T T"
Si      -1.77043437       7.85850993      -0.57992487
Si      -1.10241991       0.60633145       6.80236316
Si      -5.26409849      -0.42917705      11.06764385
Si       0.43274644      -1.14665811      11.69760121
Si      -9.11013644       3.43580661      12.94808593
Si       6.13966826       0.60217731      -0.64538356
Si       5.31599415      -1.05347171      -1.40638462
Si      -1.93761798       0.81008629      10.59495905
Si      -2.42743561      -0.91670183      11.39945542
Si      -8.17552602       3.89755353       8.98752528
Si       0.22408323       0.52319013       4.32538099
Si      -6.46258321       5.96655320       7.49791275
Si      -4.83587210      -0.79679214       9.37872969
Si      -2.81699248       6.24115805      -0.02603003
Si      -0.33910793       1.89546110       5.47553053
Si      -1.18247681       6.78149642       1.00145986
Si      -2.23748974       1.51270045       3.81766474
Si       4.05146157      -5.28167320       8.10343627
Si      -0.36152420       2.17118027       3.57474896
Si      -6.48083698       4.90178049       8.61266966
Si      -6.06349273       4.73202554       6.78935399
Si      -2.84392699      -0.57872042       9.50086223
22
Lattice="8.991145447044227 -3.3706227353573284 -2.752424991753814 -7.550454462236683 10.604575330398449 -0.13725125510992467 -6.479749235857944 -1.0218199836787842 13.876317016311347" Properties=species:S:1:pos:R:3 unique_starting_index=18 config_type=initial n_minim_iter=13 stress="1.6158521774817755e-06 -1.1476889444731549e-05 7.621308777540959e-07 -1.1476889444731549e-05 1.2543586748893128e-05 4.412447747046572e-06 7.621308777540959e-07 4.412447747046572e-06 -8.234040568780942e-06" pbc="T T T"
Si      -1.77053889       7.85870567      -0.57986461
Si      -1.10244401       0.60643706       6.80231355
Si      -5.26402468      -0.42901205      11.06759344
Si       0.43278876      -1.14662627      11.69754939
Si      -9.11012236       3.43605428      12.94803411
Si       6.13961126       0.60206873      -0.64538715
Si       5.31602228      -1.05360637      -1.40639235
Si      -1.93763534       0.81016253      10.59494778
Si      -2.42734360      -0.91663596      11.39938768
Si      -8.17552981       3.89787430       8.98756570
Si       0.22411619       0.52325544       4.32548704
Si      -6.46258628       5.96679471       7.49790964
Si      -4.83578387      -0.79676004       9.37867963
Si      -2.81707018       6.24129799      -0.02601600
Si      -0.33911837       1.89558752       5.47555038
Si      -1.18256211       6.78165783       1.00149737
Si      -2.23750292       1.51273603       3.81768429
Si       4.05155227      -5.28176581       8.10343962
Si      -0.36155583       2.17124120       3.57475275
Si      -6.48080945       4.90207192       8.61268929
Si      -6.06348773       4.73224161       6.78940093
Si      -2.84383454      -0.57868223       9.50079771
22
Lattice="8.990957644273525 -3.3706462923757647 -2.7524638565847757 -7.550275003187184 10.604684669048275 -0.1372253021671235 -6.479606090294557 -1.021801816471623 13.876507475156433" Properties=species:S:1:pos:R:3 unique_starting_index=18 config_type=initial n_minim_iter=14 stress="-1.342898899177287e-05 5.490622247282571e-06 -1.3994434529652145e-05 5.490622247282571e-06 -7.574385492647373e-06 9.812689867209131e-06 -1.3994434529652145e-05 9.812689867209131e-06 3.6875032255367324e-05" pbc="T T T"
Si      -1.77054516       7.85874983      -0.57982819
Si      -1.10251058       0.60654295       6.80234146
Si      -5.26387062      -0.42888006      11.06770176
Si       0.43279762      -1.14659693      11.69764037
Si      -9.10995199       3.43610395      12.94818082
Si       6.13945084       0.60199549      -0.64542353
Si       5.31594485      -1.05367920      -1.40647219
Si      -1.93764480       0.81016168      10.59508715
Si      -2.42720459      -0.91664089      11.39949163
Si      -8.17532478       3.89809543       8.98785042
Si       0.22415059       0.52333023       4.32569162
Si      -6.46240620       5.96685448       7.49802170
Si      -4.83557969      -0.79683103       9.37875861
Si      -2.81700947       6.24132539      -0.02599510
Si      -0.33913557       1.89571757       5.47565371
Si      -1.18258171       6.78170535       1.00153370
Si      -2.23750184       1.51266881       3.81779408
Si       4.05148025      -5.28175012       8.10360228
Si      -0.36154629       2.17125392       3.57481094
Si      -6.48058254       4.90226646       8.61284933
Si      -6.06333055       4.73231411       6.78961105
Si      -2.84368960      -0.57870854       9.50085065
22
Lattice="8.99081047890159 -3.37069651468621 -2.7522495266743734 -7.550205470060073 10.604848202626709 -0.13739795740851748 -6.479317947591131 -1.021886019801582 13.876106228883794" Properties=species:S:1:pos:R:3 unique_starting_index=18 config_type=initial n_minim_iter=15 stress="-1.1551430260965e-05 5.520928306758937e-07 5.56977006021392e-06 5.520928306758937e-07 1.1521864129938399e-06 -6.0190557871733355e-06 5.56977006021392e-06 -6.0190557871733355e-06 -4.2066695750258076e-06" pbc="T T T"
Si      -1.77060341       7.85883533      -0.57987872
Si      -1.10250350       0.60657555       6.80210771
Si      -5.26360695      -0.42883571      11.06732572
Si       0.43297811      -1.14669061      11.69731086
Si      -9.10968940       3.43607721      12.94769760
Si       6.13934266       0.60192364      -0.64534573
Si       5.31586586      -1.05378822      -1.40643556
Si      -1.93749642       0.81008676      10.59479721
Si      -2.42693527      -0.91676289      11.39915880
Si      -8.17504988       3.89828387       8.98765948
Si       0.22423473       0.52335827       4.32572530
Si      -6.46220569       5.96689091       7.49771559
Si      -4.83530921      -0.79697082       9.37842663
Si      -2.81704832       6.24135312      -0.02608447
Si      -0.33909898       1.89580783       5.47550974
Si      -1.18261158       6.78175307       1.00146963
Si      -2.23745847       1.51259175       3.81769864
Si       4.05155317      -5.28184551       8.10356926
Si      -0.36152494       2.17122302       3.57471869
Si      -6.48033051       4.90240859       8.61255685
Si      -6.06315259       4.73235490       6.78944717
Si      -2.84340348      -0.57880503       9.50052290
22
Lattice="8.9907868321915 -3.3707349067300747 -2.7522321257014433 -7.550207588195814 10.604880116026246 -0.13736004291353213 -6.479278900794089 -1.0218119538758728 13.875985422075525" Properties=species:S:1:pos:R:3 unique_starting_index=18 config_type=initial n_minim_iter=16 stress="-7.92396207445954e-06 -1.2431533035784798e-06 2.798967113348309e-07 -1.2431533035784798e-06 -4.412741182061383e-06 -2.7801133431499618e-06 2.798967113348309e-07 -2.7801133431499618e-06 -4.2665562072224825e-06" pbc="T T T"
Si      -1.77065659       7.85882268      -0.57983422
Si      -1.10253409       0.60663059       6.80202133
Si      -5.26355522      -0.42871083      11.06718122
Si       0.43300918      -1.14666316      11.69716773
Si      -9.10965812       3.43613369      12.94755959
Si       6.13931382       0.60184054      -0.64534810
Si       5.31586673      -1.05385524      -1.40647597
Si      -1.93751889       0.81012389      10.59469494
Si      -2.42688083      -0.91676031      11.39903871
Si      -8.17502894       3.89847394       8.98773117
Si       0.22424691       0.52340829       4.32578717
Si      -6.46217874       5.96695985       7.49767573
Si      -4.83524490      -0.79698424       9.37829870
Si      -2.81708215       6.24135569      -0.02605717
Si      -0.33912540       1.89592334       5.47544316
Si      -1.18265643       6.78172874       1.00149856
Si      -2.23746335       1.51258455       3.81768104
Si       4.05154520      -5.28179512       8.10353162
Si      -0.36156208       2.17120122       3.57471073
Si      -6.48027508       4.90255377       8.61252684
Si      -6.06312373       4.73239825       6.78948217
Si      -2.84328534      -0.57877928       9.50039134
22
Lattice="8.990800697202067 -3.370807044207195 -2.7522927186107 -7.5502354779656695 10.604926937267965 -0.13719554064721762 -6.479296883040527 -1.021597110999827 13.875974904941584" Properties=species:S:1:pos:R:3 unique_starting_index=18 config_type=initial n_minim_iter=17 stress="-1.0102276219625327e-05 -7.340132123374285e-06 -7.121731909379864e-07 -7.340132123374285e-06 9.159619330249865e-06 4.674135151505745e-06 -7.121731909379864e-07 4.674135151505745e-06 -6.858537773423923e-06" pbc="T T T"
Si      -1.77071977       7.85881101      -0.57970105
Si      -1.10258555       0.60677651       6.80196214
Si      -5.26353746      -0.42844938      11.06707100
Si       0.43304964      -1.14656525      11.69709433
Si      -9.10969972       3.43633402      12.94753203
Si       6.13932802       0.60170503      -0.64536602
Si       5.31591161      -1.05396578      -1.40658436
Si      -1.93758011       0.81026261      10.59465887
Si      -2.42689010      -0.91669628      11.39898900
Si      -8.17504401       3.89888119       8.98799758
Si       0.22425149       0.52351559       4.32599117
Si      -6.46219323       5.96717167       7.49777340
Si      -4.83512594      -0.79694742       9.37820980
Si      -2.81716854       6.24134870      -0.02595816
Si      -0.33920386       1.89614458       5.47541883
Si      -1.18270664       6.78170047       1.00162431
Si      -2.23755541       1.51259523       3.81769567
Si       4.05150574      -5.28163042       8.10352442
Si      -0.36157897       2.17119930       3.57475440
Si      -6.48029227       4.90283339       8.61266980
Si      -6.06311738       4.73249495       6.78967379
Si      -2.84320437      -0.57867722       9.50029905
22
Lattice="8.990901544314287 -3.37071291013451 -2.752362869139586 -7.550257061475315 10.604710395978163 -0.1370903745019687 -6.479409162928663 -1.021503513773566 13.87611953041887" Properties=species:S:1:pos:R:3 unique_starting_index=18 config_type=initial n_minim_iter=18 stress="2.8964771829786193e-06 8.120771963075022e-06 8.383053499051823e-06 8.120771963075022e-06 -2.10170908010364e-06 -3.8019274673473184e-06 8.383053499051823e-06 -3.8019274673473184e-06 -1.6842544689518335e-05" pbc="T T T"
Si      -1.77072617       7.85859590      -0.57961505
Si      -1.10267594       0.60689602       6.80195402
Si      -5.26358950      -0.42828909      11.06704505
Si       0.43311655      -1.14651092      11.69713606
Si      -9.10985814       3.43634818      12.94764505
Si       6.13945112       0.60160476      -0.64539322
Si       5.31602411      -1.05398713      -1.40671475
Si      -1.93762677       0.81028575      10.59471035
Si      -2.42697251      -0.91671567      11.39905404
Si      -8.17511168       3.89912263       8.98835118
Si       0.22426370       0.52359047       4.32630740
Si      -6.46223488       5.96721471       7.49791508
Si      -4.83504894      -0.79702099       9.37820428
Si      -2.81720641       6.24117658      -0.02587897
Si      -0.33929708       1.89629419       5.47546286
Si      -1.18273123       6.78152224       1.00170549