22
Lattice="7.064941976763033 9.923475331708361e-34 -6.558113911185376e-18 3.326520415712845e-33 8.307371083692036 4.840640671004667e-15 1.1898165232478098e-17 -7.468766365201413e-15 12.817686325031099" Properties=species:S:1:pos:R:3 unique_starting_index=32 config_type=initial n_minim_iter=1 energy=-3615.0158217917665 free_energy=-3615.0158217917665 pbc="T T T"
Si       2.55955148       0.09852493       6.57292034
Si       4.50539050       8.20884615       6.57292034
Si       2.55955148       4.05516061       0.16407718
Si       4.50539050       4.25221048       0.16407718
Si       6.02975157       3.14403981      13.66451102
Si       1.03519041       5.16333127      13.66451102
Si       6.02975157       1.00964573       7.25566786
Si       1.03519041       7.29772536       7.25566786
Si       3.74162549       3.17534865       9.22289322
Si       3.32331649       5.13202243       9.22289322
Si       3.74162549       0.97833689       2.81405006
Si       3.32331649       7.32903419       2.81405006
Si       3.23350491       5.53559699       7.44859294
Si       3.83143707       2.77177409       7.44859294
Si       3.23350491       6.92545963       1.03974978
Si       3.83143707       1.38191145       1.03974978
Si       2.27851401       0.27059876       1.64886088
Si       4.78642797       8.03677232       1.64886088
Si       2.27851401       3.88308678       8.05770404
Si       4.78642797       4.42428430       8.05770404
Si       3.53247099       4.15368554       1.85279611
Si       3.53247099       0.00000000       8.26163928
22
Lattice="7.054347314617985 9.544934016770105e-34 -6.5371068001992914e-18 3.305424777167181e-33 8.295601525802308 4.853612170138286e-15 1.1915550569291638e-17 -7.434965838446847e-15 12.813634577129616" Properties=species:S:1:pos:R:3 unique_starting_index=32 config_type=initial n_minim_iter=2 stress="0.011458543738527796 -4.515782475683726e-16 3.0072793537250426e-15 -4.515782475683726e-16 -0.0030619093086809547 1.7348967695175507e-15 3.0072793537250426e-15 1.7348967695175507e-15 -0.010963708102410694" pbc="T T T"
Si       2.55565101       0.09834334       6.57085555
Si       4.49869630       8.19725818       6.57085555
Si       2.55565101       4.04945742       0.16403827
Si       4.49869630       4.24614411       0.16403827
Si       6.02062730       3.13963311      13.66017898
Si       1.03372001       5.15596842      13.66017898
Si       6.02062730       1.00816766       7.25336169
Si       1.03372001       7.28743387       7.25336169
Si       3.73604391       3.17092254       9.21995566
Si       3.31830340       5.12467899       9.21995566
Si       3.73604391       0.97687822       2.81313837
Si       3.31830340       7.31872330       2.81313837
Si       3.22872655       5.52761089       7.44628464
Si       3.82562076       2.76799063       7.44628464
Si       3.22872655       6.91579140       1.03946735
Si       3.82562076       1.37981013       1.03946735
Si       2.27527465       0.27017379       1.64831104
Si       4.77907267       8.02542773       1.64831104
Si       2.27527465       3.87762697       8.05512833
Si       4.77907267       4.41797456       8.05512833
Si       3.52717366       4.14780076       1.85221883
Si       3.52717366       0.00000000       8.25903612
22
Lattice="7.041675306064321 1.638080592550749e-33 -6.948008086888465e-18 3.951788039543808e-33 8.300641033330239 4.989088095329031e-15 1.1107607754907658e-17 -7.238574621397209e-15 12.837265751831723" Properties=species:S:1:pos:R:3 unique_starting_index=32 config_type=initial n_minim_iter=3 stress="-0.006080796749418322 -1.3653929468996787e-14 1.445230127173617e-15 -1.3653929468996787e-14 0.0051342953920161605 3.06674045478008e-15 1.445230127173617e-15 3.06674045478008e-15 -0.0056572958912177234" pbc="T T T"
Si       2.55083619       0.09828426       6.58293940
Si       4.49083911       8.20235677       6.58293940
Si       2.55083619       4.05203626       0.16430652
Si       4.49083911       4.24860478       0.16430652
Si       6.00947805       3.14171787      13.68539323
Si       1.03219726       5.15892317      13.68539323
Si       6.00947805       1.00860265       7.26676036
Si       1.03219726       7.29203838       7.26676036
Si       3.72963607       3.17234954       9.23739428
Si       3.31203924       5.12829149       9.23739428
Si       3.72963607       0.97797097       2.81876140
Si       3.31203924       7.32267006       2.81876140
Si       3.22327433       5.53078457       7.45997899
Si       3.81840097       2.76985646       7.45997899
Si       3.22327433       6.92017698       1.04134611
Si       3.81840097       1.38046405       1.04134611
Si       2.27111451       0.27045317       1.65092725
Si       4.77056079       8.03018787       1.65092725
Si       2.27111451       3.87986735       8.06956013
Si       4.77056079       4.42077368       8.06956013
Si       3.52083765       4.15032052       1.85571333
Si       3.52083765       0.00000000       8.27434620
22
Lattice="7.041892472650492 1.771475719556149e-33 -7.252823568562604e-18 3.916297553095446e-33 8.296011126033093 5.0169646233946224e-15 1.0548384491971552e-17 -7.195512124834213e-15 12.852638492487712" Properties=species:S:1:pos:R:3 unique_starting_index=32 config_type=initial n_minim_iter=4 stress="-0.0001671973732355632 -2.349541496162957e-15 -1.9872568843993377e-15 -2.349541496162957e-15 -0.004029923567927228 2.260304502668699e-15 -1.9872568843993377e-15 2.260304502668699e-15 0.0007817017778568262" pbc="T T T"
Si       2.55082440       0.09821778       6.59072574
Si       4.49106807       8.19779334       6.59072574
Si       2.55082440       4.04978778       0.16440649
Si       4.49106807       4.24622334       0.16440649
Si       6.00946951       3.14004328      13.70187097
Si       1.03242297       5.15596784      13.70187097
Si       6.00946951       1.00796228       7.27555173
Si       1.03242297       7.28804885       7.27555173
Si       3.73016575       3.17051988       9.24871204
Si       3.31172672       5.12549125       9.24871204
Si       3.73016575       0.97748568       2.82239279
Si       3.31172672       7.31852544       2.82239279
Si       3.22341670       5.52763192       7.46879580
Si       3.81847577       2.76837921       7.46879580
Si       3.22341670       6.91638477       1.04247655
Si       3.81847577       1.37962635       1.04247655
Si       2.27104284       0.26996376       1.65274002
Si       4.77084963       8.02604736       1.65274002
Si       2.27104284       3.87804180       8.07905927
Si       4.77084963       4.41796933       8.07905927
Si       3.52094624       4.14800556       1.85800025
Si       3.52094624       0.00000000       8.28431949
22
Lattice="7.03264268057156 1.843217210646467e-33 -7.377610628764513e-18 3.874615190687507e-33 8.302588847620562 4.9850892995749626e-15 1.031051768884435e-17 -7.257958851982182e-15 12.86508263956245" Properties=species:S:1:pos:R:3 unique_starting_index=32 config_type=initial n_minim_iter=5 stress="0.0004642908586786261 -7.059375045643179e-15 -2.964412129765917e-15 -7.059375045643179e-15 0.0020142150618152007 9.708876117111296e-16 -2.964412129765917e-15 9.708876117111296e-16 -0.00015875500003154248" pbc="T T T"
Si       2.54732486       0.09845379       6.59653337
Si       4.48531782       8.20413506       6.59653337
Si       2.54732486       4.05284063       0.16399205
Si       4.48531782       4.24974821       0.16399205
Si       6.00092362       3.14271308      13.71570725
Si       1.03171907       5.15987577      13.71570725
Si       6.00092362       1.00858135       7.28316593
Si       1.03171907       7.29400750       7.28316593
Si       3.72698830       3.17328752       9.25785633
Si       3.30565438       5.12930132       9.25785633
Si       3.72698830       0.97800690       2.82531501
Si       3.30565438       7.32458195       2.82531501
Si       3.21944060       5.53237682       7.47520338
Si       3.81320208       2.77021203       7.47520338
Si       3.21944060       6.92150645       1.04266206
Si       3.81320208       1.38108240       1.04266206
Si       2.26798428       0.26875827       1.65486741
Si       4.76465840       8.03383058       1.65486741
Si       2.26798428       3.88253616       8.08740873
Si       4.76465840       4.42005269       8.08740873
Si       3.51632134       4.15129442       1.86002090
Si       3.51632134       0.00000000       8.29256222
22
Lattice="7.023095806697259 1.9531511430187352e-33 -7.590052341793516e-18 3.828016067870662e-33 8.306792921563613 4.9669815645186424e-15 9.927706878850289e-18 -7.30788387239073e-15 12.896220413979345" Properties=species:S:1:pos:R:3 unique_starting_index=32 config_type=initial n_minim_iter=6 stress="0.0014823656400233696 -3.268730704685076e-14 -3.3437267146648207e-15 -3.268730704685076e-14 0.0012584306241051242 -2.267140313664128e-15 -3.3437267146648207e-15 -2.267140313664128e-15 0.0028796640895707446" pbc="T T T"
Si       2.54438010       0.09944840       6.61103791
Si       4.47871571       8.20734452       6.61103791
Si       2.54438010       4.05394806       0.16292770
Si       4.47871571       4.25284486       0.16292770
Si       5.99240639       3.14406005      13.75039512
Si       1.03068942       5.16273287      13.75039512
Si       5.99240639       1.00933641       7.30228492
Si       1.03068942       7.29745651       7.30228492
Si       3.72242116       3.17627245       9.28081640
Si       3.30067465       5.13052047       9.28081640
Si       3.72242116       0.97712401       2.83270619
Si       3.30067465       7.32966891       2.83270619
Si       3.21580231       5.53542578       7.49191989
Si       3.80729350       2.77136714       7.49191989
Si       3.21580231       6.92476360       1.04380968
Si       3.80729350       1.38202932       1.04380968
Si       2.26526666       0.26827844       1.65950954
Si       4.75782915       8.03851449       1.65950954
Si       2.26526666       3.88511802       8.10761974
Si       4.75782915       4.42167490       8.10761974
Si       3.51154790       4.15339646       1.86483509
Si       3.51154790       0.00000000       8.31294529
22
Lattice="7.005256565688065 1.855828886165751e-33 -7.634945847072168e-18 3.5852237931191705e-33 8.319595939414684 4.891452923727517e-15 9.843297267746968e-18 -7.4485237887062e-15 12.917701888199636" Properties=species:S:1:pos:R:3 unique_starting_index=32 config_type=initial n_minim_iter=7 stress="0.001382897099541974 -4.7493052809505226e-14 -9.78577069808289e-16 -4.7493052809505226e-14 0.004266651451788614 1.3391072678881966e-15 -9.78577069808289e-16 1.3391072678881966e-15 0.0026263319949165467" pbc="T T T"
Si       2.53843728       0.10186790       6.61829612
Si       4.46681929       8.21772804       6.61829612
Si       2.53843728       4.05793007       0.15944517
Si       4.46681929       4.26166587       0.15944517
Si       5.97529772       3.14890152      13.77739349
Si       1.02995884       5.17069442      13.77739349
Si       5.97529772       1.01089645       7.31854255
Si       1.02995884       7.30869949       7.31854255
Si       3.71168393       3.18147722       9.29851322
Si       3.29357264       5.13811872       9.29851322
Si       3.71168393       0.97832075       2.83966228
Si       3.29357264       7.34127519       2.83966228
Si       3.20668677       5.54280127       7.50093451
Si       3.79856980       2.77679467       7.50093451
Si       3.20668677       6.93659264       1.04208357
Si       3.79856980       1.38300330       1.04208357
Si       2.26027760       0.26582928       1.66303893
Si       4.74497896       8.05376666       1.66303893
Si       2.26027760       3.89396869       8.12188987
Si       4.74497896       4.42562725       8.12188987
Si       3.50262828       4.15979797       1.86818525
Si       3.50262828       0.00000000       8.32703619
22
Lattice="6.990396940715962 1.8773276009735686e-33 -7.658452679307742e-18 3.565028776244947e-33 8.32804690255387 4.873097790870883e-15 9.765050331546668e-18 -7.476079004041488e-15 12.90367623079913" Properties=species:S:1:pos:R:3 unique_starting_index=32 config_type=initial n_minim_iter=8 stress="-0.0017886362911033783 -6.387553128790603e-14 -3.705422987200052e-15 -6.387553128790603e-14 0.0032149380316288654 -2.782989400921916e-15 -3.705422987200052e-15 -2.782989400921916e-15 0.001154395314748451" pbc="T T T"
Si       2.53156946       0.10457421       6.60559893
Si       4.45882748       8.22347269       6.60559893
Si       2.53156946       4.05944924       0.15376081
Si       4.45882748       4.26859766       0.15376081
Si       5.95725117       3.15387092      13.76891264
Si       1.03314577       5.17417598      13.76891264
Si       5.95725117       1.01015253       7.31707452
Si       1.03314577       7.31789438       7.31707452
Si       3.70143917       3.18638899       9.29342453
Si       3.28895777       5.14165791       9.29342453
Si       3.70143917       0.97763446       2.84158642
Si       3.28895777       7.35041244       2.84158642
Si       3.20001316       5.54818071       7.48624417
Si       3.79038378       2.77986620       7.48624417
Si       3.20001316       6.94388965       1.03440605
Si       3.79038378       1.38415726       1.03440605
Si       2.25454714       0.26372938       1.66205820
Si       4.73584980       8.06431752       1.66205820
Si       2.25454714       3.90029407       8.11389632
Si       4.73584980       4.42775284       8.11389632
Si       3.49519847       4.16402345       1.86565033
Si       3.49519847       0.00000000       8.31748845
22
Lattice="6.989892381041799 1.9768863963725646e-33 -7.796129338897288e-18 3.690092675497919e-33 8.343061435855153 4.970206125396099e-15 9.340747247599216e-18 -7.247385892635382e-15 12.745734005870148" Properties=species:S:1:pos:R:3 unique_starting_index=32 config_type=initial n_minim_iter=9 stress="0.0075487348353275256 -8.602061823527004e-14 -6.138087520989003e-15 -8.602061823527004e-14 0.0008233229700025798 5.924902672922959e-15 -6.138087520989003e-15 5.924902672922959e-15 0.0012004797620048442" pbc="T T T"
Si       2.52852802       0.11443876       6.50742039
Si       4.46136436       8.22862268       6.50742039
Si       2.52852802       4.05709196       0.13455339
Si       4.46136436       4.28596947       0.13455339
Si       5.94294435       3.16388913      13.62116984
Si       1.04694803       5.17917231      13.62116984
Si       5.94294435       1.00764159       7.24830283
Si       1.04694803       7.33541984       7.24830283
Si       3.69912899       3.19346546       9.19531616
Si       3.29076339       5.14959598       9.19531616
Si       3.69912899       0.97806526       2.82244916
Si       3.29076339       7.36499618       2.82244916
Si       3.20661055       5.55338612       7.37814628
Si       3.78328183       2.78967532       7.37814628
Si       3.20661055       6.96120603       1.00527928
Si       3.78328183       1.38185540       1.00527928
Si       2.25445150       0.25883595       1.64063854
Si       4.73544089       8.08422549       1.64063854
Si       2.25445150       3.91269477       8.01350554
Si       4.73544089       4.43036667       8.01350554
Si       3.49494619       4.17153072       1.83968020
Si       3.49494619       0.00000000       8.21254720
22
Lattice="7.022596237054663 1.970554480296959e-33 -7.816116330943621e-18 3.6831860813705636e-33 8.311829416399961 4.96023958123603e-15 9.357731456686097e-18 -7.240308258339575e-15 12.754064201633902" Properties=species:S:1:pos:R:3 unique_starting_index=32 config_type=initial n_minim_iter=10 stress="0.0023910140879378414 -8.424964858143227e-14 -2.9707770286686677e-15 -8.424964858143227e-14 0.00091941988420673 7.622711245312624e-15 -2.9707770286686677e-15 7.622711245312624e-15 -0.0010104120641828244" pbc="T T T"
Si       2.53615154       0.11658771       6.50008468
Si       4.48644469       8.19524171       6.50008468
Si       2.53615154       4.03932700       0.12305258
Si       4.48644469       4.27250241       0.12305258
Si       5.96228648       3.16032896      13.64421495
Si       1.06030975       5.15150045      13.64421495
Si       5.96228648       0.99558574       7.26718284
Si       1.06030975       7.31624367       7.26718284
Si       3.71311186       3.17625616       9.20074079
Si       3.30948437       5.13557325       9.20074079
Si       3.71311186       0.97965855       2.82370868
Si       3.30948437       7.33217087       2.82370868
Si       3.22738498       5.53569428       7.38045239
Si       3.79521125       2.77613514       7.38045239
Si       3.22738498       6.93204985       1.00342029
Si       3.79521125       1.37977957       1.00342029
Si       2.26983815       0.25621278       1.64413303
Si       4.75275808       8.05561663       1.64413303
Si       2.26983815       3.89970192       8.02116513
Si       4.75275808       4.41212749       8.02116513
Si       3.51129812       4.15591471       1.83713238
Si       3.51129812       0.00000000       8.21416448
22
Lattice="7.041557795041507 2.0011965410127835e-33 -7.852771015956216e-18 3.7325916369135326e-33 8.339094058697112 4.993466323629788e-15 9.295144851001533e-18 -7.201250963106196e-15 12.73450207380182" Properties=species:S:1:pos:R:3 unique_starting_index=32 config_type=initial n_minim_iter=11 stress="0.002036346357681235 -9.254413825920938e-14 3.197066290901953e-15 -9.254413825920938e-14 0.0024913563439169614 1.352273676221338e-15 3.197066290901953e-15 1.352273676221338e-15 0.002146473174957856" pbc="T T T"
Si       2.54689198       0.11656868       6.45847573
Si       4.49466581       8.22252538       6.45847573
Si       2.54689198       4.05297835       0.09122469
Si       4.49466581       4.28611571       0.09122469
Si       5.95164720       3.20752515      13.67452807
Si       1.08991059       5.13156891      13.67452807
Si       5.95164720       0.96202188       7.30727703
Si       1.08991059       7.37707218       7.30727703
Si       3.71042622       3.18705699       9.18730659
Si       3.33113158       5.15203707       9.18730659
Si       3.71042622       0.98249004       2.82005556
Si       3.33113158       7.35660402       2.82005556
Si       3.25071176       5.56695146       7.37923034
Si       3.79084603       2.77214260       7.37923034
Si       3.25071176       6.94168963       1.01197930
Si       3.79084603       1.39740443       1.01197930
Si       2.28395613       0.23938012       1.63078017
Si       4.75760166       8.09971394       1.63078017
Si       2.28395613       3.93016691       7.99803120
Si       4.75760166       4.40892715       7.99803120
Si       3.52077890       4.16954703       1.79522213
Si       3.52077890       0.00000000       8.16247316
22
Lattice="7.037356281221668 1.9921476679007856e-33 -7.83140561255927e-18 3.767989157284639e-33 8.344190991663114 5.024772824491051e-15 9.361379201695569e-18 -7.175316540162199e-15 12.76445534304655" Properties=species:S:1:pos:R:3 unique_starting_index=32 config_type=initial n_minim_iter=12 stress="0.013702516434110103 -9.239439216820866e-14 -2.9747257738883225e-16 -9.239439216820866e-14 0.012923604585226697 7.789184334972089e-15 -2.9747257738883225e-16 7.789184334972089e-15 0.004337121681601201" pbc="T T T"
Si       2.55106723       0.11299711       6.45903642
Si       4.48628905       8.23119388       6.45903642
Si       2.55106723       4.05909839       0.07680875
Si       4.48628905       4.28509260       0.07680875
Si       5.93664182       3.22870046      13.73054055
Si       1.10071446       5.11549053      13.73054055
Si       5.93664182       0.94339504       7.34831288
Si       1.10071446       7.40079595       7.34831288
Si       3.70141570       3.18871341       9.20767733
Si       3.33594058       5.15547758       9.20767733
Si       3.70141570       0.98338208       2.82544965
Si       3.33594058       7.36080891       2.82544965
Si       3.25906354       5.57039538       7.39633400
Si       3.77829275       2.77379561       7.39633400
Si       3.25906354       6.94589111       1.01410633
Si       3.77829275       1.39829989       1.01410633
Si       2.27932513       0.23039059       1.63718221
Si       4.75803115       8.11380041       1.63718221
Si       2.27932513       3.94170491       8.01940989
Si       4.75803115       4.40248608       8.01940989
Si       3.51867814       4.17209550       1.77886169
Si       3.51867814       0.00000000       8.16108936
22
Lattice="7.034394606836239 1.986329258447391e-33 -7.810980259935984e-18 3.769198541012817e-33 8.35075477614662 5.022027239845106e-15 9.423069434514213e-18 -7.200835982710996e-15 12.790325729627263" Properties=species:S:1:pos:R:3 unique_starting_index=32 config_type=initial n_minim_iter=13 stress="0.0021771378075401333 -9.322001294166752e-14 7.79326948993435e-15 -9.322001294166752e-14 0.0007232197086618432 1.0121420700337888e-14 7.79326948993435e-15 1.0121420700337888e-14 -0.0031235759024762113" pbc="T T T"
Si       2.55360703       0.10527562       6.46340476
Si       4.48078757       8.24547916       6.46340476
Si       2.55360703       4.07010177       0.06824189
Si       4.48078757       4.28065301       0.06824189
Si       5.92980320       3.24575282      13.76915803
Si       1.10459141       5.10500196      13.76915803
Si       5.92980320       0.92962457       7.37399516
Si       1.10459141       7.42113021       7.37399516
Si       3.69419440       3.19179344       9.22457931
Si       3.34020021       5.15896133       9.22457931
Si       3.69419440       0.98358394       2.82941645
Si       3.34020021       7.36717083       2.82941645
Si       3.26655254       5.57125594       7.41271464
Si       3.76784207       2.77949884       7.41271464
Si       3.26655254       6.95487623       1.01755178
Si       3.76784207       1.39587855       1.01755178
Si       2.27347451       0.22359834       1.64469875
Si       4.76092010       8.12715643       1.64469875
Si       2.27347451       3.95177905       8.03986161
Si       4.76092010       4.39897573       8.03986161
Si       3.51719730       4.17537739       1.77067636
Si       3.51719730       0.00000000       8.16583922
22
Lattice="7.016861392757099 1.978088791241349e-33 -7.79571631995599e-18 3.75365386722175e-33 8.327963723439778 5.009638519647487e-15 9.430147225848413e-18 -7.20174541562427e-15 12.792980213914099" Properties=species:S:1:pos:R:3 unique_starting_index=32 config_type=initial n_minim_iter=14 stress="0.012575693906699926 -8.666174111075975e-14 9.121590876622097e-15 -8.666174111075975e-14 0.006534215926428 8.263364098358707e-15 9.121590876622097e-15 8.263364098358707e-15 0.004767745659782699" pbc="T T T"
Si       2.55069518       0.10046709       6.44756134
Si       4.46616622       8.22749664       6.44756134
Si       2.55069518       4.06351477       0.05107124
Si       4.46616622       4.26444895       0.05107124
Si       5.90858519       3.25032836      13.79130571
Si       1.10827621       5.07763537      13.79130571
Si       5.90858519       0.91365350       7.39481561
Si       1.10827621       7.41431022       7.39481561
Si       3.67835466       3.17889791       9.23024990
Si       3.33850674       5.14906581       9.23024990
Si       3.67835466       0.98508395       2.83375979
Si       3.33850674       7.34287977       2.83375979
Si       3.26761338       5.56088723       7.41250814
Si       3.74924802       2.76707650       7.41250814
Si       3.26761338       6.93105836       1.01601804
Si       3.74924802       1.39690537       1.01601804
Si       2.26393096       0.21462207       1.64768385
Si       4.75293043       8.11334165       1.64768385
Si       2.26393096       3.94935979       8.04417396
Si       4.75293043       4.37860393       8.04417396
Si       3.50843070       4.16398186       1.75752341
Si       3.50843070       0.00000000       8.15401352
22
Lattice="7.0164011175062075 1.9925055978709623e-33 -7.801463583644706e-18 3.7650577851129984e-33 8.341925382084343 5.012030412182468e-15 9.409320363664508e-18 -7.204881587500512e-15 12.784135271799235" Properties=species:S:1:pos:R:3 unique_starting_index=32 config_type=initial n_minim_iter=15 stress="0.010265356893300376 -7.563400553417374e-14 1.292694905016169e-14 -7.563400553417374e-14 0.004568878940760533 4.683863856712249e-15 1.292694905016169e-14 4.683863856712249e-15 0.00374458682280126" pbc="T T T"
Si       2.54664536       0.09926411       6.43717394
Si       4.46975576       8.24266127       6.43717394
Si       2.54664536       4.07169858       0.04510630
Si       4.46975576       4.27022680       0.04510630
Si       5.90743098       3.25737171      13.78393228
Si       1.10897014       5.08455368      13.78393228
Si       5.90743098       0.91359098       7.39186464
Si       1.10897014       7.42833440       7.39186464
Si       3.67658022       3.18556747       9.22674073
Si       3.33982090       5.15635792       9.22674073
Si       3.67658022       0.98539523       2.83467309
Si       3.33982090       7.35653016       2.83467309
Si       3.26896060       5.57005090       7.40817864
Si       3.74744052       2.77187448       7.40817864
Si       3.26896060       6.94283717       1.01611100
Si       3.74744052       1.39908821       1.01611100
Si       2.26540605       0.21221450       1.64645190
Si       4.75099507       8.12971088       1.64645190
Si       2.26540605       3.95874819       8.03851954
Si       4.75099507       4.38317719       8.03851954
Si       3.50820056       4.17096269       1.75669362
Si       3.50820056       0.00000000       8.14876126
22
Lattice="7.009439840774153 2.005347551226665e-33 -7.807818007882702e-18 3.7792317150854736e-33 8.341758666223695 5.0185372626513325e-15 9.371086316264723e-18 -7.185279995406736e-15 12.768442720753535" Properties=species:S:1:pos:R:3 unique_starting_index=32 config_type=initial n_minim_iter=16 stress="-0.007965234181024343 -7.547117329805784e-14 1.3579013056094698e-14 -7.547117329805784e-14 -0.005039134516025147 7.865546265062557e-15 1.3579013056094698e-14 7.865546265062557e-15 -0.004983736446618817" pbc="T T T"
Si       2.54175736       0.09510617       6.42468818
Si       4.46768248       8.24665250       6.42468818
Si       2.54175736       4.07577316       0.04046682
Si       4.46768248       4.26598550       0.04046682
Si       5.90381214       3.25661354      13.76473892
Si       1.10562770       5.08514513      13.76473892
Si       5.90381214       0.91426579       7.38051756
Si       1.10562770       7.42749287       7.38051756
Si       3.67197656       3.18521202       9.21898147
Si       3.33746329       5.15654664       9.21898147
Si       3.67197656       0.98566731       2.83476011
Si       3.33746329       7.35609136       2.83476011
Si       3.26702994       5.57134944       7.40147909
Si       3.74240990       2.77040923       7.40147909
Si       3.26702994       6.94128856       1.01725773
Si       3.74240990       1.40047010       1.01725773
Si       2.26272928       0.21084141       1.64587046
Si       4.74671056       8.13091725       1.64587046
Si       2.26272928       3.96003792       8.03009182
Si       4.74671056       4.38172075       8.03009182
Si       3.50471992       4.17087933       1.75345225
Si       3.50471992       0.00000000       8.13767362
22
Lattice="7.004343833546428 2.0107220085183615e-33 -7.793401252449543e-18 3.772983416365142e-33 8.34623963172422 5.0015633245897775e-15 9.405753306772213e-18 -7.223702781530482e-15 12.78232976253777" Properties=species:S:1:pos:R:3 unique_starting_index=32 config_type=initial n_minim_iter=17 stress="-0.0004742197632963733 -6.792194751182284e-14 1.5235872671539364e-14 -6.792194751182284e-14 -0.00035766237302478485 4.512697419304685e-15 1.5235872671539364e-14 4.512697419304685e-15 -0.0004186715236362031" pbc="T T T"
Si       2.53874795       0.09037797       6.41775049
Si       4.46559588       8.25586166       6.41775049
Si       2.53874795       4.08274185       0.02658561
Si       4.46559588       4.26349779       0.02658561
Si       5.89495952       3.26736120      13.79152410
Si       1.10938432       5.07887843      13.79152410
Si       5.89495952       0.90575861       7.40035922
Si       1.10938432       7.44048102       7.40035922
Si       3.66502551       3.18672492       9.23241370
Si       3.33931832       5.15951471       9.23241370
Si       3.66502551       0.98639489       2.84124881
Si       3.33931832       7.35984474       2.84124881
Si       3.27065837       5.57536917       7.41133108
Si       3.73368546       2.77087046       7.41133108
Si       3.27065837       6.94399028       1.02016620
Si       3.73368546       1.40224935       1.02016620
Si       2.26095657       0.20501004       1.65042922
Si       4.74338727       8.14122959       1.65042922
Si       2.26095657       3.96810977       8.04159411
Si       4.74338727       4.37812986       8.04159411
Si       3.50217192       4.17311982       1.74362785
Si       3.50217192       0.00000000       8.13479274
22
Lattice="6.991029585608779 1.975226611948731e-33 -7.751660318411534e-18 3.74366977228079e-33 8.345277028329276 4.9923728438709434e-15 9.51102405789312e-18 -7.26271472567176e-15 12.825227233710416" Properties=species:S:1:pos:R:3 unique_starting_index=32 config_type=initial n_minim_iter=18 stress="0.004532839180106062 -6.544859395789735e-14 1.9557488014366156e-14 -6.544859395789735e-14 0.0023774343518693105 4.2171672290666414e-15 1.9557488014366156e-14 4.2171672290666414e-15 0.004278442082750874" pbc="T T T"
Si       2.53427718       0.08488542       6.43114380
Si       4.45675241       8.26039161       6.43114380
Si       2.53427718       4.08775309       0.01853018
Si       4.45675241       4.25752394       0.01853018
Si       5.88241918       3.26947623      13.83968027
Si       1.10861041       5.07580080      13.83968027
Si       5.88241918       0.90316229       7.42706666
Si       1.10861041       7.44211474       7.42706666
Si       3.65665848       3.18612567       9.26732151
Si       3.33437110       5.15915136       9.26732151
Si       3.65665848       0.98651285       2.85470789
Si       3.33437110       7.35876418       2.85470789