14
Lattice="6.537103973593377 2.1754218532817973 -1.196259357901807 -0.6990795812393426 6.854011823609836 1.1962586315612336 -4.274228746463366 -3.638494509618543 5.681720429371593" Properties=species:S:1:pos:R:3 unique_starting_index=10 config_type=initial n_minim_iter=1 energy=-2278.6728232301166 free_energy=-2278.6728232301166 pbc="T T T"
Si       2.59813612       4.89755408       3.84729896
Si      -0.87441724       0.74073182       1.83442072
Si       1.10013955       2.94847241       3.63718206
Si       3.80101643       7.60422557       2.04453723
Si      -1.36240896      -2.49550965       4.07715146
Si      -0.15273082       3.12438527       1.60456863
Si       0.13558761      -0.54642798       4.28726836
Si       1.00985989       5.29032519       1.39445139
Si       4.15844761       6.43170093      -0.00000052
Si      -2.66749216      -1.15342070       5.68172023
Si       0.65242872       6.46284983       3.43898914
Si      -2.63388465       1.38004328       3.43898955
Si       2.60853104       1.55302370       2.24273035
Si       2.90142487       4.48751524      -0.00000036
14
Lattice="6.557393552334444 2.2191234854164312 -1.1748629406776587 -0.6675548303828666 6.890449296962056 1.1748622078905784 -4.26724647873075 -3.699828882964469 5.71212994065314" Properties=species:S:1:pos:R:3 unique_starting_index=10 config_type=initial n_minim_iter=2 stress="0.003700944483749583 -0.0025182585179382806 -0.0015758802754422792 -0.0025182585179382806 0.0014342495848478458 0.001018893470873919 -0.0015758802754422792 0.001018893470873919 0.004668255168310848" pbc="T T T"
Si       2.64654481       4.92382529       3.87136390
Si      -0.86334529       0.73432332       1.84076529
Si       1.13659245       2.95864059       3.65915229
Si       3.85412501       7.66044490       2.05297650
Si      -1.35133870      -2.53182727       4.10939899
Si      -0.13159568       3.13838009       1.60273060
Si       0.15861365      -0.56664258       4.32161060
Si       1.04077274       5.32183129       1.39051866
Si       4.19540261       6.48885772      -0.00000052
Si      -2.64671579      -1.19342031       5.71212974
Si       0.69949514       6.49341848       3.44349568
Si      -2.61547166       1.36629484       3.44349609
Si       2.63569215       1.56512618       2.26863331
Si       2.92676043       4.52670071      -0.00000036
14
Lattice="6.544242027743732 2.2441993691913695 -1.1567291625569462 -0.6392905991093506 6.888747618825827 1.1567284278896113 -4.251332310657667 -3.7266909674081883 5.6933973717791355" Properties=species:S:1:pos:R:3 unique_starting_index=10 config_type=initial n_minim_iter=3 stress="-0.0007835915097575697 0.00035006665243488135 0.001058021942854179 0.00035006665243488135 -0.00046849521723563804 -0.0006840692924543486 0.001058021942854179 -0.0006840692924543486 -0.000788160434079715" pbc="T T T"
Si       2.66707687       4.92635572       3.86047413
Si      -0.85355006       0.72722300       1.83292249
Si       1.15484273       2.95797679       3.64795913
Si       3.87705657       7.67332710       2.04543708
Si      -1.34324075      -2.54458223       4.10125680
Si      -0.11552354       3.13704209       1.59214023
Si       0.16899339      -0.57620331       4.31377179
Si       1.05882126       5.32388497       1.37962490
Si       4.20586833       6.50504462      -0.00000052
Si      -2.62697469      -1.21436343       5.69339717
Si       0.73000950       6.49216745       3.42506251
Si      -2.59343122       1.35193755       3.42506292
Si       2.64129824       1.57076735       2.26833392
Si       2.93387019       4.53769710      -0.00000036
14
Lattice="6.571381623207502 2.34943005687875 -1.1670945495449816 -0.5544685470694337 6.956683434487437 1.167093800947885 -4.3053006159035565 -3.8145754218129286 5.704927617343266" Properties=species:S:1:pos:R:3 unique_starting_index=10 config_type=initial n_minim_iter=4 stress="-0.00015249375482140928 0.005033781726047943 -0.003100652324928149 0.005033781726047943 0.004378435082084898 0.0020047413051842372 -0.003100652324928149 0.0020047413051842372 0.00040413907545864544" pbc="T T T"
Si       2.70881862       5.00059513       3.86574216
Si      -0.85695016       0.70787117       1.83918469
Si       1.18991725       3.04339431       3.64118831
Si       3.99854773       7.82564944       2.06373813
Si      -1.36839392      -2.56815811       4.10810143
Si      -0.06870615       3.18971122       1.59682583
Si       0.15050744      -0.61095728       4.33265528
Si       1.09270903       5.37804644       1.37227165
Si       4.27414241       6.61064134      -0.00000053
Si      -2.65525287      -1.26251402       5.70492741
Si       0.81711436       6.59305454       3.43601031
Si      -2.57570406       1.34552099       3.43601073
Si       2.66223025       1.63256259       2.26891634
Si       2.98349506       4.61444986      -0.00000037
14
Lattice="6.569083782313129 2.363413060774767 -1.1366332567568953 -0.5407743525061476 6.960326704943177 1.1366325067419158 -4.274708111181662 -3.84685247633808 5.703049437817282" Properties=species:S:1:pos:R:3 unique_starting_index=10 config_type=initial n_minim_iter=5 stress="-0.001852112710098823 0.000637579389268429 -0.00015201405989882465 0.000637579389268429 -0.0012782247697595219 9.828587818237912e-05 -0.00015201405989882465 9.828587818237912e-05 0.004680651301018148" pbc="T T T"
Si       2.72539100       4.97643923       3.86781954
Si      -0.85518688       0.68079284       1.83522914
Si       1.22097617       3.07199579       3.62893082
Si       4.05387168       7.85105957       2.07411743
Si      -1.33167920      -2.57220658       4.11843743
Si      -0.04547699       3.20687922       1.58461165
Si       0.17273563      -0.66776314       4.35732614
Si       1.07377388       5.36035226       1.34572261
Si       4.26861685       6.60209520      -0.00000053
Si      -2.62639656      -1.29747637       5.70304923
Si       0.85902870       6.60931664       3.41984057
Si      -2.54897543       1.33829596       3.41984099
Si       2.68523324       1.63711225       2.28320790
Si       2.98318667       4.61397288      -0.00000037
14
Lattice="6.634001471328682 2.3897147965902024 -1.0985617906171106 -0.5434321970314687 7.03031972550019 1.0985610328560425 -4.295310778696909 -3.901806308972832 5.62165471307624" Properties=species:S:1:pos:R:3 unique_starting_index=10 config_type=initial n_minim_iter=6 stress="0.0006501633550530312 -0.0008868343188748393 -0.00044259360613706314 -0.0008868343188748393 -0.000148079900104796 0.0002861610323194582 -0.00044259360613706314 0.0002861610323194582 -0.0010054780960268728" pbc="T T T"
Si       2.75958588       5.00880269       3.81679822
Si      -0.86031091       0.67030356       1.80485573
Si       1.24757988       3.12039059       3.57165778
Si       4.12874199       7.93652196       2.04999573
Si      -1.31762436      -2.60162885       4.06640239
Si      -0.03641825       3.24896179       1.55525196
Si       0.19438164      -0.71321676       4.31154283
Si       1.06509812       5.40277792       1.31011120
Si       4.30265739       6.65474430      -0.00000053
Si      -2.63360528      -1.33171433       5.62165451
Si       0.89118272       6.68455557       3.36010746
Si      -2.55843467       1.34917337       3.36010789
Si       2.72705775       1.65320435       2.26154627
Si       3.01021455       4.65577580      -0.00000037
14
Lattice="6.6752331856178255 2.4874087523123642 -1.040188257898575 -0.47126638872390286 7.108013082436711 1.0401874860290983 -4.294196670608658 -4.026879162389932 5.567508786343524" Properties=species:S:1:pos:R:3 unique_starting_index=10 config_type=initial n_minim_iter=7 stress="0.004970906805425801 0.0003802428271575091 0.0004044689522135844 0.0003802428271575091 0.005313164916156634 -0.00026151174332374053 0.0004044689522135844 -0.00026151174332374053 0.000970125400975353" pbc="T T T"
Si       2.83043338       5.07502063       3.79410258
Si      -0.82788853       0.63701292       1.77340543
Si       1.29896724       3.19808526       3.53356837
Si       4.29301409       8.06558296       2.03393919
Si      -1.28113669      -2.67506861       4.03706590
Si      -0.00385130       3.30240951       1.53044252
Si       0.25032945      -0.79813324       4.29760011
Si       1.07921288       5.46926131       1.26990798
Si       4.35645665       6.73795342      -0.00000054
Si      -2.60704676      -1.41743336       5.56750858
Si       1.01577032       6.79689084       3.30384771
Si      -2.51888974       1.32997662       3.30384815
Si       2.78155184       1.69105140       2.26366007
Si       3.06194152       4.73577979      -0.00000038
14
Lattice="6.639033247508159 2.516509826747275 -1.008476178191211 -0.429872406344222 7.086945423948532 1.0084754056755123 -4.2498895525087015 -4.061221971993689 5.555728942536531" Properties=species:S:1:pos:R:3 unique_starting_index=10 config_type=initial n_minim_iter=8 stress="0.0021904583204406624 0.00038777634853065436 0.000801434934493296 0.00038777634853065436 0.002539497315690685 -0.0005181717917072165 0.000801434934493296 -0.0005181717917072165 0.0012344764430520139" pbc="T T T"
Si       2.84156384       5.08366590       3.80086695
Si      -0.78026575       0.61636808       1.75486121
Si       1.29896057       3.20253923       3.53258725
Si       4.34657958       8.04109542       2.02314046
Si      -1.24001092      -2.71465249       4.02848780
Si      -0.00732502       3.29735747       1.52724077
Si       0.30259235      -0.83352583       4.29676750
Si       1.07499050       5.47608538       1.25896075
Si       4.34157786       6.71494100      -0.00000054
Si      -2.56259498      -1.45155243       5.55572873
Si       1.07999221       6.80223980       3.28210175
Si      -2.47488534       1.30405601       3.28210219
Si       2.78728999       1.69103597       2.27362618
Si       3.06415249       4.73919941      -0.00000038
14
Lattice="6.608644492927235 2.541989895367948 -0.9776565868919885 -0.394165366706056 7.069690929421392 0.9776558137146107 -4.210361641530734 -4.092611005778596 5.537192806449379" Properties=species:S:1:pos:R:3 unique_starting_index=10 config_type=initial n_minim_iter=9 stress="-0.0006080018666022073 0.0004533723115131142 0.0004512210119685716 0.0004533723115131142 -0.00019991960496572794 -0.0002917391403080218 0.0004512210119685716 -0.0002917391403080218 0.000170106725981461" pbc="T T T"
Si       2.84697629       5.09169270       3.80433629
Si      -0.73563946       0.59320891       1.73285573
Si       1.29484852       3.21203505       3.52353980
Si       4.40177265       8.01807929       2.01365178
Si      -1.19733716      -2.75085363       4.01262405
Si      -0.01300426       3.29825127       1.52456839
Si       0.35479061      -0.87119598       4.29342054
Si       1.06406276       5.48506172       1.24377157
Si       4.32703550       6.69244892      -0.00000054
Si      -2.52281821      -1.48255657       5.53719260
Si       1.13879991       6.81069208       3.25742388
Si      -2.43618715       1.28140574       3.25742433
Si       2.79964327       1.70012023       2.27976791
Si       3.06035750       4.73332984      -0.00000038
14
Lattice="6.578848921825832 2.5477151192019307 -0.9440957265175985 -0.3767162886656515 7.044869889478368 0.9440949548763113 -4.162989518266096 -4.109700434119567 5.516540480909358" Properties=species:S:1:pos:R:3 unique_starting_index=10 config_type=initial n_minim_iter=10 stress="-0.0029616639156835635 0.0005103237082614293 0.0002766490856596629 0.0005103237082614293 -0.0025023194293911826 -0.00017886884051608725 0.0002766490856596629 -0.00017886884051608725 -0.002478139802773957" pbc="T T T"
Si       2.83674685       5.08662975       3.81221666
Si      -0.68868605       0.56471336       1.70432304
Si       1.27642380       3.21251222       3.50889342
Si       4.44479500       7.96528830       2.00764584
Si      -1.14020719      -2.78288407       3.99054562
Si      -0.03063369       3.30101763       1.52599448
Si       0.42011586      -0.90876654       4.29386886
Si       1.03801789       5.49302770       1.22267092
Si       4.30219132       6.65402345      -0.00000053
Si      -2.47877463      -1.50479411       5.51654027
Si       1.18062157       6.80429255       3.23031729
Si      -2.40353463       1.26082466       3.23031773
Si       2.82575083       1.72122516       2.28622218
Si       3.03377835       4.69222095      -0.00000038
14
Lattice="6.582981709416096 2.5067978073397588 -0.9674678693760117 -0.4157250491529402 7.031845959744628 0.9674671020738316 -4.172380224642413 -4.065383588635303 5.547136568994259" Properties=species:S:1:pos:R:3 unique_starting_index=10 config_type=initial n_minim_iter=11 stress="0.00043396891512902737 -0.0007043782035936021 -0.001741569493604129 -0.0007043782035936021 -0.0002000445873345341 0.0011260202717986963 -0.001741569493604129 0.0011260202717986963 -0.0004098338549685076" pbc="T T T"
Si       2.80421116       5.05932333       3.83224156
Si      -0.70962480       0.56815412       1.71489423
Si       1.25347214       3.19321848       3.52083672
Si       4.39235375       7.92681597       2.02629863
Si      -1.14584815      -2.75001697       4.00472878
Si      -0.04261367       3.29973802       1.54240741
Si       0.40489088      -0.88391212       4.31613363
Si       1.02266445       5.47971994       1.23100225
Si       4.28841807       6.63272092      -0.00000053
Si      -2.49633146      -1.47310748       5.54713636
Si       1.12660013       6.77381499       3.25730141
Si      -2.42828723       1.27561603       3.25730185
Si       2.82973464       1.73315261       2.28983415
Si       3.00100860       4.64153733      -0.00000037
14
Lattice="6.583575661746779 2.5273875382098523 -0.9492112735438473 -0.3971929588979023 7.0408376970943936 0.9492105038620889 -4.159313034527189 -4.094805996655524 5.543074630766702" Properties=species:S:1:pos:R:3 unique_starting_index=10 config_type=initial n_minim_iter=12 stress="0.00014703355474439948 9.733308857834133e-06 0.0005189664184976248 9.733308857834133e-06 0.00015579445578624182 -0.0003355401586380202 0.0005189664184976248 -0.0003355401586380202 0.001541123840987676" pbc="T T T"
Si       2.82056773       5.06192058       3.83401756
Si      -0.70090197       0.55471325       1.70905629
Si       1.26712093       3.20231139       3.51382778
Si       4.42723732       7.94315319       2.02924563
Si      -1.12796242      -2.76426687       4.00598818
Si      -0.03075535       3.31035892       1.53708608
Si       0.42548437      -0.90465768       4.32617796
Si       1.02748807       5.49014422       1.21689598
Si       4.29487691       6.64271054      -0.00000053
Si      -2.48055033      -1.49833234       5.54307442
Si       1.15984848       6.79058686       3.24614214
Si      -2.41042002       1.26859852       3.24614258
Si       2.84772205       1.74599210       2.29693148
Si       3.00419630       4.64646761      -0.00000037
14
Lattice="6.597832392870401 2.522184844019232 -0.9234246560094855 -0.4077883393345998 7.051703252721281 0.9234238858721929 -4.145151607626748 -4.1079772018232505 5.50914887451485" Properties=species:S:1:pos:R:3 unique_starting_index=10 config_type=initial n_minim_iter=13 stress="0.0020649243973926657 0.0012730257469551383 0.002597696144566033 0.0012730257469551383 0.003210779815354837 -0.0016795535801305851 0.002597696144566033 -0.0016795535801305851 -0.0017522174953350919" pbc="T T T"
Si       2.82306502       5.04674208       3.81273480
Si      -0.70160677       0.53759001       1.69641330
Si       1.26305949       3.17675136       3.48512616
Si       4.42341864       7.92145126       2.02402149
Si      -1.09934319      -2.76719938       3.98927561
Si      -0.02735218       3.32774505       1.51987289
Si       0.46066234      -0.89720866       4.31688425
Si       1.03766646       5.51777190       1.19226393
Si       4.28633942       6.62950596      -0.00000053
Si      -2.47667689      -1.52741555       5.50914867
Si       1.17474568       6.80971719       3.21628595
Si      -2.39743368       1.28477341       3.21628640
Si       2.87698436       1.76008738       2.29286190
Si       2.99188907       4.62743252      -0.00000037
14
Lattice="6.5497252465224065 2.4629379982400974 -0.9343245894520726 -0.4420723824198303 6.983519013847554 0.9343238295655144 -4.109263688857442 -4.040829954280344 5.5270519734989065" Properties=species:S:1:pos:R:3 unique_starting_index=10 config_type=initial n_minim_iter=14 stress="-0.0019790841144468425 0.002185648858284949 0.0018725180596299987 0.002185648858284949 -1.1772633791603875e-05 -0.0012106862402226726 0.0018725180596299987 -0.0012106862402226726 -0.0054857084289505875" pbc="T T T"
Si       2.74141869       4.95465080       3.81550494
Si      -0.71618924       0.49248902       1.71154627
Si       1.20089293       3.08604784       3.47724841
Si       4.31971591       7.76725239       2.04980237
Si      -1.04971195      -2.69958396       4.00791016
Si      -0.03256557       3.34046977       1.51914144
Si       0.49081381      -0.83098101       4.34616669
Si       1.03918213       5.51216341       1.18088459
Si       4.19863022       6.49384973      -0.00000052
Si      -2.49819665      -1.54905842       5.52705177
Si       1.16026783       6.78556608       3.23068747
Si      -2.35982186       1.34118726       3.23068791
Si       2.88030177       1.77861796       2.29636349
Si       2.92066866       4.51727883      -0.00000036
14
Lattice="6.500878121302406 2.3901836542728514 -0.9456624512463709 -0.48837027284855977 6.909116451514069 0.9456617031973207 -4.066636983481962 -3.9640537659686452 5.557642577306651" Properties=species:S:1:pos:R:3 unique_starting_index=10 config_type=initial n_minim_iter=15 stress="-0.0025701653293510544 -0.003091581382928266 0.0015494163044087671 -0.003091581382928266 -0.005352911123013651 -0.00100178237042044 0.0015494163044087671 -0.00100178237042044 -0.0036253362095939367" pbc="T T T"
Si       2.63231607       4.85786754       3.82667679
Si      -0.71704338       0.43005387       1.73096505
Si       1.11982117       3.00063493       3.48024622
Si       4.22258144       7.58788822       2.07739518
Si      -0.97245160      -2.63438127       4.03695529
Si      -0.05733328       3.36730251       1.52068691
Si       0.54004330      -0.77714866       4.38338586
Si       1.01554975       5.50876826       1.17425602
Si       4.09241009       6.32956340      -0.00000051
Si      -2.52347700      -1.57731130       5.55764239
Si       1.14572109       6.76709309       3.25165171
Si      -2.31753665       1.41061392       3.25165215
Si       2.88854596       1.79819028       2.30598986
Si       2.83795549       4.38934975      -0.00000035
14
Lattice="6.494993623815015 2.430610284877967 -1.0020971884078014 -0.4490900514657884 6.920341621884644 1.0020964362038047 -4.122008156927137 -3.964875242945577 5.623541838028993" Properties=species:S:1:pos:R:3 unique_starting_index=10 config_type=initial n_minim_iter=16 stress="-0.00015388613624964088 4.415107168730618e-05 -0.003372551942406698 4.415107168730618e-05 -0.00011414497428900287 0.0021805400977900303 -0.003372551942406698 0.0021805400977900303 0.0022391489267056057" pbc="T T T"
Si       2.60178081       4.90404553       3.85205607
Si      -0.71777287       0.42033881       1.77148502
Si       1.10669836       3.03356993       3.53588473
Si       4.23602519       7.64026847       2.08765593
Si      -1.00286855      -2.62283931       4.08220753
Si      -0.05630034       3.39513237       1.54133393
Si       0.49221389      -0.75236371       4.39837887
Si       1.03580517       5.52615462       1.22516227
Si       4.11624000       6.36642014      -0.00000051
Si      -2.58001072      -1.57993084       5.62354165
Si       1.15559036       6.80000294       3.31281871
Si      -2.31607065       1.43052677       3.31281914
Si       2.86016554       1.82146883       2.31072212
Si       2.86075488       4.42461263      -0.00000036
14
Lattice="6.495271419077512 2.4440036078291563 -0.9933319587586134 -0.4369906394603736 6.926091619450774 0.9933312050147005 -4.117112612468894 -3.9816134135140344 5.619953493475257" Properties=species:S:1:pos:R:3 unique_starting_index=10 config_type=initial n_minim_iter=17 stress="0.0013695817247134092 0.00012497281538477952 -0.0019521240390520617 0.00012497281538477952 0.0014820706305018777 0.0012621554972361655 -0.0019521240390520617 0.0012621554972361655 0.003759285306806314" pbc="T T T"
Si       2.58410244       4.89773161       3.84482888
Si      -0.71137974       0.38488841       1.77512386
Si       1.10250873       3.04064639       3.53151364
Si       4.26147044       7.64175728       2.08843868
Si      -0.96842507      -2.62057849       4.08843481
Si      -0.05110169       3.42987451       1.53151830
Si       0.51316865      -0.76349327       4.40175006
Si       1.03432891       5.54310087       1.21820273
Si       4.11420305       6.36326968      -0.00000051
Si      -2.58665535      -1.61451772       5.61995330
Si       1.18159630       6.82158847       3.30664192
Si      -2.29293869       1.44766723       3.30664235
Si       2.88138952       1.84862198       2.31331056
Si       2.85140047       4.41014454      -0.00000035
14
Lattice="6.4982777101096 2.435680259229979 -0.9835504599876689 -0.4458145271835021 6.925417129063626 0.9835497069675544 -4.109666356377738 -3.9800482108688615 5.60245837624408" Properties=species:S:1:pos:R:3 unique_starting_index=10 config_type=initial n_minim_iter=18 stress="0.00047716180700937033 -0.001117346618224753 0.00011302451045934571 -0.001117346618224753 -0.0005285666448793566 -7.307621363947238e-05 0.00011302451045934571 -7.307621363947238e-05 0.00291315127297567" pbc="T T T"
Si       2.57538204       4.88173409       3.82596642
Si      -0.71494279       0.37193600       1.77649122
Si       1.10874529       3.03930249       3.52469166
Si       4.25931408       7.63946024       2.07776554
Si      -0.95139533      -2.61314322       4.08594536
Si      -0.04968186       3.44102282       1.51651264
Si       0.51524142      -0.77071162       4.38722011
Si       1.02852446       5.53459596       1.21523756
Si       4.11917042       6.37095251      -0.00000051
Si      -2.58406273      -1.62045944       5.60245819
Si       1.16866812       6.80310369       3.29300361
Si      -2.29022827       1.45337005       3.29300404
Si       2.88898472       1.84890683       2.30945375
Si       2.84466835       4.39973225      -0.00000035
14
Lattice="6.505040000247252 2.4430412920320155 -0.9764164701513401 -0.4418772468211928 6.934604684569503 0.9764157158000323 -4.112091965347455 -3.990213146996174 5.583385450682939" Properties=species:S:1:pos:R:3 unique_starting_index=10 config_type=initial n_minim_iter=19 stress="0.0004135548339035218 0.00024248810667597747 7.910001326518051e-05 0.00024248810667597747 0.0006318193936400766 -5.114257088832868e-05 7.910001326518051e-05 -5.114257088832868e-05 -9.942906063215559e-05" pbc="T T T"
Si       2.58220719       4.88619943       3.81224159
Si      -0.71609750       0.36982754       1.77114312
Si       1.11319810       3.04182361       3.51254068
Si       4.26805961       7.65093911       2.07084359
Si      -0.95045307      -2.61676401       4.07462779
Si      -0.04509641       3.44677973       1.50875728
Si       0.51855602      -0.77238819       4.37432869
Si       1.03390923       5.54331414       1.20905605
Si       4.12716256       6.38331363      -0.00000051
Si      -2.58491600      -1.62819250       5.58338526
Si       1.17480627       6.81093962       3.27990015
Si      -2.28836988       1.45458663       3.27990058
Si       2.89308552       1.85049374       2.30348428
Si       2.85076056       4.40915483      -0.00000035
14
Lattice="6.498443572375092 2.431124760416687 -0.9776975507637389 -0.45003677448752216 6.923698782957516 0.9776967982482978 -4.107013366549113 -3.977315255894589 5.580863880393497" Properties=species:S:1:pos:R:3 unique_starting_index=10 config_type=initial n_minim_iter=20 stress="-0.0008614737135858658 1.6222136054030873e-05 9.3710733140253e-05 1.6222136054030873e-05 -0.0008468721166259242 -6.058922969328426e-05 9.3710733140253e-05 -6.058922969328426e-05 -0.002055014587105598" pbc="T T T"
Si       2.57524110       4.87095928       3.80783061
Si      -0.72205754       0.37011841       1.77303253
Si       1.10691037       3.02714772       3.51019209
Si       4.24757976       7.62925772       2.07067062
Si      -0.95023427      -2.60525212       4.07461587
Si      -0.04436583       3.44177925       1.50624762
Si       0.51809647      -0.76144055       4.37225440
Si       1.03440367       5.53746348       1.20860878
Si       4.12156597       6.37465761      -0.00000051
Si      -2.58585019      -1.62459436       5.58086369
Si       1.16041746       6.79206360       3.27927991
Si      -2.28758654       1.45917676       3.27928034
Si       2.88390960       1.83796617       2.30158296
Si       2.84811060       4.40505625      -0.00000035
14
Lattice="6.496247829156398 2.4421362230224664 -0.9753976014636362 -0.43909423872353825 6.926215626824156 0.9753968478599555 -4.104560642669928 -3.9884928697876445 5.588663237572095" Properties=species:S:1:pos:R:3 unique_starting_index=10 config_type=initial n_minim_iter=21 stress="-0.0006885647065836232 0.0006081222637610525 0.0003260326033823108 0.0006081222637610525 -0.00014119133423918538 -0.00021079807735769826 0.0003260326033823108 -0.00021079807735769826 -0.0010799651341376983" pbc="T T T"
Si       2.58484758       4.87243347       3.81591670
Si      -0.72220304       0.36830599       1.77274579
Si       1.11008460       3.03743045       3.51140322
Si       4.26685342       7.63872308       2.07725884
Si      -0.95069943      -2.60784076       4.07937879
Si      -0.03533600       3.44264336       1.50928406
Si       0.52406355      -0.77283774       4.38389227
Si       1.03276113       5.54057812       1.20477026
Si       4.13480466       6.39513335      -0.00000051
Si      -2.57860964      -1.62836683       5.58866305
Si       1.16480989       6.78416785       3.28202962
Si      -2.28349004       1.45082331       3.28203004
Si       2.87741995       1.82764708       2.30663261
Si       2.86128884       4.42543849      -0.00000036
