14
Lattice="6.9608202529983725 1.0221684302694718 -1.3197411435037274 -1.9246305979244247 6.767100236421147 1.3197405169238197 -4.339683242496677 -2.7168770097361 5.5643855792769825" Properties=species:S:1:pos:R:3 unique_starting_index=10 config_type=initial n_minim_iter=1 energy=-2276.2008693770917 free_energy=-2276.2008693770917 pbc="T T T"
Si       2.13098314       4.40866080       2.75479962
Si      -1.19397371       1.03570705       2.80958531
Si       0.25630463       2.92573417       3.33868701
Si       3.25930553       6.50685002       2.22569759
Si      -1.38295563      -2.13094059       4.93190771
Si      -0.67913579       2.93672174       0.63247759
Si       0.49172288      -0.64801396       4.34802032
Si      -0.09622538       5.25484743       1.21636467
Si       3.83984197       5.93892662      -0.00000048
Si      -3.12611131      -0.83989491       5.56438543
Si      -0.67676182       5.82277084       3.44206274
Si      -3.08668143       2.09544669       3.44206304
Si       2.56370835       1.09082588       2.12232206
Si       2.52400240       3.90377134      -0.00000031
14
Lattice="6.912455016215834 1.0304917671609173 -1.324576690874669 -1.8971912192721367 6.726411730181211 1.3245760668982618 -4.330820307458877 -2.6996599460600543 5.502951230111996" Properties=species:S:1:pos:R:3 unique_starting_index=10 config_type=initial n_minim_iter=2 stress="-0.01158000058990322 -0.0031589538626640885 0.0014594140927459184 -0.0031589538626640885 -0.01442338862255696 -0.0009435908692662335 0.0014594140927459184 -0.0009435908692662335 -0.011096668853149024" pbc="T T T"
Si       2.10575366       4.39921828       2.72705016
Si      -1.18336716       1.02604201       2.77590042
Si       0.25418801       2.91795211       3.29771001
Si       3.24101479       6.48657798       2.20524024
Si      -1.38430877      -2.11578469       4.86508787
Si      -0.67682266       2.92655976       0.63786307
Si       0.46725688      -0.63451851       4.29442802
Si      -0.08594081       5.22292729       1.20852263
Si       3.82476116       5.91560175      -0.00000048
Si      -3.12159769      -0.82940475       5.50295108
Si      -0.66968718       5.79390353       3.41376334
Si      -3.06941243       2.08234658       3.41376364
Si       2.53926742       1.09634260       2.08918711
Si       2.51299778       3.88675094      -0.00000031
14
Lattice="6.934914740634883 1.1992588986511832 -1.429780867240402 -1.7525094022166166 6.816155588363183 1.4297802224690015 -4.5073984474127 -2.7687810822632914 5.382929280495852" Properties=species:S:1:pos:R:3 unique_starting_index=10 config_type=initial n_minim_iter=3 stress="0.0019108844539767423 -0.00045260734783471865 -0.005850704079566578 -0.00045260734783471865 0.001503491691996387 0.0037827999355995474 -0.005850704079566578 0.0037827999355995474 -0.015306885950686619" pbc="T T T"
Si       2.07362248       4.60012854       2.68732192
Si      -1.16354771       1.01007475       2.69560669
Si       0.27532902       3.03142619       3.19753540
Si       3.32637928       6.74181665       2.18539288
Si      -1.48045877      -2.14210984       4.67218109
Si      -0.67080488       3.01746614       0.71074790
Si       0.31783469      -0.57340749       4.16196761
Si       0.02167347       5.30113872       1.22096107
Si       3.95825872       6.12207696      -0.00000049
Si      -3.25408109      -0.83032636       5.38292913
Si      -0.61020597       5.92087841       3.40635444
Si      -3.08766994       2.08908616       3.40635475
Si       2.50688745       1.21526915       1.97657405
Si       2.59367470       4.01153064      -0.00000032
14
Lattice="6.572536217695582 1.5464660892876467 -1.450030822094526 -1.2871682039750834 6.628196558637874 1.4500301645129752 -4.360317214187186 -2.976786743617651 5.60613895714702" Properties=species:S:1:pos:R:3 unique_starting_index=10 config_type=initial n_minim_iter=4 stress="-0.010677960291686075 0.0038685154717103447 -0.006946362286352948 0.0038685154717103447 -0.007195891876035919 0.004491204326826529 -0.006946362286352948 0.004491204326826529 -0.005888902411043106" pbc="T T T"
Si       2.05220377       4.71403814       2.88830486
Si      -0.90380158       0.82928624       2.71783341
Si       0.49259062       2.99413395       3.23877349
Si       3.45325118       6.87587592       2.36736444
Si      -1.34238547      -2.27498822       4.79588767
Si      -0.59859913       3.04008433       0.81025099
Si       0.21722768      -0.55508403       4.44541904
Si       0.32971613       5.16815731       1.16071930
Si       4.03770119       6.24494738      -0.00000050
Si      -3.07227880      -0.98463038       5.60613880
Si      -0.25473388       5.79908584       3.52808424
Si      -2.79043912       1.87721422       3.52808456
Si       2.42967013       1.33193680       2.07805390
Si       2.64046538       4.08389987      -0.00000033
14
Lattice="6.535708579521729 1.5750947658441363 -1.3947536707796877 -1.2459473939611734 6.606362621379317 1.3947530126515588 -4.2931962000416055 -3.0250017440175943 5.627590427992932" Properties=species:S:1:pos:R:3 unique_starting_index=10 config_type=initial n_minim_iter=5 stress="-0.010397201416031307 0.003081807541299564 0.0005782704851535997 0.003081807541299564 -0.007623253474069083 -0.00037388272429827264 0.0005782704851535997 -0.00037388272429827264 0.005294916934823463" pbc="T T T"
Si       2.06527228       4.71550247       2.92152133
Si      -0.84070860       0.79358943       2.70606841
Si       0.54221185       2.96396895       3.23138722
Si       3.47689303       6.86732560       2.39620218
Si      -1.26989140      -2.32936465       4.82248698
Si      -0.60642289       3.04245537       0.80510314
Si       0.25316903      -0.57783113       4.51262110
Si       0.36573666       5.15017659       1.11496872
Si       4.03883630       6.24670301      -0.00000050
Si      -3.00110631      -1.02657913       5.62759027
Si      -0.19620662       5.77079917       3.51117140
Si      -2.73922139       1.83762218       3.51117172
Si       2.44666853       1.32500760       2.11641821
Si       2.64190855       4.08613196      -0.00000033
14
Lattice="6.592165147982443 1.6033611852106637 -1.2890796265310271 -1.2433411617754355 6.669446221363024 1.2890789610545725 -4.2691216687355045 -3.1053359413121013 5.4906334837793045" Properties=species:S:1:pos:R:3 unique_starting_index=10 config_type=initial n_minim_iter=6 stress="0.00019652265623111808 6.58125253187768e-05 0.0035840727128507686 6.58125253187768e-05 0.0002557601571924766 -0.0023172988754165593 0.0035840727128507686 -0.0023172988754165593 0.010509059573819493" pbc="T T T"
Si       2.06681355       4.81758102       2.91014726
Si      -0.72418081       0.75655419       2.58048553
Si       0.60201388       2.93517015       3.09429490
Si       3.50922563       6.92105598       2.39633754
Si      -1.16279548      -2.46929878       4.68126265
Si      -0.69484461       3.09370282       0.80937053
Si       0.30200418      -0.58688790       4.49711501
Si       0.42057294       5.20200843       0.99351785
Si       4.07056674       6.29577918      -0.00000051
Si      -2.95034895      -1.06564409       5.49063332
Si      -0.14076817       5.82728523       3.38985590
Si      -2.73779813       1.81056515       3.38985622
Si       2.50392055       1.32524599       2.10077676
Si       2.66921918       4.12837219      -0.00000033
14
Lattice="6.687244765127117 1.5655448279563255 -1.2135434588934335 -1.316847118558724 6.740629677195448 1.2135427907328824 -4.275912599584245 -3.1246030696207403 5.356210129269289" Properties=species:S:1:pos:R:3 unique_starting_index=10 config_type=initial n_minim_iter=7 stress="0.011390909117700987 -0.0011866476278984664 0.0028583919346656904 -0.0011866476278984664 0.010322802048610507 -0.0018481071300930274 0.0028583919346656904 -0.0018481071300930274 0.011040435901897266" pbc="T T T"
Si       2.08912876       4.86450475       2.85852990
Si      -0.69734007       0.77689409       2.49767953
Si       0.59574196       2.90926434       2.99965508
Si       3.50295879       6.91880471       2.35655400
Si      -1.13157704      -2.53900605       4.56901307
Si      -0.75644038       3.10766285       0.78719677
Si       0.36180976      -0.58376564       4.42788788
Si       0.41365842       5.27192673       0.92832162
Si       4.06928492       6.29379664      -0.00000051
Si      -2.94558570      -1.06704083       5.35620996
Si      -0.15266772       5.89693480       3.28487613
Si      -2.78410735       1.82699470       3.28487646
Si       2.55104454       1.30131275       2.07133317
Si       2.68241978       4.14878902      -0.00000033
14
Lattice="6.675198636081971 1.6103293382938901 -1.1934596772149495 -1.2710641765725237 6.748024516317255 1.1934590048570166 -4.279037435409299 -3.159578723083564 5.280544751431805" Properties=species:S:1:pos:R:3 unique_starting_index=10 config_type=initial n_minim_iter=8 stress="0.0036251332687735204 0.002888975579673215 0.0017105767031144797 0.002888975579673215 0.006225512144127875 -0.001105982272141477 0.0017105767031144797 -0.001105982272141477 0.00113199479715751" pbc="T T T"
Si       2.10188193       4.91575999       2.84027572
Si      -0.65895901       0.77458347       2.44026832
Si       0.61071116       2.89536461       2.93363994
Si       3.51475213       6.94395438       2.34690377
Si      -1.12973792      -2.58119801       4.48381107
Si      -0.76505818       3.10922790       0.79673339
Si       0.36143285      -0.56080262       4.39044685
Si       0.46536514       5.29821084       0.89009727
Si       4.08019398       6.31066925      -0.00000051
Si      -2.93468170      -1.08031865       5.28054458
Si      -0.10007671       5.93149598       3.23700155
Si      -2.76837293       1.80455130       3.23700188
Si       2.54946447       1.31550550       2.04354237
Si       2.70171697       4.17863521      -0.00000034
14
Lattice="6.706083115839285 1.5161526483147127 -1.1907567348318389 -1.3696193707761588 6.737537678552154 1.1907560708931908 -4.27740480964901 -3.086426129181219 5.242098460708606" Properties=species:S:1:pos:R:3 unique_starting_index=10 config_type=initial n_minim_iter=9 stress="0.0038833961497354327 -0.010901896136395039 -0.003627903174393234 -0.010901896136395039 -0.005929446179153709 0.0023456396301248495 -0.003627903174393234 0.0023456396301248495 0.0011266809803298847" pbc="T T T"
Si       2.07445410       4.87952935       2.82704468
Si      -0.67910874       0.80785532       2.41505308
Si       0.55635264       2.84937411       2.90258418
Si       3.42908410       6.84399903       2.33951325
Si      -1.13517195      -2.56082447       4.44072415
Si      -0.81028741       3.08112305       0.80137402
Si       0.38292951      -0.53066922       4.36518464
Si       0.41798349       5.29866967       0.87691319
Si       4.00608866       6.19605358      -0.00000050
Si      -2.94466551      -1.02513273       5.24209830
Si      -0.15902107       5.94661512       3.21642693
Si      -2.82213545       1.82768497       3.21642727
Si       2.54319175       1.27014525       2.02567070
Si       2.67349521       4.13498576      -0.00000033
14
Lattice="6.692624292751289 1.6074481561186942 -1.1571454632189626 -1.2808431027060623 6.762732584023851 1.1571447899096592 -4.272922409631214 -3.171917887421312 5.201499413238719" Properties=species:S:1:pos:R:3 unique_starting_index=10 config_type=initial n_minim_iter=10 stress="0.0020836431562428442 -0.0009565628737881759 -0.0007961227375674373 -0.0009565628737881759 0.001222636995322201 0.0005147364142961157 -0.0007961227375674373 0.0005147364142961157 -0.007170780483412721" pbc="T T T"
Si       2.15345323       4.91535998       2.80243410
Si      -0.67437383       0.80910820       2.39906459
Si       0.59364468       2.85934136       2.88155670
Si       3.50266831       6.91309502       2.31994167
Si      -1.15768881      -2.59187717       4.42124178
Si      -0.74956362       3.07884434       0.78025734
Si       0.40211975      -0.53585855       4.34211918
Si       0.48517542       5.34503826       0.85937959
Si       4.05110796       6.26568308      -0.00000050
Si      -2.91937044      -1.07843438       5.20149925
Si      -0.06326422       5.99245021       3.17932176
Si      -2.77748943       1.79446904       3.17932210
Si       2.55500377       1.29825803       2.02217681
Si       2.71368306       4.19714267      -0.00000034
14
Lattice="6.633650406034636 1.6926221241408823 -1.1767389006413587 -1.1789695122166093 6.743909834143564 1.1767382219946683 -4.264391167682348 -3.224477913473423 5.269818788686014" Properties=species:S:1:pos:R:3 unique_starting_index=10 config_type=initial n_minim_iter=11 stress="-0.0015602260268657707 0.004662384121389608 0.0011606283592942664 0.004662384121389608 0.0026364054984574824 -0.0007504108902082998 0.0011606283592942664 -0.0007504108902082998 -0.0063153068889782666" pbc="T T T"
Si       2.20418816       4.92139858       2.83542600
Si      -0.68115781       0.80529180       2.43439207
Si       0.62098132       2.86271916       2.91926850
Si       3.54596041       6.95320087       2.35054924
Si      -1.19293904      -2.58440541       4.48093222
Si      -0.67685231       3.06355716       0.78888627
Si       0.39026780      -0.52572599       4.39708972
Si       0.55071037       5.35218005       0.87272842
Si       4.06679601       6.28994714      -0.00000051
Si      -2.89410643      -1.10511453       5.26981862
Si       0.02987477       6.01543378       3.22327816
Si      -2.72829485       1.74948557       3.22327851
Si       2.53940995       1.32945547       2.04653978
Si       2.73623034       4.23201561      -0.00000034
14
Lattice="6.594404683629652 1.7382148457633675 -1.1993208711253902 -1.1212867287972916 6.72683296110914 1.199320190184844 -4.259736242517513 -3.247705782855599 5.336399956706038" Properties=species:S:1:pos:R:3 unique_starting_index=10 config_type=initial n_minim_iter=12 stress="-0.006217417339431435 0.006184584257195979 0.0014495518487363424 0.006184584257195979 -0.0006506470641710967 -0.0009372153241633367 0.0014495518487363424 -0.0009372153241633367 -0.002929470681758266" pbc="T T T"
Si       2.23874768       4.91052860       2.86783311
Si      -0.70059863       0.80911780       2.46856612
Si       0.63032899       2.85597433       2.95633636
Si       3.55906544       6.96424491       2.38006255
Si      -1.22631123      -2.56419398       4.53710588
Si      -0.62163337       3.04670775       0.79929378
Si       0.38210746      -0.50963972       4.44860263
Si       0.59182052       5.35662845       0.88779668
Si       4.05693962       6.27470268      -0.00000050
Si      -2.87453617      -1.10527346       5.33639978
Si       0.09394634       6.04617068       3.26785973
Si      -2.70743207       1.71339322       3.26786008
Si       2.52649167       1.34740780       2.06853937
Si       2.74568102       4.24663259      -0.00000034
14
Lattice="6.619065635555541 1.7102378482183929 -1.206156209570627 -1.156920014681588 6.737839498255236 1.2061555299952085 -4.268097402102479 -3.23026749436679 5.358123501655994" Properties=species:S:1:pos:R:3 unique_starting_index=10 config_type=initial n_minim_iter=13 stress="-0.0007142401266879173 -0.004600324129706781 -0.001820766322375936 -0.004600324129706781 -0.004855011073709666 0.001177226410145672 -0.001820766322375936 0.001177226410145672 0.005374191301793223" pbc="T T T"
Si       2.21778257       4.89669792       2.89191851
Si      -0.71296787       0.80176175       2.46620427
Si       0.62830848       2.84516731       2.95804709
Si       3.53070621       6.95843498       2.40007536
Si      -1.21378664      -2.55092221       4.54218813
Si      -0.63400443       3.06404360       0.81593508
Si       0.37568745      -0.49939161       4.47605955
Si       0.58446711       5.35544771       0.88206331
Si       4.02360679       6.22314814      -0.00000050
Si      -2.86610875      -1.06186895       5.35812333
Si       0.09156653       6.09073455       3.28213917
Si      -2.74896096       1.69740680       3.28213952
Si       2.53841234       1.34797055       2.07598348
Si       2.73368099       4.22807264      -0.00000034
14
Lattice="6.671412549427905 1.7450858274007999 -1.154338704137019 -1.1466254101659008 6.799876594860711 1.1543380167680268 -4.2771300996500905 -3.2931204929523332 5.287195034376347" Properties=species:S:1:pos:R:3 unique_starting_index=10 config_type=initial n_minim_iter=14 stress="0.0027607645803697737 0.0004968751313851555 -0.0010980352944663866 0.0004968751313851555 0.0032080041880854994 0.0007099401861954925 -0.0010980352944663866 0.0007099401861954925 0.00489646192973113" pbc="T T T"
Si       2.24454316       4.92057042       2.86148217
Si      -0.71121380       0.77310922       2.42571214
Si       0.67657018       2.86480642       2.92600581
Si       3.58241720       7.04453706       2.36118817
Si      -1.18094168      -2.57898642       4.49214052
Si      -0.61946716       3.11650945       0.79505421
Si       0.38703130      -0.52322242       4.42761688
Si       0.61168897       5.39004403       0.85957750
Si       4.05875682       6.27751326      -0.00000050
Si      -2.83465466      -1.06210269       5.28719486
Si       0.13534935       6.15706783       3.22076617
Si      -2.77315641       1.65860086       3.22076653
Si       2.59314525       1.38512502       2.06642799
Si       2.74758634       4.24957947      -0.00000034
14
Lattice="6.697130648127773 1.7611396097622019 -1.095581441678915 -1.1425407264505978 6.829917557762293 1.0955807506019961 -4.262729821005405 -3.335113010143552 5.200504409907482" Properties=species:S:1:pos:R:3 unique_starting_index=10 config_type=initial n_minim_iter=15 stress="0.0009745197286943254 0.0007077080457221578 -1.7550308518101836e-05 0.0007077080457221578 0.0016115307465407837 1.134709904033824e-05 -1.7550308518101836e-05 1.134709904033824e-05 0.00034675672921841806" pbc="T T T"
Si       2.27778204       4.93589665       2.82633000
Si      -0.69647885       0.76771731       2.37417369
Si       0.70076031       2.84986283       2.87452455
Si       3.60306542       7.06456545       2.32597879
Si      -1.15736900      -2.61470347       4.42663538
Si      -0.61750894       3.12744927       0.77386872
Si       0.41965272      -0.52866966       4.37844083
Si       0.63753671       5.42165829       0.82206292
Si       4.06300206       6.28407920      -0.00000051
Si      -2.79956397      -1.07209419       5.20050423
Si       0.17760007       6.20214454       3.14804222
Si      -2.77715364       1.63214776       3.14804259
Si       2.62279108       1.38698293       2.05246131
Si       2.76035177       4.26932325      -0.00000034
14
Lattice="6.697425969120851 1.7574259907239524 -1.084167789769112 -1.146048391271687 6.828662775918156 1.084167099091859 -4.255861408529205 -3.336031138559821 5.181222974260865" Properties=species:S:1:pos:R:3 unique_starting_index=10 config_type=initial n_minim_iter=16 stress="3.6668147889955445e-05 0.000508870661169772 0.0004441462323013259 0.000508870661169772 0.0004947047107830883 -0.0002871650365330243 0.0004441462323013259 -0.0002871650365330243 -0.0007096494935944583" pbc="T T T"
Si       2.27406818       4.93903283       2.82130756
Si      -0.68522636       0.76469960       2.35991469
Si       0.70423791       2.84289548       2.86314897
Si       3.59894071       7.05899073       2.31807294
Si      -1.14561412      -2.62479995       4.40844249
Si      -0.62788414       3.12813842       0.77278017
Si       0.42421614      -0.52866261       4.36660108
Si       0.63932636       5.41993606       0.81462123
Si       4.06095978       6.28092049      -0.00000050
Si      -2.79269067      -1.07300476       5.18122279
Si       0.17730729       6.19800629       3.13269468
Si      -2.77628125       1.62981164       3.13269505
Si       2.62364661       1.38045034       2.04852742
Si       2.76066885       4.26981367      -0.00000034
14
Lattice="6.695940961537404 1.748213538126137 -1.0769457437200114 -1.1538398082212307 6.823527761898842 1.0769450541968912 -4.249685178221626 -3.329851819681076 5.164286411739459" Properties=species:S:1:pos:R:3 unique_starting_index=10 config_type=initial n_minim_iter=17 stress="-0.0019195386477844428 -0.0011063531942212155 0.000868679806938462 -0.0011063531942212155 -0.0029153720053962827 -0.0005616489861884226 0.000868679806938462 -0.0005616489861884226 -0.001384406812083678" pbc="T T T"
Si       2.25918955       4.94092949       2.82464668
Si      -0.67121430       0.75808944       2.33963900
Si       0.70971560       2.83081983       2.85954997
Si       3.58258063       7.05086181       2.30473538
Si      -1.12917097      -2.63279446       4.38330955
Si      -0.64502290       3.13168387       0.78097656
Si       0.42030298      -0.52268481       4.34840626
Si       0.64328332       5.41065280       0.81587949
Si       4.05292394       6.26849178      -0.00000050
Si      -2.78289415      -1.06122610       5.16428623
Si       0.17294001       6.19302282       3.12061538
Si      -2.78302823       1.62114759       3.12061574
Si       2.61799166       1.36655963       2.04367016
Si       2.76171210       4.27142722      -0.00000034
14
Lattice="6.7084096588843325 1.7618078227072347 -1.118648498112774 -1.1465603323070808 6.840477169621305 1.1186478061326761 -4.289390330025647 -3.325836242021638 5.202792882096021" Properties=species:S:1:pos:R:3 unique_starting_index=10 config_type=initial n_minim_iter=18 stress="0.0003790226858693556 -0.0010362590847687427 -0.0010691342174554066 -0.0010362590847687427 -0.0005537183245364235 0.0006912538911117539 -0.0010691342174554066 0.0006912538911117539 -0.0018797722122579515" pbc="T T T"
Si       2.26059598       4.95197069       2.85210204
Si      -0.70142815       0.76791889       2.35069012
Si       0.70713439       2.84815589       2.91206150
Si       3.57949180       7.09018205       2.29073031
Si      -1.16908964      -2.60810739       4.39276252
Si      -0.62608485       3.13997283       0.81003006
Si       0.38437194      -0.50429259       4.33280305
Si       0.65484453       5.41999466       0.86998917
Si       4.06754357       6.29110338      -0.00000051
Si      -2.80767936      -1.03413446       5.20279270
Si       0.16679275       6.21907334       3.16071999
Si      -2.80922397       1.61618994       3.16072036
Si       2.59795488       1.36543726       2.04207202
Si       2.78294178       4.30426229      -0.00000035
14
Lattice="6.683695372095631 1.8481007110345058 -1.17285499672068 -1.0577266754875334 6.8533550898052 1.1728542967631423 -4.319903194472976 -3.3764217406213723 5.327604769351874" Properties=species:S:1:pos:R:3 unique_starting_index=10 config_type=initial n_minim_iter=19 stress="0.00017765264385316229 0.0013662560474684404 0.001282136930875595 0.0013662560474684404 0.0014074252829843967 -0.0008289716900787366 0.001282136930875595 -0.0008289716900787366 0.004743070977718243" pbc="T T T"
Si       2.31187759       4.98198249       2.95231138
Si      -0.72561934       0.77641425       2.37529266
Si       0.74157321       2.86206686       3.02707583
Si       3.61164993       7.17588136       2.30052786
Si      -1.23040817      -2.59647288       4.45266776
Si      -0.55670342       3.13741639       0.87493670
Si       0.33989620      -0.47655726       4.37790330
Si       0.73199601       5.43940508       0.94970080
Si       4.10595463       6.35051218      -0.00000051
Si      -2.79503996      -1.01797810       5.32760458
Si       0.23769131       6.26477426       3.25022917
Si      -2.80718600       1.55538700       3.25022955
Si       2.56687976       1.37793711       2.07737471
Si       2.83449285       4.38399423      -0.00000035
14
Lattice="6.7150250670201 1.8240723386747129 -1.145860602868445 -1.0924960780208905 6.872063407017068 1.1458599033388617 -4.325825834193304 -3.36882042846307 5.241993279539708" Properties=species:S:1:pos:R:3 unique_starting_index=10 config_type=initial n_minim_iter=20 stress="0.0003588525745710158 0.0014611983657194614 -0.0011086900120951394 0.0014611983657194614 0.0016740836190024739 0.0007168284815370779 -0.0011086900120951394 0.0007168284815370779 -0.0030292543904909437" pbc="T T T"
Si       2.30677429       4.98865516       2.91650443
Si      -0.72336273       0.78210033       2.32548811
Si       0.73756137       2.86180158       2.97451651
Si       3.60369214       7.17439534       2.26747569
Si      -1.22110376      -2.60774781       4.37355466
Si      -0.58016598       3.14355510       0.86843831
Si       0.34810915      -0.48089423       4.31554258
Si       0.71530814       5.44739584       0.92645003
Si       4.10785094       6.35344513      -0.00000051
Si      -2.79947418      -1.00807472       5.24199309
Si       0.21114934       6.26834605       3.19392623
Si      -2.82988036       1.56490973       3.19392661
Si       2.58365213       1.37601670       2.04806617
Si       2.82784423       4.37371107      -0.00000035
14
Lattice="6.70922735113547 1.8594401054842913 -1.1753090212701724 -1.0578646708547093 6.881291531829284 1.1753083181532327 -4.343005733811256 -3.389331902501796 5.313400920944722" Properties=species:S:1:pos:R:3 unique_starting_index=10 config_type=initial n_minim_iter=21 stress="0.0020213985106140916 -0.0004422408423028345 5.535205012288794e-05 -0.0004422408423028345 0.001623335642275873 -3.5788220181174634e-05 5.535205012288794e-05 -3.5788220181174634e-05 0.00031617128256460715" pbc="T T T"
Si       2.35178664       4.99466874       3.00228488
Si      -0.75353208       0.80510379       2.31111530
Si       0.75899191       2.86710097       3.05457104
Si       3.61138329       7.22019722       2.25882880
Si      -1.27315956      -2.59339781       4.38016146
Si      -0.53406245       3.12605895       0.93323914
Si       0.31963518      -0.46583004       4.32787530
Si       0.75238486       5.45169715       0.98552494
Si       4.12838472       6.38520389      -0.00000051
Si      -2.78280291      -0.97622998       5.31340073
Si       0.23538343       6.28669048       3.24435425
Si      -2.84779735       1.51806081       3.24435464
Si       2.56617051       1.37417601       2.06904578
Si       2.85546231       4.41642683      -0.00000035
