14
Lattice="8.013010397361862 -3.1308184613024754 -0.31106413808113303 -2.037078063646976 7.1975064619376745 -0.7541679041254268 -3.7803376273934792 0.8445285185949231 8.090014342621673" Properties=species:S:1:pos:R:3 unique_starting_index=20 config_type=initial n_minim_iter=1 energy=-2303.2263484034133 free_energy=-2303.2263484034133 pbc="T T T"
Si       1.83180538       1.77522254       7.14192170
Si       5.73180234       1.54802999       0.92619402
Si       0.36378933       3.13599398      -0.11713940
Si      -3.53620764       3.36318653       6.09858828
Si       3.81478980       1.45346556       4.34728530
Si       4.58486940       1.16927049       2.52273797
Si      -1.61919509       3.45775096       2.67749700
Si      -2.38927469       3.74194602       4.50204433
Si       0.15227546       3.72042006       1.78512246
Si      -1.00493659       3.15310031       5.82776654
Si       2.04331925       1.19079646       5.23965984
Si       3.20053129       1.75811621       1.19701576
Si       3.23715291       2.93941076      -0.41730956
Si      -1.04155821       1.97180576       7.44209186
14
Lattice="8.013023096930198 -3.13090261417524 -0.31137445140161374 -2.0371382482511544 7.1974697057158865 -0.754070336755741 -3.7806214556192668 0.8446143165496988 8.090292680799461" Properties=species:S:1:pos:R:3 unique_starting_index=20 config_type=initial n_minim_iter=2 stress="0.0004747610465629183 0.000220895876493524 -0.00022381573414522254 0.000220895876493524 0.00015771196890314058 0.00013619823723385861 -0.00022381573414522254 0.00013619823723385861 0.0007094503242613116" pbc="T T T"
Si       1.83150843       1.77521358       7.14198740
Si       5.73172087       1.54794202       0.92600535
Si       0.36375496       3.13596783      -0.11713951
Si      -3.53645748       3.36323939       6.09884255
Si       3.81458475       1.45343839       4.34722985
Si       4.58473436       1.16920855       2.52260273
Si      -1.61932136       3.45774302       2.67761805
Si      -2.38947097       3.74197286       4.50224516
Si       0.15215851       3.72039760       1.78517161
Si      -1.00519372       3.15311599       5.82790655
Si       2.04310488       1.19078380       5.23967629
Si       3.20045711       1.75806542       1.19694134
Si       3.23711530       2.93933491      -0.41741767
Si      -1.04185191       1.97184650       7.44226557
14
Lattice="8.012887403940868 -3.131017656948911 -0.3114810380982727 -2.03721639500552 7.197417481363687 -0.7540429024133466 -3.780665027220458 0.8446562759342588 8.090183290450623" Properties=species:S:1:pos:R:3 unique_starting_index=20 config_type=initial n_minim_iter=3 stress="-9.994516310082022e-05 0.00025000896077858594 -0.00028058967686012804 0.00025000896077858594 -5.694644461183713e-05 0.0002602002920330808 -0.00028058967686012804 0.0002602002920330808 -0.00014880108118168846" pbc="T T T"
Si       1.83131224       1.77512725       7.14180822
Si       5.73153356       1.54780459       0.92589022
Si       0.36369374       3.13592885      -0.11714887
Si      -3.53652758       3.36325151       6.09876913
Si       3.81438430       1.45335106       4.34707571
Si       4.58455635       1.16909255       2.52246063
Si      -1.61937831       3.45770504       2.67758364
Si      -2.38955037       3.74196355       4.50219872
Si       0.15205063       3.72034228       1.78512848
Si      -1.00532734       3.15307588       5.82778384
Si       2.04295535       1.19071382       5.23953087
Si       3.20033332       1.75798022       1.19687551
Si       3.23698774       2.93922708      -0.41746464
Si      -1.04198176       1.97182902       7.44212399
14
Lattice="8.012920667866005 -3.1313319172853737 -0.3114220627690285 -2.0375019773914578 7.197461561640571 -0.7542108827459021 -3.7806657218304194 0.8446248008199687 8.090205846496264" Properties=species:S:1:pos:R:3 unique_starting_index=20 config_type=initial n_minim_iter=4 stress="8.424431823418869e-05 -0.00013759327408955342 2.0344412516070314e-05 -0.00013759327408955342 0.0003028989984651189 -0.00018850730669517113 2.0344412516070314e-05 -0.00018850730669517113 0.00039459936040985656" pbc="T T T"
Si       1.83118469       1.77484811       7.14179332
Si       5.73139300       1.54751627       0.92583567
Si       0.36356828       3.13590633      -0.11722041
Si      -3.53664003       3.36323817       6.09873723
Si       3.81425134       1.45310738       4.34703760
Si       4.58444710       1.16881128       2.52241262
Si      -1.61949837       3.45764707       2.67753530
Si      -2.38969414       3.74194316       4.50216028
Si       0.15187945       3.72026455       1.78505906
Si      -1.00547152       3.15294618       5.82771741
Si       2.04287352       1.19048989       5.23951384
Si       3.20022448       1.75780827       1.19685549
Si       3.23683035       2.93905900      -0.41753663
Si      -1.04207739       1.97169544       7.44210953
14
Lattice="8.013306710904773 -3.131588487426885 -0.3115164887593404 -2.038134117245097 7.196662188150279 -0.7542134479168072 -3.7809149794420227 0.8447775798441017 8.090091189178294" Properties=species:S:1:pos:R:3 unique_starting_index=20 config_type=initial n_minim_iter=5 stress="0.0007361181368739175 -0.0002444078258039778 -1.8456945409188582e-05 -0.0002444078258039778 -0.00017128681357751491 7.702140782813005e-05 -1.8456945409188582e-05 7.702140782813005e-05 -2.530064596868862e-06" pbc="T T T"
Si       1.83085998       1.77430216       7.14160076
Si       5.73137157       1.54674115       0.92569074
Si       0.36339763       3.13554912      -0.11723951
Si      -3.53711396       3.36311013       6.09867051
Si       3.81417101       1.45269686       4.34676803
Si       4.58445997       1.16813894       2.52221581
Si      -1.61991339       3.45715442       2.67759322
Si      -2.39020235       3.74171234       4.50214545
Si       0.15155904       3.71975659       1.78503576
Si      -1.00587692       3.15247500       5.82749595
Si       2.04269857       1.19009469       5.23932549
Si       3.20013453       1.75737628       1.19686530
Si       3.23670596       2.93831877      -0.41754488
Si      -1.04244834       1.97153251       7.44190613
14
Lattice="8.012987545921337 -3.131576002810681 -0.31151513912631146 -2.03811311506329 7.196488983379911 -0.7543048787342876 -3.7807888560125567 0.8446940349550539 8.090233213494427" Properties=species:S:1:pos:R:3 unique_starting_index=20 config_type=initial n_minim_iter=6 stress="-0.00018280061478035488 9.500099848427471e-06 0.00011944517291701822 9.500099848427471e-06 -0.00021724884867311 6.546648183064736e-05 0.00011944517291701822 6.546648183064736e-05 0.0005628970243828484" pbc="T T T"
Si       1.83069486       1.77410611       7.14169499
Si       5.73113014       1.54659089       0.92565954
Si       0.36339071       3.13550091      -0.11728180
Si      -3.53704457       3.36301612       6.09875366
Si       3.81399467       1.45261441       4.34677442
Si       4.58427375       1.16798246       2.52221110
Si      -1.61990910       3.45699260       2.67763877
Si      -2.39018817       3.74162456       4.50220210
Si       0.15150522       3.71963673       1.78504954
Si      -1.00589716       3.15229733       5.82751092
Si       2.04258035       1.18997028       5.23936365
Si       3.19998273       1.75730969       1.19690227
Si       3.23656891       2.93819038      -0.41759333
Si      -1.04248333       1.97141663       7.44200653
14
Lattice="8.01325200523339 -3.1320419695730695 -0.3118050912876924 -2.038506364049234 7.196699797057055 -0.7547461932915577 -3.7814749920512023 0.8441822701985521 8.089729176568836" Properties=species:S:1:pos:R:3 unique_starting_index=20 config_type=initial n_minim_iter=7 stress="0.00016945945991748632 0.0003303889719167966 -0.0004950445855038584 0.0003303889719167966 -6.761866803764811e-05 -0.0008982938857656268 -0.0004950445855038584 -0.0008982938857656268 -0.00018037815859107005" pbc="T T T"
Si       1.82985837       1.77312263       7.14076319
Si       5.73120205       1.54591093       0.92500965
Si       0.36341228       3.13571747      -0.11758530
Si      -3.53793141       3.36292917       6.09816824
Si       3.81366284       1.45220553       4.34584548
Si       4.58414148       1.16725451       2.52153836
Si      -1.62039219       3.45663456       2.67733241
Si      -2.39087083       3.74158559       4.50163953
Si       0.15110190       3.71949723       1.78469388
Si      -1.00655671       3.15171312       5.82654515
Si       2.04216875       1.18934287       5.23848401
Si       3.19982736       1.75712698       1.19663274
Si       3.23660359       2.93796580      -0.41811470
Si      -1.04333295       1.97087430       7.44129260
14
Lattice="8.014276998542062 -3.1342274683374085 -0.3123220325814632 -2.0403623078697684 7.197498369558046 -0.7545649134029705 -3.7823989197686387 0.845083947926371 8.088688129547151" Properties=species:S:1:pos:R:3 unique_starting_index=20 config_type=initial n_minim_iter=8 stress="3.880667626026823e-05 -0.0001680864102139576 -1.124690220291537e-05 -0.0001680864102139576 -0.00029345271782381735 1.850194432538148e-05 -1.124690220291537e-05 1.850194432538148e-05 -0.00017263489865829127" pbc="T T T"
Si       1.82833681       1.77201013       7.13945796
Si       5.73143687       1.54373105       0.92447597
Si       0.36317896       3.13634472      -0.11765677
Si      -3.53992110       3.36462380       6.09732522
Si       3.81310291       1.45180515       4.34458773
Si       4.58401922       1.16547697       2.52075679
Si      -1.62158713       3.45654970       2.67721345
Si      -2.39250345       3.74287787       4.50104439
Si       0.14981155       3.71962991       1.78484335
Si      -1.00787240       3.15164407       5.82502144
Si       2.04170422       1.18872494       5.23695783
Si       3.19938817       1.75671078       1.19677974
Si       3.23640478       2.93701647      -0.41841886
Si      -1.04488901       1.97133838       7.44022004
14
Lattice="8.014555296053796 -3.1359270875418743 -0.3128687532907702 -2.0409202529741024 7.200059296849461 -0.7548896168943321 -3.783349344616718 0.8449486327892283 8.087782518128327" Properties=species:S:1:pos:R:3 unique_starting_index=20 config_type=initial n_minim_iter=9 stress="-0.00010000088953129292 -0.00013522359645561275 -0.00011466516186910944 -0.00013522359645561275 -0.0002568911441776697 -0.00015558237280867873 -0.00011466516186910944 -0.00015558237280867873 -0.0004289627839076542" pbc="T T T"
Si       1.82677146       1.77099758       7.13781059
Si       5.73181274       1.54279335       0.92360606
Si       0.36351424       3.13808326      -0.11778644
Si      -3.54152704       3.36628749       6.09641809
Si       3.81251731       1.45226363       4.34323462
Si       4.58397426       1.16450953       2.51947665
Si      -1.62223161       3.45681721       2.67678953
Si      -2.39368856       3.74457131       4.50054749
Si       0.14911541       3.72062793       1.78464570
Si      -1.00872689       3.15168560       5.82370254
Si       2.04117029       1.18845291       5.23537844
Si       3.19901259       1.75739524       1.19632161
Si       3.23666453       2.93727372      -0.41909733
Si      -1.04637884       1.97180712       7.43912148
14
Lattice="8.013871613424767 -3.136929976788368 -0.3130264972880181 -2.0404586271088814 7.203041752286138 -0.7546706658961008 -3.783189817156766 0.8452766275857894 8.087107325007594" Properties=species:S:1:pos:R:3 unique_starting_index=20 config_type=initial n_minim_iter=10 stress="-0.000281734210908583 0.00016025867875069886 -6.385217319450339e-05 0.00016025867875069886 0.00032230126196997164 0.0001857767084739018 -6.385217319450339e-05 0.0001857767084739018 -0.0006610900234574716" pbc="T T T"
Si       1.82606974       1.77126311       7.13698083
Si       5.73206842       1.54298439       0.92340689
Si       0.36415343       3.14012529      -0.11757067
Si      -3.54184525       3.36840401       6.09600327
Si       3.81233143       1.45385666       4.34242013
Si       4.58357516       1.16477330       2.51895967
Si      -1.62210826       3.45753174       2.67699003
Si      -2.39335199       3.74661510       4.50045049
Si       0.14917024       3.72224469       1.78499088
Si      -1.00865713       3.15259383       5.82305819
Si       2.04105293       1.18914371       5.23441928
Si       3.19888030       1.75879458       1.19635197
Si       3.23705504       2.93823145      -0.41911766
Si      -1.04683187       1.97315696       7.43852782
14
Lattice="8.01257729267022 -3.138222023874077 -0.3117793041724095 -2.0414174250580546 7.2031633195474045 -0.7561494127324911 -3.781709592590359 0.8445907022516452 8.08748330376906" Properties=species:S:1:pos:R:3 unique_starting_index=20 config_type=initial n_minim_iter=11 stress="-0.00039493841961836214 7.190336077978871e-05 2.8646325521372983e-05 7.190336077978871e-05 -0.0003150334149418738 6.387575774931048e-05 2.8646325521372983e-05 6.387575774931048e-05 -0.0005746287776172606" pbc="T T T"
Si       1.82501918       1.76816979       7.13719061
Si       5.73187480       1.53979735       0.92408319
Si       0.36443109       3.14136221      -0.11763602
Si      -3.54242452       3.36973465       6.09547140
Si       3.81204786       1.45369179       4.34241535
Si       4.58202384       1.16260198       2.51883142
Si      -1.62259758       3.45584021       2.67713924
Si      -2.39257356       3.74693002       4.50072317
Si       0.14873948       3.72170675       1.78557138
Si      -1.00845037       3.15082096       5.82299563
Si       2.04071079       1.18782525       5.23398320
Si       3.19790065       1.75871104       1.19655896
Si       3.23677349       2.93675351      -0.41999399
Si      -1.04732321       1.97277849       7.43954857
14
Lattice="8.011962262748382 -3.1394941252434414 -0.311601301491213 -2.04203228108249 7.204150219099668 -0.7560829096663494 -3.781081807050198 0.8453106909309682 8.087758356682443" Properties=species:S:1:pos:R:3 unique_starting_index=20 config_type=initial n_minim_iter=12 stress="-0.000246895189447586 0.00017384538117942445 0.0001860376567517056 0.00017384538117942445 -0.0002535208207475944 0.00011742490490603055 0.0001860376567517056 0.00011742490490603055 -0.00045298398278442823" pbc="T T T"
Si       1.82469822       1.76787847       7.13731586
Si       5.73136374       1.53875668       0.92441023
Si       0.36414996       3.14208832      -0.11724172
Si      -3.54251557       3.37121010       6.09566392
Si       3.81170559       1.45389512       4.34271473
Si       4.58128842       1.16202480       2.51903603
Si      -1.62285742       3.45607167       2.67735941
Si      -2.39244024       3.74794199       4.50103812
Si       0.14850954       3.72202612       1.78585025
Si      -1.00857998       3.15117758       5.82320481
Si       2.04033863       1.18794067       5.23422390
Si       3.19742816       1.75878920       1.19686933
Si       3.23643959       2.93663427      -0.41994983
Si      -1.04759142       1.97333252       7.44002398
14
Lattice="8.008311592928404 -3.1472718106227435 -0.31347150194087353 -2.045852085387757 7.209301413879181 -0.7548059740119818 -3.7802611004406432 0.8497659350173631 8.089447497873559" Properties=species:S:1:pos:R:3 unique_starting_index=20 config_type=initial n_minim_iter=13 stress="-0.00020060625427154984 -8.786849110974421e-05 3.2533411736484454e-05 -8.786849110974421e-05 -0.0006726656337808453 4.134076478083314e-05 3.2533411736484454e-05 4.134076478083314e-05 0.00016976068324196808" pbc="T T T"
Si       1.82043993       1.76706733       7.13730156
Si       5.72668531       1.53341943       0.92356975
Si       0.36175847       3.14472821      -0.11613154
Si      -3.54448690       3.37837611       6.09760028
Si       3.80755778       1.45370885       4.34244357
Si       4.57623146       1.15855273       2.51894175
Si      -1.62535937       3.45808668       2.67872645
Si      -2.39403305       3.75324280       4.50222828
Si       0.14595264       3.72370236       1.78719808
Si      -1.01147001       3.15353334       5.82472850
Si       2.03624577       1.18809318       5.23397194
Si       3.19366842       1.75826220       1.19644153
Si       3.23333257       2.93544898      -0.42067314
Si      -1.05113416       1.97634655       7.44184316
14
Lattice="8.005093215233108 -3.1572883776710574 -0.3151629812213332 -2.0501797417987127 7.218564177712526 -0.752925422159803 -3.7792320497641434 0.8555593019566439 8.089719555831346" Properties=species:S:1:pos:R:3 unique_starting_index=20 config_type=initial n_minim_iter=14 stress="0.00026360447625969696 -0.0003383938722618423 2.651961751524087e-05 -0.0003383938722618423 -5.265468538250526e-06 0.00017421070859628148 2.651961751524087e-05 0.00017421070859628148 0.0005365090933250518" pbc="T T T"
Si       1.81647019       1.76777970       7.13660615
Si       5.72194075       1.52848210       0.92312613
Si       0.35921123       3.14905540      -0.11497499
Si      -3.54625933       3.38835300       6.09850502
Si       3.80390825       1.45459152       4.34174953
Si       4.57154242       1.15575525       2.51839688
Si      -1.62822682       3.46224358       2.67988163
Si      -2.39586099       3.76107986       4.50323428
Si       0.14355473       3.72762216       1.78875342
Si      -1.01442180       3.15827132       5.82544709
Si       2.03212669       1.18921294       5.23287774
Si       3.19010322       1.75856378       1.19618407
Si       3.23035126       2.93577201      -0.42109689
Si      -1.05466983       1.98106309       7.44272805
14
Lattice="8.001182862903597 -3.1690484652107482 -0.31365889128110724 -2.055458642988656 7.2300909082560905 -0.7547772635238863 -3.776171627245833 0.8582058711072611 8.087207012833153" Properties=species:S:1:pos:R:3 unique_starting_index=20 config_type=initial n_minim_iter=15 stress="0.0008914285548814872 -0.0002562916197880697 7.242907081212322e-05 -0.0002562916197880697 3.381556368100009e-05 -2.6236208876651602e-05 7.242907081212322e-05 -2.6236208876651602e-05 0.0008866348360716157" pbc="T T T"
Si       1.81293584       1.76465682       7.13408168
Si       5.71718677       1.52045718       0.92172249
Si       0.35661675       3.15459150      -0.11531082
Si      -3.54763417       3.39879113       6.09704837
Si       3.80106254       1.45391134       4.34130582
Si       4.56615043       1.15086019       2.51748405
Si      -1.63150994       3.46533697       2.67746504
Si      -2.39659784       3.76838813       4.50128681
Si       0.14176322       3.73085143       1.78924294
Si      -1.01719181       3.16033455       5.82329362
Si       2.02778937       1.18839688       5.22952791
Si       3.18674440       1.75891377       1.19547724
Si       3.22868823       2.93579089      -0.42196320
Si      -1.05913564       1.98345743       7.44073406
14
Lattice="7.986025068745445 -3.2093611631631718 -0.31474721196208794 -2.0727531423895704 7.268746434096169 -0.758480422424092 -3.7700039182952843 0.8693915116871772 8.08704588632945" Properties=species:S:1:pos:R:3 unique_starting_index=20 config_type=initial n_minim_iter=16 stress="0.0013831205489122074 -0.0002432866065579613 8.575503993459572e-05 -0.0002432866065579613 0.0005387029138118861 -0.0002036290778657529 8.575503993459572e-05 -0.0002036290778657529 0.00046912641581808325" pbc="T T T"
Si       1.79411106       1.75685483       7.12813231
Si       5.69648297       1.49536453       0.91659086
Si       0.34915695       3.17192196      -0.11431406
Si      -3.55321496       3.43341225       6.09722739
Si       3.78649065       1.45052088       4.33968350
Si       4.54553162       1.13656065       2.51509298
Si      -1.64322264       3.47825590       2.67413475
Si      -2.40226361       3.79221613       4.49872527
Si       0.13356407       3.74115613       1.79217675
Si      -1.02926093       3.17002488       5.82090414
Si       2.00970394       1.18762065       5.22164151
Si       3.17252894       1.75875190       1.19291411
Si       3.22083514       2.93260033      -0.42641944
Si      -1.07756713       1.99617646       7.44023769
14
Lattice="7.98816986203051 -3.206026768074155 -0.3183884174446048 -2.072679090598506 7.261755868530404 -0.7581484319079841 -3.7748663408089507 0.8677944325048689 8.08957584180663" Properties=species:S:1:pos:R:3 unique_starting_index=20 config_type=initial n_minim_iter=17 stress="-0.0022471230432807147 0.0010112984740157447 -0.00028686508637360236 0.0010112984740157447 -0.000491369650471936 0.00017759589072581237 -0.00028686508637360236 0.00017759589072581237 -0.0016294833773950715" pbc="T T T"
Si       1.79180900       1.75521390       7.12767915
Si       5.69603194       1.49696973       0.91398782
Si       0.34881543       3.16830963      -0.11464016
Si      -3.55540751       3.42655380       6.09905117
Si       3.78520222       1.44602571       4.33756881
Si       4.54633712       1.13828304       2.51311317
Si      -1.64457779       3.47749782       2.67547018
Si      -2.40571269       3.78524049       4.49992582
Si       0.13219064       3.73554297       1.79229176
Si      -1.02992399       3.16810340       5.82085650
Si       2.00843379       1.18798056       5.22074723
Si       3.17054842       1.75542013       1.19218249
Si       3.22212915       2.92929661      -0.42721012
Si      -1.08150472       1.99422693       7.44024912
14
Lattice="7.972944923913555 -3.2609968280385018 -0.32776504265028983 -2.1005508593837705 7.304874761817073 -0.7606327286557242 -3.776314164178151 0.8845329129905125 8.091886753802493" Properties=species:S:1:pos:R:3 unique_starting_index=20 config_type=initial n_minim_iter=18 stress="0.001972167894487084 -0.0008627592102765306 -0.00018258343757418836 -0.0008627592102765306 0.0006780937739850018 0.00010800458319108184 -0.00018258343757418836 0.00010800458319108184 0.0013240255561542016" pbc="T T T"
Si       1.76061344       1.73960893       7.11753836
Si       5.66822131       1.46182622       0.90176463
Si       0.33546646       3.18880192      -0.11404937
Si      -3.57214141       3.46658463       6.10172435
Si       3.76153854       1.43341969       4.32909872
Si       4.51831519       1.11807417       2.50399028
Si      -1.66545864       3.49499115       2.67439027
Si      -2.42223529       3.81033667       4.49949870
Si       0.11577399       3.74155970       1.79691803
Si      -1.04862437       3.17926909       5.81667376
Si       1.98030591       1.18685115       5.20657095
Si       3.14470427       1.74914175       1.18681522
Si       3.20966519       2.92049291      -0.43395344
Si      -1.11358529       2.00791794       7.43744242
14
Lattice="7.958443740782319 -3.300835776411063 -0.3335673595663433 -2.121239932406324 7.333462735025179 -0.7685423078094137 -3.77757755773471 0.8895179264393616 8.092001936010035" Properties=species:S:1:pos:R:3 unique_starting_index=20 config_type=initial n_minim_iter=19 stress="0.0015386287142029218 0.00010448387483993755 -0.00013337268771795356 0.00010448387483993755 -0.0001360322470918544 4.3845409296218755e-05 -0.00013337268771795356 4.3845409296218755e-05 0.0008326480238918596" pbc="T T T"
Si       1.73331446       1.71834060       7.10765739
Si       5.64289344       1.43480128       0.88872579
Si       0.32631179       3.20380429      -0.11776513
Si      -3.58326719       3.48734360       6.10116648
Si       3.74106895       1.41537517       4.32156940
Si       4.49458601       1.10242745       2.49474132
Si      -1.68144270       3.50676972       2.66832286
Si      -2.43495976       3.81971743       4.49515094
Si       0.10532231       3.73855200       1.79805476
Si      -1.06191868       3.18263247       5.81027503
Si       1.95430394       1.18359289       5.19183751
Si       3.12154493       1.73951242       1.17961724
Si       3.19733486       2.91368699      -0.43850263
Si      -1.13770861       2.00845789       7.42839490
14
Lattice="7.949062099682663 -3.3319515623723097 -0.3380639124118521 -2.1371356150434213 7.357419203876718 -0.7715058309934337 -3.7778744759170837 0.8973549920788368 8.092882579198996" Properties=species:S:1:pos:R:3 unique_starting_index=20 config_type=initial n_minim_iter=20 stress="0.0019382406390415533 -0.0005989910654159293 -0.00036912341308678836 -0.0005989910654159293 -0.0001561730617440808 -0.00013622186696519268 -0.00036912341308678836 -0.00013622186696519268 0.0011672401438634057" pbc="T T T"
Si       1.71518790       1.70595460       7.10171674
Si       5.62627295       1.41504928       0.88177224
Si       0.31886411       3.21686803      -0.11840390
Si      -3.59222094       3.50777336       6.10154059
Si       3.72703978       1.40624848       4.31687239
Si       4.47827984       1.09024092       2.48958987
Si      -1.69298777       3.51657415       2.66644044
Si      -2.44422783       3.83258171       4.49372297
Si       0.09674199       3.74052454       1.80037162
Si      -1.07276873       3.18940037       5.80750484
Si       1.93731001       1.18229809       5.18294122
Si       3.10682073       1.73342226       1.17580800
Si       3.18797793       2.90871786      -0.44124882
Si      -1.15392592       2.01410477       7.42456165
14
Lattice="7.949486878761212 -3.3326206874431623 -0.33728934118636417 -2.1370484485311083 7.359479994254001 -0.7698598600473892 -3.7764468258152086 0.8997516033557539 8.0923715318453" Properties=species:S:1:pos:R:3 unique_starting_index=20 config_type=initial n_minim_iter=21 stress="-0.0027223349257589464 0.0005110311009072898 0.000403854367173625 0.0005110311009072898 -0.00011868975480264545 6.005996486022797e-05 0.000403854367173625 6.005996486022797e-05 -0.001162012518124551" pbc="T T T"
Si       1.71667392       1.70633505       7.10238011
Si       5.62768747       1.41642784       0.88414342
Si       0.31931769       3.22027586      -0.11715778
Si      -3.59169587       3.51018307       6.10107892
Si       3.72813095       1.40886112       4.31773281
Si       4.47931482       1.08959047       2.49093078
Si      -1.69213935       3.51774980       2.66748952
Si      -2.44332322       3.83702044       4.49429155
Si       0.09733473       3.74272821       1.80177433
Si      -1.07266449       3.19468038       5.80874225
Si       1.93865688       1.18388270       5.18344800
Si       3.10865609       1.73193053       1.17648008
Si       3.18655330       2.90978725      -0.43894453
Si      -1.15056170       2.01682366       7.42416686
