2
Lattice="2.959492166222967 -7.010145626687421e-17 2.959492166222967 2.959492166222967 2.959492166222967 4.477528754421768e-17 6.310550453948964e-17 2.959492166222967 2.959492166222967" Properties=species:S:1:pos:R:3:forces:R:3 n_minim_iter=1 energy=-325.8175944486535 stress="0.08090805260593649 -1.3088833511425708e-16 3.2598305940219196e-17 -1.3088833511425708e-16 0.08090805260593638 -1.3404532375561791e-17 3.2598305940219196e-17 -1.3404532375561791e-17 0.08090805260593657" free_energy=-325.8175944486535 pbc="T T T"
Si       0.00000000       0.00000000       0.00000000       0.00000000       0.00000000       0.00000000
Si       1.47974608       1.47974608       1.47974608      -0.00000000      -0.00000000      -0.00000000
