2
Lattice="2.65253644822207 -6.28305997709879e-17 2.65253644822207 2.65253644822207 2.65253644822207 4.01312372258238e-17 5.656026151543073e-17 2.65253644822207 2.65253644822207" Properties=species:S:1:pos:R:3:forces:R:3 n_minim_iter=1 energy=-326.3127513429307 stress="-0.03705298307096756 -1.3583053879900912e-16 2.3459825837518317e-16 -1.3583053879900912e-16 -0.03705298307096764 -2.9960669838946666e-16 2.3459825837518317e-16 -2.9960669838946666e-16 -0.037052983070967487" free_energy=-326.3127513429307 pbc="T T T"
Si       0.00000000       0.00000000       0.00000000      -0.00000000       0.00000000      -0.00000000
Si       1.32626822       1.32626822       1.32626822       0.00000000      -0.00000000       0.00000000
