2
Lattice="2.7242610991002802 -6.452954073598888e-17 2.7242610991002802 2.7242610991002802 2.7242610991002802 4.121638686863536e-17 5.808965237959536e-17 2.7242610991002802 2.7242610991002802" Properties=species:S:1:pos:R:3:forces:R:3 n_minim_iter=1 energy=-326.3500828539189 stress="0.009920084706166902 -1.2741747831031417e-16 2.097055157214582e-16 -1.2741747831031417e-16 0.009920084706166902 -2.039410786314106e-16 2.097055157214582e-16 -2.039410786314106e-16 0.009920084706166975" free_energy=-326.3500828539189 pbc="T T T"
Si       0.00000000       0.00000000       0.00000000      -0.00000000      -0.00000000      -0.00000000
Si       1.36213055       1.36213055       1.36213055       0.00000000       0.00000000       0.00000000
