2
Lattice="2.700774920933172 -6.39732239089169e-17 2.700774920933172 2.700774920933172 2.700774920933172 4.0861055507144e-17 5.758885459413231e-17 2.700774920933172 2.700774920933172" Properties=species:S:1:pos:R:3:forces:R:3 n_minim_iter=1 energy=-326.3417811070042 stress="-0.019305799103131717 -3.71687890340235e-16 2.880374471727213e-16 -3.71687890340235e-16 -0.01930579910313179 -2.8517099117932336e-16 2.880374471727213e-16 -2.8517099117932336e-16 -0.019305799103131557" free_energy=-326.3417811070042 pbc="T T T"
Si       0.00000000       0.00000000       0.00000000      -0.00000000       0.00000000      -0.00000000
Si       1.35038746       1.35038746       1.35038746       0.00000000      -0.00000000       0.00000000
