2
Lattice="2.550413035115347 -6.041160368124272e-17 2.550413035115347 2.550413035115347 2.550413035115347 3.858617309656605e-17 5.438267524473643e-17 2.550413035115347 2.550413035115347" Properties=species:S:1:pos:R:3:forces:R:3 n_minim_iter=1 energy=-325.8042702711342 stress="-0.17432417798872918 -2.565945905316228e-16 1.0880042807330292e-16 -2.565945905316228e-16 -0.1743241779887291 -8.13894416956051e-18 1.0880042807330292e-16 -8.13894416956051e-18 -0.17432417798872957" free_energy=-325.8042702711342 pbc="T T T"
Si       0.00000000       0.00000000       0.00000000       0.00000000       0.00000000      -0.00000000
Si       1.27520652       1.27520652       1.27520652      -0.00000000      -0.00000000       0.00000000
