4
Lattice="4.41108621881727 -0.15771120411866046 6.991925337461492e-13 1.7507906706288254 4.051825080304335 2.343664672283558e-12 -3.080938444723486 -1.947056938094089 2.489847793217224" Properties=species:S:1:pos:R:3:tags:I:1 spacegroup="P 1" unit_cell=conventional n_minim_iter=2 stress="-0.4377262833516194 -0.0007819802415945552 -4.666745947887083e-16 -0.0007819802415945552 -0.43698309884227643 -3.7193584998214304e-16 -4.666745947887083e-16 -3.7193584998214304e-16 -0.43648891173592325" pbc="T T T"
Ti       0.00000000       0.00000000       0.00000000        0
Al       3.08093844       1.94705694       0.00000000        1
Al       2.20554311      -0.07885560       1.24492390        2
Al       0.87539534       2.02591254       1.24492390        3
