4
Lattice="4.419370393419053 -0.1474423960494714 7.042595383059133e-13 1.7636211221656406 4.0549000569475036 2.3467954627044415e-12 -3.0914957577927824 -1.9537288304502654 2.485592800721455" Properties=species:S:1:pos:R:3:tags:I:1 spacegroup="P 1" unit_cell=conventional n_minim_iter=2 stress="-0.4922393299730121 -0.00016577720182589688 -3.8301295993556756e-16 -0.00016577720182589688 -0.4920817773369661 3.076487857269158e-16 -3.8301295993556756e-16 3.076487857269158e-16 -0.4919770113194757" pbc="T T T"
Ti       0.00000000       0.00000000       0.00000000        0
Al       3.09149576       1.95372883       0.00000000        1
Al       2.20968520      -0.07372120       1.24279640        2
Al       0.88181056       2.02745003       1.24279640        3
