4
Lattice="4.616855531474516 -0.14235244413174636 7.397721230508655e-13 1.8529789805616281 4.231085926148736 2.4447299214196115e-12 -3.2349172560185266 -2.044366741009791 2.5867922591162382" Properties=species:S:1:pos:R:3:tags:I:1 spacegroup="P 1" unit_cell=conventional n_minim_iter=1 stress="-0.14119556526668375 -0.0015048662599022283 -1.1954784546161158e-15 -0.0015048662599022283 -0.13976535867896425 -1.018197436568423e-15 -1.1954784546161158e-15 -1.018197436568423e-15 -0.13881433017098968" pbc="T T T"
Ti       0.00000000       0.00000000       0.00000000        0
Al       3.23491726       2.04436674       0.00000000        1
Al       2.30842777      -0.07117622       1.29339613        2
Al       0.92648949       2.11554296       1.29339613        3
