1
Lattice="2.8695622589623033 1.42967584573339e-17 7.914724286448823e-51 1.4347811294811517 2.4851138140024145 -4.044780115043569e-50 -1.3399984739690625e-49 8.133088566936149e-49 2.6764773396494683" Properties=species:S:1:pos:R:3:forces:R:3 cutoff=-1.0 nneightol=1.2 n_minim_iter=1 energy=-162.6336426764605 stress="0.0928915871180124 2.8564679649239005e-17 -8.532306908214248e-18 2.8564679649239005e-17 0.0928915871180122 -3.9415548217294084e-19 -8.532306908214248e-18 -3.9415548217294084e-19 0.09296049641643112" free_energy=-162.6336426764605 pbc="T T T"
Si       0.00000000       0.00000000       0.00000000       0.00000000      -0.00000000       0.00000000
