4
Lattice="1.7605386483820262 -3.049342387686308 1.65064299115904e-17 1.7605386483820258 3.049342387686308 -1.6506429911590495e-17 1.6267655724491487e-31 3.7902531246656904e-17 5.8624836653145085" Properties=species:S:1:pos:R:3:forces:R:3 cutoff=-1.0 nneightol=1.2 n_minim_iter=3 energy=-651.3113880759879 stress="-0.2154493965701518 -4.3596437614527003e-16 -5.902460743037562e-17 -4.3596437614527003e-16 -0.2154493965701543 -6.85537086248233e-17 -5.902460743037562e-17 -6.85537086248233e-17 -0.21550385308546524" free_energy=-651.3113880759879 pbc="T T T"
Si       1.76053865       1.01644746       0.38582950      -0.00000000       0.00000000      -0.00133723
Si       1.76053865      -1.01644746       3.31707133       0.00000000      -0.00000000      -0.00133723
Si       1.76053865       1.01644746       2.54541233      -0.00000000       0.00000000       0.00133723
Si       1.76053865      -1.01644746      -0.38582950       0.00000000      -0.00000000       0.00133723
