4
Lattice="1.7403660251642807 -3.014402379351232 -2.2446802838030398e-17 1.7403660251642807 3.014402379351232 2.2446802838031094e-17 9.130282621307115e-31 1.056900102217877e-16 5.805653874838379" Properties=species:S:1:pos:R:3:forces:R:3 cutoff=-1.0 nneightol=1.2 n_minim_iter=3 energy=-650.8203431624624 stress="-0.26897309281329296 2.543125527514075e-16 1.73518723949654e-16 2.543125527514075e-16 -0.2689730928132929 -1.404515709666057e-16 1.73518723949654e-16 -1.404515709666057e-16 -0.2692987051262645" free_energy=-650.8203431624624 pbc="T T T"
Si       1.74036603       1.00480079       0.38582735       0.00000000       0.00000000       0.00574853
Si       1.74036603      -1.00480079       3.28865429      -0.00000000       0.00000000       0.00574853
Si       1.74036603       1.00480079       2.51699959       0.00000000      -0.00000000      -0.00574853
Si       1.74036603      -1.00480079      -0.38582735      -0.00000000      -0.00000000      -0.00574853
