2
Lattice="2.5207170049128127 -1.142760991786943e-16 2.5207170049128127 2.5207170049128127 2.5207170049128127 4.69402066954991e-17 -1.9910565340948022e-17 2.5207170049128127 2.5207170049128127" Properties=species:S:1:pos:R:3:forces:R:3 n_minim_iter=1 energy=-325.5804173874268 stress="-0.21898870987174465 2.5083265699692817e-17 1.8107210603714185e-18 2.5083265699692817e-17 -0.2189887098717446 -2.2527931518226182e-17 1.8107210603714185e-18 -2.2527931518226182e-17 -0.21898870987174468" free_energy=-325.5804173874268 pbc="T T T"
Si       0.00000000       0.00000000       0.00000000      -0.00000000      -0.00000000      -0.00000000
Si       1.26035850       1.26035850       1.26035850       0.00000000       0.00000000       0.00000000
