2
Lattice="2.8289999999999993 0.0 2.8289999999999993 2.8289999999999993 2.8289999999999993 0.0 0.0 2.8289999999999993 2.8289999999999993" Properties=species:S:1:pos:R:3:forces:R:3 n_minim_iter=1 energy=-326.2381070998947 stress="0.04701849936828873 -1.4212538994215025e-15 -1.5343374356198828e-17 -1.4212538994215025e-15 0.04701849936828873 2.1836160282219533e-17 -1.5343374356198828e-17 2.1836160282219533e-17 0.04701849936828865" free_energy=-326.2381070998947 pbc="T T T"
Si       0.00000000       0.00000000       0.00000000      -0.00000000       0.00000000      -0.00000000
Si       1.41450000       1.41450000       1.41450000      -0.00000000      -0.00000000       0.00000000
2
Lattice="2.7442490571771674 -1.2440987100805587e-16 2.7442490571771656 2.7442490571771674 2.7442490571771656 5.110276866334709e-17 -2.1676193741014914e-17 2.7442490571771656 2.7442490571771656" Properties=species:S:1:pos:R:3:forces:R:3 n_minim_iter=2 energy=-326.35273122400855 stress="0.00804406892214945 2.517305691535577e-16 4.3201833821097224e-17 2.517305691535577e-16 0.008044068922149213 4.991726441231548e-16 4.3201833821097224e-17 4.991726441231548e-16 0.008044068922149285" free_energy=-326.35273122400855 pbc="T T T"
Si       0.00000000       0.00000000       0.00000000       0.00000000       0.00000000       0.00000000
Si       1.37212453       1.37212453       1.37212453      -0.00000000      -0.00000000      -0.00000000
