2
Lattice="2.9363121347320904 -1.3311700443733626e-16 2.9363121347320904 2.9363121347320904 2.9363121347320904 5.4679322691994884e-17 -2.3193255929189095e-17 2.9363121347320904 2.9363121347320904" Properties=species:S:1:pos:R:3:forces:R:3 n_minim_iter=1 energy=-325.97448745009945 stress="0.07292943765823384 6.655818921577717e-17 -1.0297730999084632e-17 6.655818921577717e-17 0.07292943765823388 -2.2033779174226595e-18 -1.0297730999084632e-17 -2.2033779174226595e-18 0.07292943765823376" free_energy=-325.97448745009945 pbc="T T T"
Si       0.00000000       0.00000000       0.00000000       0.00000000      -0.00000000      -0.00000000
Si       1.46815607       1.46815607       1.46815607      -0.00000000       0.00000000       0.00000000
