2
Lattice="2.8781641347883022 0.0 0.0 0.0 2.8781641347883022 0.0 0.0 0.0 4.150266728642047" Properties=species:S:1:pos:R:3:tags:I:1 spacegroup="P 1" unit_cell=conventional n_minim_iter=1 energy=-1704.1384722596365 free_energy=-1704.1384722596365 pbc="T T T"
Ti       1.43908207       1.43908207       2.07513337        0
Al       0.00000000       0.00000000       0.00000001        1
