2
Lattice="2.5419399328108367 0.0 0.0 0.0 2.5419399328108367 0.0 0.0 0.0 3.66543679765761" Properties=species:S:1:pos:R:3:tags:I:1 spacegroup="P 1" unit_cell=conventional n_minim_iter=1 energy=-1703.3850228300837 free_energy=-1703.3850228300837 pbc="T T T"
Ti       1.27096997       1.27096997       1.83271840        0
Al       0.00000000       0.00000000       0.00000000        1
