2
Lattice="2.6718509018676326 0.0 0.0 0.0 2.6718509018676326 0.0 0.0 0.0 3.852766340835914" Properties=species:S:1:pos:R:3:tags:I:1 spacegroup="P 1" unit_cell=conventional n_minim_iter=1 energy=-1704.1465447726434 free_energy=-1704.1465447726434 pbc="T T T"
Ti       1.33592545       1.33592545       1.92638318        0
Al       0.00000000       0.00000000       0.00000000        1
