2
Lattice="2.646878871686832 0.0 0.0 0.0 2.646878871686832 0.0 0.0 0.0 3.816757072026911" Properties=species:S:1:pos:R:3:tags:I:1 spacegroup="P 1" unit_cell=conventional n_minim_iter=1 energy=-1704.0546110991697 free_energy=-1704.0546110991697 pbc="T T T"
Ti       1.32343944       1.32343944       1.90837854        0
Al       0.00000000       0.00000000       0.00000000        1
