2
Lattice="2.696364664764726 0.0 0.0 0.0 2.696364664764726 0.0 0.0 0.0 3.8881147955386575" Properties=species:S:1:pos:R:3:tags:I:1 spacegroup="P 1" unit_cell=conventional n_minim_iter=1 energy=-1704.2140927752146 free_energy=-1704.2140927752146 pbc="T T T"
Ti       1.34818233       1.34818233       1.94405740        0
Al       0.00000000       0.00000000       0.00000000        1
