2
Lattice="2.7440978160480345 0.0 0.0 0.0 2.7440978160480345 0.0 0.0 0.0 3.9569452375658716" Properties=species:S:1:pos:R:3:tags:I:1 spacegroup="P 1" unit_cell=conventional n_minim_iter=1 stress="-0.022010094831312995 -1.7191752948822058e-17 6.314673599777814e-18 -1.7191752948822058e-17 -0.022010094831313116 6.054863807109976e-18 6.314673599777814e-18 6.054863807109976e-18 -0.022985231683532326" pbc="T T T"
Ti       1.37204891       1.37204891       1.97847262        0
Al       0.00000000       0.00000000       0.00000000        1
