2
Lattice="2.94075243262014 0.0 0.0 0.0 2.94075243262014 0.0 0.0 0.0 4.240518054810049" Properties=species:S:1:pos:R:3:tags:I:1 spacegroup="P 1" unit_cell=conventional n_minim_iter=1 stress="0.08979853613566174 -1.8572595305141053e-17 -2.3000767236581486e-18 -1.8572595305141053e-17 0.08979853613566195 -6.087070529488229e-18 -2.3000767236581486e-18 -6.087070529488229e-18 0.09411677982791343" pbc="T T T"
Ti       1.47037622       1.47037622       2.12025903        0
Al       0.00000000       0.00000000       0.00000001        1
