2
Lattice="2.514307962455712 0.0 0.0 0.0 2.514307962455712 0.0 0.0 0.0 3.625591937586719" Properties=species:S:1:pos:R:3:tags:I:1 spacegroup="P 1" unit_cell=conventional n_minim_iter=1 stress="-0.3957259107428305 -1.483441632741945e-17 8.855238317898345e-18 -1.483441632741945e-17 -0.3957259107428304 -2.141908071765155e-17 8.855238317898345e-18 -2.141908071765155e-17 -0.39283968618786935" pbc="T T T"
Ti       1.25715398       1.25715398       1.81279597        0
Al       0.00000000       0.00000000       0.00000000        1
