24
Lattice="8.825779130168385 0.002553685963445479 -0.005099329859397 0.0011943035867064279 6.2822272164142 0.012288242887680267 -0.002495314225608473 0.012294255061954536 6.514532076654235" Properties=species:S:1:pos:R:3 Minim_Constant_Volume=F n_minim_iter=200 stress="-0.039776166051388305 -1.7455834449283097e-05 -4.860053542310784e-06 -1.7455834449283097e-05 -0.03975978516444849 -3.7401732566443098e-06 -4.860053542310784e-06 -3.7401732566443098e-06 -0.03976633888629579" pbc="T T T"
Ti       0.08549630       0.08859005      -0.02546702
Ti       1.59788698       1.57690073       1.64443518
V       -0.00263961      -0.00142291       3.26947138
Ti       1.49419111       1.69254871       4.87643772
Ti      -0.06501306       3.07805295       0.04636083
Ti       1.49853508       4.69378546       1.58778025
Ti      -0.02781379       3.18495360       3.18453522
Al       1.41258849       4.68649899       4.89474166
Ti       2.85443739       0.01662847      -0.03883887
Ti       4.47995890       1.52071518       1.70670075
Ti       2.91200637      -0.05608398       3.30568755
Ti       4.41037625       1.65673089       4.81353421
Ti       2.99554923       3.13734824       0.00446852
Ti       4.41172343       4.76287082       1.57920085
Ti       3.00364440       3.23615338       3.25980695
Ti       4.43899231       4.62226395       4.96011062
Ti       5.88749991       0.07393055      -0.04492689
Ti       7.25402914       1.48233473       1.71378196
Ti       5.84156491      -0.11336332       3.32458451
Ti       7.33332497       1.65492205       4.82046150
Al       5.87495634       3.06550202       0.05001865
Ti       7.32668916       4.77025071       1.55094026
Al       5.88668308       3.22439766       3.22515387
Ti       7.34141489       4.62172115       4.98140988
