24
Lattice="10.062869811394199 -0.137901300331272 0.008984174052009653 -0.09201904392280019 7.000512864368384 0.013427729300074704 0.005714499859103279 0.014013896983055135 6.552879713205654" Properties=species:S:1:pos:R:3 Minim_Constant_Volume=F n_minim_iter=38 stress="0.07044277988161028 -3.9777318437757895e-06 1.5200501369071185e-06 -3.9777318437757895e-06 0.07043141307997952 3.6474642578539334e-06 1.5200501369071185e-06 3.6474642578539334e-06 0.07044271207517024" pbc="T T T"
Ti       0.21353727       0.11167709       0.00189989
Ti       1.50907025       1.99666610       1.60766417
V        0.30047961       0.01930491       3.31421521
Ti       1.54824995       2.04193584       4.97856272
Ti      -0.21946937       3.51747254       0.05097112
Ti       1.62616857       5.09287205       1.66602752
Ti      -0.24672619       3.48078916       3.23319731
Al       1.64993667       5.09566825       4.91355560
Ti       3.09195277       0.18918675       0.07797534
Ti       5.26361621       1.45286162       1.67726118
Ti       3.12348254       0.20088545       3.18398491
Ti       5.22601702       1.45106587       4.88366182
Ti       3.49441309       3.30795246       0.10374255
Ti       4.72503255       5.33173782       1.70044250
Ti       3.45431677       3.31053148       3.19755686
Ti       4.70906794       5.32833604       4.87108996
Ti       6.79129736      -0.44352450      -0.04048130
Ti       8.16547881       1.51316390       1.51599391
Ti       6.84231925      -0.38489609       3.31701702
Ti       8.25108177       1.54616384       5.04279197
Al       6.59443506       3.57993677       0.01248711
Ti       8.53429506       5.24041869       1.63576494
Al       6.65132637       3.56862682       3.28257713
Ti       8.55257789       5.20289494       4.95864927
