2
Lattice="2.6727110539109846 -8.52956379283835e-16 4.723171473244776e-41 -1.3363555269554919 2.3146356696623935 2.3088768717545136e-25 -1.195444491338517e-40 -4.263358516831586e-25 4.27399218050054" Properties=species:S:1:pos:R:3 n_minim_iter=1 energy=-3186.838554658599 free_energy=-3186.838554658599 pbc="T T T"
Ti       0.00000000       0.00000000       0.00000000
Ti       0.00000000       1.54309045       2.13699609
2
Lattice="2.6610001561699717 -8.489789221080498e-16 4.235171390130341e-41 -1.3305000780849854 2.3044937347175543 2.2987601698752957e-25 -1.3008047294554038e-40 -4.300966646989774e-25 4.311694112811596" Properties=species:S:1:pos:R:3 n_minim_iter=2 stress="-0.1639895435101734 -5.5916588082490645e-16 9.187458323675897e-18 -5.5916588082490645e-16 -0.16398954351017403 3.9433514302559406e-16 9.187458323675897e-18 3.9433514302559406e-16 -0.1697408497816042" pbc="T T T"
Ti       0.00000000      -0.00000000      -0.00000000
Ti       0.00000000       1.53632916       2.15584706
