2
Lattice="2.973257495462618 -9.455725527589679e-16 5.066329748069075e-41 -1.486628747731308 2.5749165230631226 2.5685101481505125e-25 -1.9551669820299454e-40 -4.697744620465249e-25 4.709461729429782" Properties=species:S:1:pos:R:3 n_minim_iter=1 stress="0.05682672693050137 -9.472265848152406e-18 -7.580950579677534e-19 -9.472265848152406e-18 0.056826726930501295 -1.3825293274184109e-18 -7.580950579677534e-19 -1.3825293274184109e-18 0.060475262959500606" pbc="T T T"
Ti       0.00000000       0.00000000       0.00000000
Ti       0.00000000       1.71661102       2.35473086
