2
Lattice="2.995120468092552 -9.525255418196648e-16 5.10358351057881e-41 -1.4975602340462753 2.59385041276289 2.5873969304606283e-25 -2.6571896617505077e-40 -4.732288100879031e-25 4.7440913681507375" Properties=species:S:1:pos:R:3 n_minim_iter=1 stress="0.07234274385734427 -1.6599018248190897e-17 -2.6441072423521563e-19 -1.6599018248190897e-17 0.07234274385734432 -7.663396948261419e-19 -2.6441072423521563e-19 -7.663396948261419e-19 0.06759777259031871" pbc="T T T"
Ti       0.00000000       0.00000000       0.00000000
Ti       0.00000000       1.72923361       2.37204568
