2
Lattice="2.8103228638338615 -8.937551384256445e-16 4.788694671903899e-41 -1.4051614319169299 2.43381099291636 2.4277556876094113e-25 -2.4932422383384628e-40 -4.440308024277542e-25 4.451383035194464" Properties=species:S:1:pos:R:3 n_minim_iter=1 stress="-0.019179935192339254 6.460795363118471e-17 5.970727956248106e-17 6.460795363118471e-17 -0.01917993519233931 -8.09866985494607e-18 5.970727956248106e-17 -8.09866985494607e-18 -0.030051731220926147" pbc="T T T"
Ti       0.00000000       0.00000000       0.00000000
Ti       0.00000000       1.62254066       2.22569152
