4
Lattice="1.9390188856080048 -3.3584792267086483 -3.047694156987889e-18 1.939018885608004 3.3584792267086483 3.0476941569878886e-18 1.8995294786256775e-33 -5.784889296592025e-18 6.374796659588413" Properties=species:S:1:pos:R:3:forces:R:3 cutoff=-1.0 nneightol=1.2 n_minim_iter=1 energy=-652.636287682023 stress="0.011472988864604529 -3.008608324960848e-16 -5.85205145054993e-17 -3.008608324960848e-16 0.011472988864604431 -6.261134985942983e-17 -5.85205145054993e-17 -6.261134985942983e-17 0.01194227173529134" free_energy=-652.636287682023 pbc="T T T"
Si       1.93901889       1.11949308       0.39927727      -0.00000000       0.00000000       0.03221534
Si       1.93901889      -1.11949308       3.58667560       0.00000000       0.00000000       0.03221534
Si       1.93901889       1.11949308       2.78812106      -0.00000000      -0.00000000      -0.03221534
Si       1.93901889      -1.11949308      -0.39927727       0.00000000      -0.00000000      -0.03221534
4
Lattice="1.9393786836321814 -3.3591024151669844 -3.0479040713001885e-18 1.9393786836321805 3.3591024151669844 3.0479040713001893e-18 1.573074162886798e-33 -5.783418026227231e-18 6.37243154492425" Properties=species:S:1:pos:R:3:forces:R:3 cutoff=-1.0 nneightol=1.2 n_minim_iter=2 energy=-652.636330219991 stress="0.011791267751806996 -1.475921065075133e-16 2.5886497779512397e-17 -1.475921065075133e-16 0.011791267751806674 -1.559055552821338e-16 2.5886497779512397e-17 -1.559055552821338e-16 0.011233822236500919" free_energy=-652.636330219991 pbc="T T T"
Si       1.93937868       1.11970081       0.39958918      -0.00000000       0.00000000       0.01545507
Si       1.93937868      -1.11970081       3.58580496       0.00000000       0.00000000       0.01545507
Si       1.93937868       1.11970081       2.78662659      -0.00000000      -0.00000000      -0.01545507
Si       1.93937868      -1.11970081      -0.39958918       0.00000000      -0.00000000      -0.01545507
4
Lattice="1.938780776060697 -3.3580668088749426 -3.029823725176107e-18 1.938780776060696 3.3580668088749426 3.029823725176107e-18 1.6084783568809094e-33 -5.81951598598826e-18 6.376362585117776" Properties=species:S:1:pos:R:3:forces:R:3 cutoff=-1.0 nneightol=1.2 n_minim_iter=3 energy=-652.6363795790296 stress="0.011627065485776376 2.2706477924232816e-17 3.69644516304762e-17 2.2706477924232816e-17 0.01162706548577586 -3.611050182378539e-17 3.69644516304762e-17 -3.611050182378539e-17 0.011384196082844921" free_energy=-652.6363795790296 pbc="T T T"
Si       1.93878078       1.11935560       0.40097250      -0.00000000       0.00000000      -0.00277073
Si       1.93878078      -1.11935560       3.58915380      -0.00000000      -0.00000000      -0.00277073
Si       1.93878078       1.11935560       2.78720879       0.00000000       0.00000000       0.00277073
Si       1.93878078      -1.11935560      -0.40097250       0.00000000      -0.00000000       0.00277073
