4
Lattice="2.025199166364732 -3.5077478515898517 -3.696395729545301e-18 2.0251991663647324 3.5077478515898517 3.6963957295452974e-18 4.316417430762647e-33 -7.05925757142945e-18 6.698983926985295" Properties=species:S:1:pos:R:3:forces:R:3 cutoff=-1.0 nneightol=1.2 n_minim_iter=1 energy=-652.1822787498052 stress="0.057780461294533465 -5.903684260300532e-17 3.853785889867896e-17 -5.903684260300532e-17 0.057780461294533465 -1.5738545427332853e-17 3.853785889867896e-17 -1.5738545427332853e-17 0.057288705355706446" free_energy=-652.1822787498052 pbc="T T T"
Si       2.02519917       1.16924928       0.43023856      -0.00000000       0.00000000       0.03120874
Si       2.02519917      -1.16924928       3.77973053      -0.00000000       0.00000000       0.03120874
Si       2.02519917       1.16924928       2.91925340       0.00000000      -0.00000000      -0.03120874
Si       2.02519917      -1.16924928      -0.43023856       0.00000000      -0.00000000      -0.03120874
4
Lattice="2.023834353022604 -3.5053839255384385 -2.3413941494708417e-18 2.0238343530226044 3.5053839255384385 2.3413941494708386e-18 4.57065843221717e-33 -9.651759829533572e-18 6.708022162219432" Properties=species:S:1:pos:R:3:forces:R:3 cutoff=-1.0 nneightol=1.2 n_minim_iter=2 energy=-652.1823943060631 stress="0.05726879935551343 -1.3623886754539688e-17 -9.881640070410947e-21 -1.3623886754539688e-17 0.057268799355513336 -3.3765807826100814e-17 -9.881640070410947e-21 -3.3765807826100814e-17 0.057959356698226557" free_energy=-652.1823943060631 pbc="T T T"
Si       2.02383435       1.16846131       0.43216940      -0.00000000       0.00000000       0.01628145
Si       2.02383435      -1.16846131       3.78618048      -0.00000000       0.00000000       0.01628145
Si       2.02383435       1.16846131       2.92184168       0.00000000      -0.00000000      -0.01628145
Si       2.02383435      -1.16846131      -0.43216940       0.00000000      -0.00000000      -0.01628145
4
Lattice="2.0241384794161297 -3.5059106879039494 -2.3590536679391887e-18 2.02413847941613 3.5059106879039494 2.359053667939189e-18 4.7833213172237815e-33 -9.618194888437693e-18 6.70600655573071" Properties=species:S:1:pos:R:3:forces:R:3 cutoff=-1.0 nneightol=1.2 n_minim_iter=3 energy=-652.1824286097818 stress="0.057425906455493544 8.174332052723814e-17 -2.691911330810408e-17 8.174332052723814e-17 0.05742590645549357 -2.2757266536278453e-17 -2.691911330810408e-17 -2.2757266536278453e-17 0.05758072542181023" free_energy=-652.1824286097818 pbc="T T T"
Si       2.02413848       1.16863690       0.43259604       0.00000000       0.00000000       0.00365396
Si       2.02413848      -1.16863690       3.78559932      -0.00000000       0.00000000       0.00365396
Si       2.02413848       1.16863690       2.92040724       0.00000000      -0.00000000      -0.00365396
Si       2.02413848      -1.16863690      -0.43259604      -0.00000000      -0.00000000      -0.00365396
