4
Lattice="1.857443042898035 -3.2171857224647344 -2.9294831342223476e-18 1.8574430428980342 3.2171857224647344 2.9294831342223476e-18 7.15461035262214e-34 -5.5543458360336905e-18 6.099834442659315" Properties=species:S:1:pos:R:3:forces:R:3 cutoff=-1.0 nneightol=1.2 n_minim_iter=1 energy=-652.3921578258164 stress="-0.07176019120138283 -4.087166026361907e-17 -3.112623986692155e-17 -4.087166026361907e-17 -0.07176019120138288 -1.623877620636092e-16 -3.112623986692155e-17 -1.623877620636092e-16 -0.07062441795192141" free_energy=-652.3921578258164 pbc="T T T"
Si       1.85744304       1.07239524       0.38112809       0.00000000       0.00000000       0.03515289
Si       1.85744304      -1.07239524       3.43104531       0.00000000       0.00000000       0.03515289
Si       1.85744304       1.07239524       2.66878913      -0.00000000      -0.00000000      -0.03515289
Si       1.85744304      -1.07239524      -0.38112809      -0.00000000      -0.00000000      -0.03515289
4
Lattice="1.857860921727613 -3.2179095098289716 -2.931568217990463e-18 1.857860921727612 3.2179095098289716 2.9315682179904627e-18 7.066102898780036e-34 -5.549144889424401e-18 6.097090744267144" Properties=species:S:1:pos:R:3:forces:R:3 cutoff=-1.0 nneightol=1.2 n_minim_iter=2 energy=-652.3921966700773 stress="-0.07117967140863411 -9.990850286662439e-17 6.729826864846346e-17 -9.990850286662439e-17 -0.07117967140863311 3.339418399739032e-17 6.729826864846346e-17 3.339418399739032e-17 -0.071669018860339" free_energy=-652.3921966700773 pbc="T T T"
Si       1.85786092       1.07263650       0.38124303      -0.00000000      -0.00000000       0.01410205
Si       1.85786092      -1.07263650       3.42978841      -0.00000000       0.00000000       0.01410205
Si       1.85786092       1.07263650       2.66730234       0.00000000      -0.00000000      -0.01410205
Si       1.85786092      -1.07263650      -0.38124303       0.00000000       0.00000000      -0.01410205
4
Lattice="1.857234900983335 -3.21682521009329 -2.9272717198324346e-18 1.8572349009833342 3.21682521009329 2.927271719832434e-18 7.221119929099184e-34 -5.5591616510650476e-18 6.101201746670143" Properties=species:S:1:pos:R:3:forces:R:3 cutoff=-1.0 nneightol=1.2 n_minim_iter=3 energy=-652.3922355008209 stress="-0.07128563595675386 -3.95092715881651e-16 -1.1232314330193228e-16 -3.95092715881651e-16 -0.07128563595675257 -1.4072588347673565e-16 -1.1232314330193228e-16 -1.4072588347673565e-16 -0.07129229878846313" free_energy=-652.3922355008209 pbc="T T T"
Si       1.85723490       1.07227507       0.38245247      -0.00000000      -0.00000000      -0.00012102
Si       1.85723490      -1.07227507       3.43305334       0.00000000       0.00000000      -0.00012102
Si       1.85723490       1.07227507       2.66814841      -0.00000000      -0.00000000       0.00012102
Si       1.85723490      -1.07227507      -0.38245247       0.00000000       0.00000000       0.00012102
