4
Lattice="1.7437189239902566 -3.0202097704704602 -1.0044167318428487e-17 1.7437189239902566 3.0202097704704602 1.0044167318428464e-17 1.288164587374512e-32 8.663534410114778e-18 5.767861863936267" Properties=species:S:1:pos:R:3:forces:R:3 cutoff=-1.0 nneightol=1.2 n_minim_iter=3 energy=-650.3091527314461 stress="-0.29329360522461295 -4.541295584846563e-16 -2.1509683367837117e-16 -4.541295584846563e-16 -0.293293605224616 -4.378123317842605e-16 -2.1509683367837117e-16 -4.378123317842605e-16 -0.29343790830399924" free_energy=-650.3091527314461 pbc="T T T"
Si       1.74371892       1.00673659       0.37868209      -0.00000000       0.00000000      -0.00190397
Si       1.74371892      -1.00673659       3.26261302       0.00000000      -0.00000000      -0.00190397
Si       1.74371892       1.00673659       2.50524884      -0.00000000       0.00000000       0.00190397
Si       1.74371892      -1.00673659      -0.37868209      -0.00000000      -0.00000000       0.00190397
