4
Lattice="1.7638430838359866 -3.055065837782899 -2.909942838591222e-18 1.7638430838359866 3.055065837782899 2.9099428385912164e-18 3.817180983380914e-33 -4.905926632053214e-18 5.824898452047654" Properties=species:S:1:pos:R:3:forces:R:3 cutoff=-1.0 nneightol=1.2 n_minim_iter=3 energy=-651.3194314179883 stress="-0.20535292504707503 -5.267902878422013e-16 -8.750186000176936e-17 -5.267902878422013e-16 -0.20535292504707808 -1.217071332870155e-16 -8.750186000176936e-17 -1.217071332870155e-16 -0.20537356493261108" free_energy=-651.3194314179883 pbc="T T T"
Si       1.76384308       1.01835528       0.37589344      -0.00000000       0.00000000      -0.00084359
Si       1.76384308      -1.01835528       3.28834267       0.00000000      -0.00000000      -0.00084359
Si       1.76384308       1.01835528       2.53655578      -0.00000000       0.00000000       0.00084359
Si       1.76384308      -1.01835528      -0.37589344       0.00000000      -0.00000000       0.00084359
