4
Lattice="1.9977738398939784 -3.460245792728341 -3.6305453234880925e-18 1.9977738398939784 3.460245792728341 3.630545323488091e-18 5.549380445097987e-33 -5.116991386099534e-18 6.591229410442379" Properties=species:S:1:pos:R:3:forces:R:3 cutoff=-1.0 nneightol=1.2 n_minim_iter=4 energy=-652.478375971293 stress="0.038760093694899626 -6.811943377269844e-18 -7.179133494145525e-18 -6.811943377269844e-18 0.03876009369489906 1.406017838021517e-17 -7.179133494145525e-18 1.406017838021517e-17 0.038852057597668056" free_energy=-652.478375971293 pbc="T T T"
Si       1.99777384       1.15341526       0.41953332       0.00000000       0.00000000       0.00102525
Si       1.99777384      -1.15341526       3.71514802       0.00000000      -0.00000000       0.00102525
Si       1.99777384       1.15341526       2.87608139      -0.00000000       0.00000000      -0.00102525
Si       1.99777384      -1.15341526      -0.41953332      -0.00000000      -0.00000000      -0.00102525
