4
Lattice="1.9069630985211912 -3.3029569747976777 -2.9973097921282905e-18 1.9069630985211912 3.3029569747976777 2.997309792128289e-18 1.8835662913204892e-33 -5.689253724917754e-18 6.269408761637428" Properties=species:S:1:pos:R:3:forces:R:3 cutoff=-1.0 nneightol=1.2 n_minim_iter=1 energy=-652.6481569449004 stress="-0.00032497569638691165 1.7703957006550274e-16 -7.131703116958756e-17 1.7703957006550274e-16 -0.00032497569638723377 -4.501761206733932e-17 -7.131703116958756e-17 -4.501761206733932e-17 0.00019293819605555187" free_energy=-652.6481569449004 pbc="T T T"
Si       1.90696310       1.10098566       0.39267644       0.00000000       0.00000000       0.00820307
Si       1.90696310      -1.10098566       3.52738082      -0.00000000      -0.00000000       0.00820307
Si       1.90696310       1.10098566       2.74202795       0.00000000       0.00000000      -0.00820307
Si       1.90696310      -1.10098566      -0.39267644      -0.00000000      -0.00000000      -0.00820307
