4
Lattice="1.8398765498987835 -3.1867596640792284 -2.899912439535781e-18 1.8398765498987828 3.1867596640792284 2.8999124395357806e-18 7.153628878351328e-34 -5.507203829454076e-18 6.044177833378235" Properties=species:S:1:pos:R:3:forces:R:3 cutoff=-1.0 nneightol=1.2 n_minim_iter=3 energy=-652.3922355008209 stress="-0.07128563595675386 -3.95092715881651e-16 -1.1232314330193228e-16 -3.95092715881651e-16 -0.07128563595675257 -1.4072588347673565e-16 -1.1232314330193228e-16 -1.4072588347673565e-16 -0.07129229878846313" free_energy=-652.3922355008209 pbc="T T T"
Si       1.83987655       1.06225322       0.37887794      -0.00000000      -0.00000000      -0.00012102
Si       1.83987655      -1.06225322       3.40096685       0.00000000       0.00000000      -0.00012102
Si       1.83987655       1.06225322       2.64321098      -0.00000000      -0.00000000       0.00012102
Si       1.83987655      -1.06225322      -0.37887794       0.00000000       0.00000000       0.00012102
