4
Lattice="1.807789464818762 -3.131183202453845 7.212548052284393e-19 1.8077894648187616 3.131183202453845 -7.212548052285933e-19 2.6917127094178216e-31 -2.235000099326903e-18 5.93860074855184" Properties=species:S:1:pos:R:3:forces:R:3 cutoff=-1.0 nneightol=1.2 n_minim_iter=2 energy=-652.030288556233 stress="-0.12045091074239396 -1.9981700573324878e-16 -3.762552998444752e-17 -1.9981700573324878e-16 -0.12045091074239354 9.116467277031658e-17 -3.762552998444752e-17 9.116467277031658e-17 -0.12325648189421384" free_energy=-652.030288556233 pbc="T T T"
Si       1.80778946       1.04372773       0.37658549      -0.00000000      -0.00000000       0.00943066
Si       1.80778946      -1.04372773       3.34588587       0.00000000       0.00000000       0.00943066
Si       1.80778946       1.04372773       2.59271488      -0.00000000      -0.00000000      -0.00943066
Si       1.80778946      -1.04372773      -0.37658549       0.00000000       0.00000000      -0.00943066
