4
Lattice="1.7397399428770874 -3.0133179730200914 -1.0848566557425984e-16 1.7397399428770877 3.0133179730200914 1.0848566557425958e-16 3.4236421568181973e-31 6.281407170268684e-17 5.829327786361203" Properties=species:S:1:pos:R:3:forces:R:3 cutoff=-1.0 nneightol=1.2 n_minim_iter=4 energy=-650.9523371932889 stress="-0.23789998479375674 5.994510171997463e-16 6.795818644607937e-17 5.994510171997463e-16 -0.23789998479375454 -3.008573337031274e-16 6.795818644607937e-17 -3.008573337031274e-16 -0.23789961740367357" free_energy=-650.9523371932889 pbc="T T T"
Si       1.73973994       1.00443932       0.38680303       0.00000000      -0.00000000       0.00018087
Si       1.73973994      -1.00443932       3.30146693      -0.00000000       0.00000000       0.00018087
Si       1.73973994       1.00443932       2.52786086       0.00000000      -0.00000000      -0.00018087
Si       1.73973994      -1.00443932      -0.38680303      -0.00000000       0.00000000      -0.00018087
