2
Lattice="3.2924927281524994 0.0 0.0 0.0 3.2924927281524994 0.0 0.0 0.0 3.2924927281524994" Properties=species:S:1:pos:R:3 Minim_Constant_Volume=F n_minim_iter=1 stress="0.051928035659028975 4.6706529849822284e-18 3.461052668631771e-18 4.6706529849822284e-18 0.05192803565902896 1.844121492471094e-17 3.461052668631771e-18 1.844121492471094e-17 0.05192803565902897" pbc="T T T"
Ti       0.00000000       0.00000000       0.00000000
Ti       1.64624636       1.64624636       1.64624636
