2
Lattice="3.3872923388307434 0.0 0.0 0.0 3.3872923388307434 0.0 0.0 0.0 3.3872923388307434" Properties=species:S:1:pos:R:3 Minim_Constant_Volume=F n_minim_iter=1 stress="0.051135559785045456 5.037450644709366e-17 2.3339105675093273e-17 5.037450644709366e-17 0.05113555978504546 3.8385806301285105e-18 2.3339105675093273e-17 3.8385806301285105e-18 0.051135559785045435" pbc="T T T"
Ti       0.00000000       0.00000000       0.00000000
Ti       1.69364617       1.69364617       1.69364617
