2
Lattice="3.165730814945473 0.0 0.0 0.0 3.165730814945473 0.0 0.0 0.0 3.165730814945473" Properties=species:S:1:pos:R:3 Minim_Constant_Volume=F n_minim_iter=1 stress="-7.720901461091975e-05 5.741132948259071e-19 2.755743815164354e-17 5.741132948259071e-19 -7.720901461083576e-05 -1.7168721388127125e-17 2.755743815164354e-17 -1.7168721388127125e-17 -7.720901461079377e-05" pbc="T T T"
Ti       0.00000000       0.00000000       0.00000000
Ti       1.58286541       1.58286541       1.58286541
