2
Lattice="3.340565096800739 0.0 0.0 0.0 3.340565096800739 0.0 0.0 3.5471584031930167e-34 3.340565096800739" Properties=species:S:1:pos:R:3 Minim_Constant_Volume=F n_minim_iter=1 stress="0.057056362526264594 5.761040429004999e-17 7.002779850515723e-17 5.761040429004999e-17 0.05705636252626464 4.5324121512497065e-17 7.002779850515723e-17 4.5324121512497065e-17 0.05705636252626465" pbc="T T T"
Ti       0.00000000       0.00000000       0.00000000
Ti       1.67028255       1.67028255       1.67028255
