2
Lattice="3.1120639927938707 0.0 0.0 0.0 3.1120639927938707 0.0 0.0 0.0 3.1120639927938707" Properties=species:S:1:pos:R:3 Minim_Constant_Volume=F n_minim_iter=1 stress="-0.018764521474796948 -1.5197528976588114e-17 2.6357338077477543e-18 -1.5197528976588114e-17 -0.018764521474796975 1.2561795168840362e-17 2.6357338077477543e-18 1.2561795168840362e-17 -0.01876452147479725" pbc="T T T"
Ti       0.00000000       0.00000000       0.00000000
Ti       1.55603200       1.55603200       1.55603200
