2
Lattice="3.3405650968007383 0.0 0.0 0.0 3.3405650968007383 0.0 0.0 4.965852241663254e-32 3.3405650968007383" Properties=species:S:1:pos:R:3 Minim_Constant_Volume=F n_minim_iter=1 stress="0.0556303719958772 -3.856893082273366e-18 -3.2293994318661846e-17 -3.856893082273366e-18 0.05563037199587726 -3.851194772745212e-18 -3.2293994318661846e-17 -3.851194772745212e-18 0.055630371995877274" pbc="T T T"
Ti       0.00000000       0.00000000       0.00000000
Ti       1.67028255       1.67028255       1.67028255
