2
Lattice="2.8762573276003454 0.0 0.0 0.0 2.8762573276003454 0.0 0.0 -1.0267678985292495e-33 2.8762573276003454" Properties=species:S:1:pos:R:3 Minim_Constant_Volume=F n_minim_iter=1 stress="-0.3198459115475965 -1.856387842716642e-18 -4.931553832052951e-17 -1.856387842716642e-18 -0.31984591154759606 1.9736798061756983e-17 -4.931553832052951e-17 1.9736798061756983e-17 -0.3198459115475968" pbc="T T T"
Ti       0.00000000       0.00000000       0.00000000
Ti       1.43812866       1.43812866       1.43812866
