2
Lattice="3.056479496348784 0.0 0.0 0.0 3.056479496348784 0.0 0.0 0.0 3.056479496348784" Properties=species:S:1:pos:R:3 Minim_Constant_Volume=F n_minim_iter=1 stress="-0.09958699785477998 -5.650003853842257e-17 2.417958638526041e-17 -5.650003853842257e-17 -0.09958699785477988 5.41914348131967e-17 2.417958638526041e-17 5.41914348131967e-17 -0.09958699785478001" pbc="T T T"
Ti       0.00000000       0.00000000       0.00000000
Ti       1.52823975       1.52823975       1.52823975
