18
Lattice="0.0 -2.7273956387158 2.7273956387158 2.7273956387158 -2.7273956387158 0.0 21.930519486879437 21.930519486879437 21.930519486879437" Properties=species:S:1:pos:R:3:travel:I:3:map_shift:I:3:n_neighb:I:1:orig_index:I:1:forces:R:3 cutoff=2.0 nneightol=1.2 bulk_struct_test=bulk_Si_diamond supercell_a1_in_bulk_lattice_coords="1 -1 0" n_minim_iter=0 energy=-2934.765080507485 stress="-0.0018979389755611527 0.0012115157789736996 0.0012115157789737367 0.0012115157789736996 -0.0018979389755610122 0.0012115157789738553 0.0012115157789737367 0.0012115157789738553 -0.0018979389755609912" free_energy=-2934.765080507485 pbc="T T T"
Si      -0.01382063      -0.01382063      -0.01382063        0        0        0        0        0        0       21        1       0.00092752       0.00092752       0.00092752
Si       1.35337010       1.35337010       1.35337010        0        0        0        0        0        0       21        2       0.00144709       0.00144709       0.00144709
Si       2.71932233      -0.00807330       2.71932233        0       -1        0        0        0        0       20        3       0.00140626       0.00140626       0.00140626
Si      -1.30826718      -4.03566282      -1.30826718        0       -1        1        0        0        0       20        4       0.00146353       0.00146353       0.00146353
Si      -2.74690803      -0.01951240      -2.74690803        1       -1        1        0        0        0       20        5       0.00139514       0.00139514       0.00139514
Si      -1.36878379       1.35861185      -1.36878379        1       -1        1        0        0        0       20        6       0.00126300       0.00126300       0.00126300
Si       5.45570765       5.45570765       5.45570765        0        0        0        0        0        0       21        1       0.00225995       0.00225995       0.00225995
Si       6.82142999       6.82142999       6.82142999        0        0        0        0        0        0       21        2       0.00491233       0.00491233       0.00491233
Si       8.18804195       5.46064631       8.18804195        0       -1        0        0        0        0       20        3      -0.00388357      -0.00388357      -0.00388357
Si       4.08523843       1.35784279       4.08523843        0       -1        1        0        0        0       20        4       0.00388357       0.00388357       0.00388357
Si       2.72445474       5.45185038       2.72445474        1       -1        1        0        0        0       20        5      -0.00491233      -0.00491233      -0.00491233
Si       4.09017709       6.81757273       4.09017709        1       -1        1        0        0        0       20        6      -0.00225995      -0.00225995      -0.00225995
Si      10.91466852      10.91466852      10.91466852        0        0        0        0        0        0       21        1      -0.00126300      -0.00126300      -0.00126300
Si      12.29279277      12.29279277      12.29279277        0        0        0        0        0        0       21        2      -0.00139514      -0.00139514      -0.00139514
Si      13.58154755      10.85415191      13.58154755        0       -1        0        0        0        0       20        3      -0.00146353      -0.00146353      -0.00146353
Si       9.55395804       6.82656240       9.55395804        0       -1        1        0        0        0       20        4      -0.00140626      -0.00140626      -0.00140626
Si       8.19251463      10.91991027       8.19251463        1       -1        1        0        0        0       20        5      -0.00144709      -0.00144709      -0.00144709
Si       9.55970537      12.28710101       9.55970537        1       -1        1        0        0        0       20        6      -0.00092752      -0.00092752      -0.00092752
