4
Lattice="5.365763693532277 -0.02281652244564192 9.34139500475406e-13 2.2823761435533525 4.856202193881984 2.8304004265351733e-12 -3.824069918543324 -2.416692835719614 2.885831873896886" Properties=species:S:1:pos:R:3:tags:I:1 spacegroup="P 1" unit_cell=conventional n_minim_iter=1 energy=-1923.4765740444952 free_energy=-1923.4765740444952 pbc="T T T"
Ti       0.00000000       0.00000000       0.00000000        0
Al       3.82406992       2.41669284       0.00000000        1
Al       2.68288185      -0.01140826       1.44291594        2
Al       1.14118807       2.42810110       1.44291594        3
