4
Lattice="5.022302030448467 -0.02135604054733503 8.726923598865481e-13 2.136281617066364 4.545357479681766 2.6506035115212733e-12 -3.5792918237578917 -2.262000719568568 2.7011102440599957" Properties=species:S:1:pos:R:3:tags:I:1 spacegroup="P 1" unit_cell=conventional n_minim_iter=1 energy=-1924.5875319568438 free_energy=-1924.5875319568438 pbc="T T T"
Ti       0.00000000       0.00000000       0.00000000        0
Al       3.57929182       2.26200072       0.00000000        1
Al       2.51115102      -0.01067802       1.35055512        2
Al       1.06814081       2.27267874       1.35055512        3
