4
Lattice="5.3297507715726695 -0.022663386808451896 9.276126496832167e-13 2.2670577213054 4.823609250804906 2.809884765632707e-12 -3.79840424643954 -2.4004729319996607 2.866463291156565" Properties=species:S:1:pos:R:3:tags:I:1 spacegroup="P 1" unit_cell=conventional n_minim_iter=1 energy=-1923.6744578528721 free_energy=-1923.6744578528721 pbc="T T T"
Ti       0.00000000       0.00000000       0.00000000        0
Al       3.79840425       2.40047293       0.00000000        1
Al       2.66487539      -0.01133169       1.43323165        2
Al       1.13352886       2.41180463       1.43323165        3
