4
Lattice="4.789307519192964 0.009425770075008694 8.527065795822279e-13 2.064082866587332 4.3217030530105145 2.5286992575563647e-12 -3.4266951928906004 -2.1655644115440382 2.550616825988206" Properties=species:S:1:pos:R:3:tags:I:1 spacegroup="P 1" unit_cell=conventional n_minim_iter=1 energy=-1924.3125133564283 free_energy=-1924.3125133564283 pbc="T T T"
Ti       0.00000000       0.00000000       0.00000000        0
Al       3.42669519       2.16556441       0.00000000        1
Al       2.39465376       0.00471289       1.27530841        2
Al       1.03204143       2.16085153       1.27530841        3
