4
Lattice="5.102672472630091 -0.021697795067802034 8.886204579924675e-13 2.1704679119461208 4.6180955166020485 2.692510828403422e-12 -3.6365701922885894 -2.2981988607684958 2.7443353275735474" Properties=species:S:1:pos:R:3:tags:I:1 spacegroup="P 1" unit_cell=conventional n_minim_iter=1 energy=-1924.4921655713674 free_energy=-1924.4921655713674 pbc="T T T"
Ti       0.00000000       0.00000000       0.00000000        0
Al       3.63657019       2.29819886       0.00000000        1
Al       2.55133624      -0.01084890       1.37216766        2
Al       1.08523396       2.30904776       1.37216766        3
