4
Lattice="4.8788479524241035 0.009601993366721157 8.684358492117829e-13 2.1026727615478387 4.402501198068465 2.577500378263263e-12 -3.490760356986431 -2.206051595718895 2.5983029131083955" Properties=species:S:1:pos:R:3:tags:I:1 spacegroup="P 1" unit_cell=conventional n_minim_iter=2 stress="-0.028745328106403612 2.442103585938728e-05 3.988578933933402e-17 2.442103585938728e-05 -0.02876853756181889 1.1609640390884737e-15 3.988578933933402e-17 1.1609640390884737e-15 -0.028783970894276773" pbc="T T T"
Ti       0.00000000       0.00000000       0.00000000        0
Al       3.49076036       2.20605160       0.00000000        1
Al       2.43942398       0.00480100       1.29915146        2
Al       1.05133638       2.20125060       1.29915146        3
