4
Lattice="5.218681812460312 -0.022191094783803187 9.064503512447154e-13 2.219813534448474 4.723087991629112 2.750893733827216e-12 -3.719247673454887 -2.350448448424058 2.8067278348983367" Properties=species:S:1:pos:R:3:tags:I:1 spacegroup="P 1" unit_cell=conventional n_minim_iter=1 stress="0.08572125366260955 0.009104759538319695 6.8385392563366296e-15 0.009104759538319695 0.07706820095070405 4.673247181256507e-15 6.8385392563366296e-15 4.673247181256507e-15 0.07131427709055138" pbc="T T T"
Ti       0.00000000       0.00000000       0.00000000        0
Al       3.71924767       2.35044845       0.00000000        1
Al       2.60934091      -0.01109555       1.40336392        2
Al       1.10990677       2.36154400       1.40336392        3
