4
Lattice="4.834492334106011 0.009514697686055 8.598761321663707e-13 2.083556496526147 4.362476244495267 2.5525221555098837e-12 -3.4590244153165353 -2.1859954710919496 2.5746806700271456" Properties=species:S:1:pos:R:3:tags:I:1 spacegroup="P 1" unit_cell=conventional n_minim_iter=1 stress="-0.06748959436623499 -0.004281739339223 -4.276173955222475e-15 -0.004281739339223 -0.06342028138273098 -1.8639815518843198e-15 -4.276173955222475e-15 -1.8639815518843198e-15 -0.06071435575743463" pbc="T T T"
Ti       0.00000000       0.00000000       0.00000000        0
Al       3.45902442       2.18599547       0.00000000        1
Al       2.41724617       0.00475735       1.28734034        2
Al       1.04177825       2.18123812       1.28734034        3
