4
Lattice="4.789307519192965 0.009425770075007812 8.518394364401237e-13 2.064082866587334 4.321703053010513 2.528665412508244e-12 -3.4266951928906013 -2.165564411544037 2.550616825988206" Properties=species:S:1:pos:R:3:tags:I:1 spacegroup="P 1" unit_cell=conventional n_minim_iter=1 stress="-0.06748959436623499 -0.004281739339223 -4.276173955222475e-15 -0.004281739339223 -0.06342028138273098 -1.8639815518843198e-15 -4.276173955222475e-15 -1.8639815518843198e-15 -0.06071435575743463" pbc="T T T"
Ti       0.00000000       0.00000000       0.00000000        0
Al       3.42669519       2.16556441       0.00000000        1
Al       2.39465376       0.00471289       1.27530841        2
Al       1.03204143       2.16085153       1.27530841        3
