4
Lattice="5.141925341899419 -0.021864707743032022 8.95456268610281e-13 2.1871644751015804 4.653620724335599 2.713223264116368e-12 -3.6645449085009867 -2.315878008297666 2.7654464289468477" Properties=species:S:1:pos:R:3:tags:I:1 spacegroup="P 1" unit_cell=conventional n_minim_iter=1 stress="0.05264657213071675 0.007030019375284767 5.4874539161381115e-15 0.007030019375284767 0.04596532723193253 3.4784030734643467e-15 5.4874539161381115e-15 3.4784030734643467e-15 0.041522574400234644" pbc="T T T"
Ti       0.00000000       0.00000000       0.00000000        0
Al       3.66454491       2.31587801       0.00000000        1
Al       2.57096267      -0.01093235       1.38272321        2
Al       1.09358224       2.32681036       1.38272321        3
