4
Lattice="4.939273522697112 -0.021002983290449875 8.615186573357355e-13 2.100964689942842 4.470213801255731 2.6090761710381383e-12 -3.5201191063204464 -2.2246054089839715 2.656455591377511" Properties=species:S:1:pos:R:3:tags:I:1 spacegroup="P 1" unit_cell=conventional n_minim_iter=1 stress="-0.0015492871339834202 -0.002713186432571022 -3.2894034762862408e-15 -0.002713186432571022 0.0010292922474323654 -1.0828784287147883e-15 -3.2894034762862408e-15 -1.0828784287147883e-15 0.0027439413917319773" pbc="T T T"
Ti       0.00000000       0.00000000       0.00000000        0
Al       3.52011911       2.22460541       0.00000000        1
Al       2.46963676      -0.01050149       1.32822780        2
Al       1.05048234       2.23510690       1.32822780        3
