4
Lattice="4.603790960820347 0.07260991566643209 8.516230544120067e-13 2.0415277403631626 4.127024096865914 2.429510231074327e-12 -3.3226593505921795 -2.0998170062673736 2.3980964932414413" Properties=species:S:1:pos:R:3:tags:I:1 spacegroup="P 1" unit_cell=conventional n_minim_iter=2 stress="-0.18613826921880466 -0.0063117401606762455 -4.374684092029038e-15 -0.0063117401606762455 -0.1801396681481954 -2.6875497793703846e-15 -4.374684092029038e-15 -2.6875497793703846e-15 -0.1761508453619604" pbc="T T T"
Ti       0.00000000       0.00000000       0.00000000        0
Al       3.32265935       2.09981701       0.00000000        1
Al       2.30189548       0.03630496       1.19904825        2
Al       1.02076387       2.06351205       1.19904825        3
