4
Lattice="4.648362994345902 0.009148379099542478 8.272637029652965e-13 2.003338974550698 4.194519659399715 2.4539624786460756e-12 -3.3258509844487385 -2.1018340192508678 2.4755547266836264" Properties=species:S:1:pos:R:3:tags:I:1 spacegroup="P 1" unit_cell=conventional n_minim_iter=1 stress="-0.15203168905588021 0.00037435380880866773 1.3542189768434415e-15 0.00037435380880866773 -0.15238747036200836 9.579228536806482e-16 1.3542189768434415e-15 9.579228536806482e-16 -0.15262405028524312" pbc="T T T"
Ti       0.00000000       0.00000000       0.00000000        0
Al       3.32585098       2.10183402       0.00000000        1
Al       2.32418150       0.00457419       1.23777736        2
Al       1.00166949       2.09725983       1.23777736        3
