4
Lattice="4.5994292235176335 0.009052073220065222 8.178641384696187e-13 1.9822496296799894 4.1503635416444125 2.429019791805646e-12 -3.290839426599245 -2.079707807433465 2.449494320511448" Properties=species:S:1:pos:R:3:tags:I:1 spacegroup="P 1" unit_cell=conventional n_minim_iter=1 stress="-0.19922551063926744 -0.009906052781765089 -9.08354760543485e-15 -0.009906052781765089 -0.18981091857598587 -5.0111402253323435e-15 -9.08354760543485e-15 -5.0111402253323435e-15 -0.18355060239508852" pbc="T T T"
Ti       0.00000000       0.00000000       0.00000000        0
Al       3.29083943       2.07970781       0.00000000        1
Al       2.29971461       0.00452604       1.22474716        2
Al       0.99112481       2.07518177       1.22474716        3
