4
Lattice="1.7838915039740177 -3.0897907200734562 4.4695000283085655e-17 1.7838915039740182 3.0897907200734562 -4.4695000283086253e-17 9.879897349066154e-31 8.57029844292396e-17 5.924695923366513" Properties=species:S:1:pos:R:3 cutoff=-1.0 nneightol=1.2 n_minim_iter=1 energy=-651.5259765782731 free_energy=-651.5259765782731 pbc="T T T"
Si       1.78389150       1.02993024       0.37983295
Si       1.78389150      -1.02993024       3.34218091
Si       1.78389150       1.02993024       2.58251501
Si       1.78389150      -1.02993024      -0.37983295
4
Lattice="1.780906167873111 -3.084619966269015 -6.266722480809588e-17 1.7809061678731115 3.084619966269015 6.266722480809378e-17 8.845885682273638e-31 2.929118640008434e-16 5.944575727811603" Properties=species:S:1:pos:R:3 cutoff=-1.0 nneightol=1.2 n_minim_iter=2 stress="-0.1423135400532946 7.543980188045315e-17 -1.512352274857794e-16 7.543980188045315e-17 -0.14231354005329389 -2.366681110966668e-16 -1.512352274857794e-16 -2.366681110966668e-16 -0.14263264701863465" pbc="T T T"
Si       1.78090617       1.02820666       0.38083525
Si       1.78090617      -1.02820666       3.35312312
Si       1.78090617       1.02820666       2.59145261
Si       1.78090617      -1.02820666      -0.38083525
4
Lattice="1.7795430305650555 -3.082258943193769 -1.1018835382122667e-16 1.779543030565056 3.082258943193769 1.101883538212247e-16 8.654522185668901e-31 3.835692974332524e-16 5.953686354962706" Properties=species:S:1:pos:R:3 cutoff=-1.0 nneightol=1.2 n_minim_iter=3 stress="-0.14258513850486193 1.4784622881471829e-16 1.3908088118451315e-16 1.4784622881471829e-16 -0.1425851385048625 4.205191260752072e-17 1.3908088118451315e-16 4.205191260752072e-17 -0.14257358419249352" pbc="T T T"
Si       1.77954303       1.02741965       0.38441594
Si       1.77954303      -1.02741965       3.36125911
Si       1.77954303       1.02741965       2.59242724
Si       1.77954303      -1.02741965      -0.38441594
