4
Lattice="1.7388915714031898 -3.011848550523609 -1.062391696552496e-16 1.7388915714031903 3.011848550523609 1.0623916965524771e-16 3.2239219079763196e-30 -2.0619624369418702e-16 5.845601577168092" Properties=species:S:1:pos:R:3 cutoff=-1.0 nneightol=1.2 n_minim_iter=2 stress="-0.08080919523910454 -7.465627681213686e-17 2.01640440518076e-16 -7.465627681213686e-17 -0.08080919523910658 -4.569206022919544e-16 2.01640440518076e-16 -4.569206022919544e-16 -0.08100485542860156" pbc="T T T"
Si       1.73889157       1.00394952       0.37486870
Si       1.73889157      -1.00394952       3.29766949
Si       1.73889157       1.00394952       2.54793208
Si       1.73889157      -1.00394952      -0.37486870
