4
Lattice="1.8947787761252535 -3.281853109352114 -1.491577675404309e-17 1.8947787761252535 3.281853109352114 1.4915776754043073e-17 -5.880615801081266e-32 -2.943467537990016e-17 6.236192826387195" Properties=species:S:1:pos:R:3 cutoff=-1.0 nneightol=1.2 n_minim_iter=2 stress="-0.027087955084739407 1.7681187696981755e-17 2.1147212258448577e-16 1.7681187696981755e-17 -0.027087955084739705 2.443451383360047e-16 2.1147212258448577e-16 2.443451383360047e-16 -0.027325931297008735" pbc="T T T"
Si       1.89477878       1.09395104       0.39100196
Si       1.89477878      -1.09395104       3.50909837
Si       1.89477878       1.09395104       2.72709445
Si       1.89477878      -1.09395104      -0.39100196
