4
Lattice="1.8226673495472014 -3.1569524547126555 1.7596051844682924e-17 1.8226673495472017 3.1569524547126555 -1.759605184468357e-17 2.7016819864698297e-31 -8.888011918677923e-17 6.029996372499121" Properties=species:S:1:pos:R:3 cutoff=-1.0 nneightol=1.2 n_minim_iter=4 stress="-0.0865564252984679 -2.465187172435832e-16 1.185540519493479e-16 -2.465187172435832e-16 -0.08655642529846791 -2.886220123804138e-16 1.185540519493479e-16 -2.886220123804138e-16 -0.08656069797080893" pbc="T T T"
Si       1.82266735       1.05231748       0.38380538
Si       1.82266735      -1.05231748       3.39880357
Si       1.82266735       1.05231748       2.63119280
Si       1.82266735      -1.05231748      -0.38380538
