4
Lattice="1.9571999880613657 -3.3899698198954864 -1.4767333081512443e-17 1.9571999880613657 3.3899698198954864 1.476733308151243e-17 -2.415340981124172e-32 -3.099217236910438e-17 6.459989961667558" Properties=species:S:1:pos:R:3 cutoff=-1.0 nneightol=1.2 n_minim_iter=2 stress="0.023765272721684546 -1.3636356171990364e-17 7.940838793002224e-17 -1.3636356171990364e-17 0.023765272721684102 -2.479167973798109e-16 7.940838793002224e-17 -2.479167973798109e-16 0.02413388057382719" pbc="T T T"
Si       1.95719999       1.12998994       0.40422570
Si       1.95719999      -1.12998994       3.63422068
Si       1.95719999       1.12998994       2.82576928
Si       1.95719999      -1.12998994      -0.40422570
