20
Lattice="6.962835379690587 8.401671627868258e-15 -9.342985454643638e-15 3.4814176898452853 6.029992321181117 2.838349415578277e-14 3.481417689845305 2.0099974403936427 12.084049515253348" Properties=species:S:1:pos:R:3 unique_starting_index=8 config_type=initial n_minim_iter=1 energy=-3248.742164468334 free_energy=-3248.742164468334 pbc="T T T"
Si       8.56347926       3.56946243       4.63353862
Si       6.55268599       5.63145937       4.63353862
Si       5.77234089       2.85906285       4.63353862
Si       5.06351450       3.59028604       8.31159097
Si       8.28463459       2.58998917       8.31159097
Si       7.54035705       5.87970943       8.31159097
Si       6.44393076       2.17097274      10.76492901
Si       8.82358784       4.49512137      10.76492901
Si       5.62098755       5.39389053      10.76492901
Si       4.07805829       5.04357772       0.39065297
Si       7.51877518       1.00991322       0.39065297
Si       9.29167267       6.00649371       0.39065297
Si       9.99664398       4.99183092       9.01052118
Si      11.56713176       6.16143218       9.01052118
Si       9.76898347       6.93671387       9.01052118
Si       7.28153842       1.07922996       3.50774584
Si       9.35026099       5.76638227       3.50774584
Si       4.25670674       5.21437241       3.50774584
Si      10.44425307       6.02999232       1.95381699
Si      10.44425307       6.02999232       6.31900968
20
Lattice="6.734961121760358 5.9540195962875036e-15 -8.924977073374616e-15 3.367480560880175 5.832647424945009 2.7307267478636207e-14 3.367480560880193 1.9442158083149375 12.340860547821938" Properties=species:S:1:pos:R:3 unique_starting_index=8 config_type=initial n_minim_iter=2 stress="0.017428563589245685 8.005953599409175e-16 -1.2757329748530522e-15 8.005953599409175e-16 0.01742856358924064 5.22910538675499e-16 -1.2757329748530522e-15 5.22910538675499e-16 0.06057414836361496" pbc="T T T"
Si       8.24383625       3.52451891       4.77738736
Si       6.29568121       5.37711216       4.77738736
Si       5.66536591       2.76366378       4.77738736
Si       4.94475084       3.55824101       8.51021674
Si       7.91601972       2.50315934       8.51021674
Si       7.34411281       5.60389450       8.51021674
Si       6.21040874       2.16296793      10.97800130
Si       8.49153271       4.29688777      10.97800130
Si       5.50294193       5.20543916      10.97800130
Si       3.97007931       4.83838271       0.43718787
Si       7.29472025       1.01899818       0.43718787
Si       8.94008381       5.80791396       0.43718787
Si       9.65579257       4.76974547       9.12254849
Si      11.24626634       5.97728893       9.12254849
Si       9.40526614       6.75090788       9.12254849
Si       7.11737261       1.06610962       3.58528378
Si       8.98795793       5.63077068       3.58528378
Si       4.09955283       4.96841455       3.58528378
Si      10.10244169       5.83264743       2.02238455
Si      10.10244169       5.83264743       6.38600292
20
Lattice="6.627350955576031 4.904168360196871e-15 -8.896118338356939e-15 3.313675477788014 5.739454287323914 2.6808211813561612e-14 3.3136754777880286 1.913151429107906 12.294067204521255" Properties=species:S:1:pos:R:3 unique_starting_index=8 config_type=initial n_minim_iter=3 stress="-0.0208020733281234 1.071575523499475e-15 -2.661299784027193e-15 1.071575523499475e-15 -0.02080207332812928 2.024128912360947e-16 -2.661299784027193e-15 2.024128912360947e-16 0.006411273793733626" pbc="T T T"
Si       8.09730273       3.49572192       4.77674939
Si       6.17866656       5.26460890       4.77674939
Si       5.60608359       2.71857775       4.77674939
Si       4.88371216       3.53399196       8.48647727
Si       7.75231902       2.46242281       8.48647727
Si       7.24602169       5.48249381       8.48647727
Si       6.10273038       2.15255894      10.93030821
Si       8.33916600       4.20884008      10.93030821
Si       5.44015649       5.11750956      10.93030821
Si       3.91547432       4.74728974       0.45174300
Si       7.18569124       1.01725535       0.45174300
Si       8.78088732       5.71436348       0.45174300
Si       9.49631990       4.67111298       9.05725691
Si      11.08859042       5.88849778       9.05725691
Si       9.23816900       6.65875210       9.05725691
Si       7.03123668       1.05623193       3.57190347
Si       8.82435989       5.56111361       3.57190347
Si       4.02645631       4.86156303       3.57190347
Si       9.94102644       5.73945429       2.02364400
Si       9.94102644       5.73945429       6.33586874
20
Lattice="6.65660597618699 1.371615677184794e-15 -8.685507856322436e-15 3.328302988093498 5.764789878361244 2.6960105782497047e-14 3.32830298809351 1.9215966261203485 12.197643856443424" Properties=species:S:1:pos:R:3 unique_starting_index=8 config_type=initial n_minim_iter=4 stress="0.004994971864490383 1.0391109172957387e-15 -2.801543919980035e-15 1.0391109172957387e-15 0.004994971864484205 1.1317496858103234e-15 -2.801543919980035e-15 1.1317496858103234e-15 -0.014622776117368896" pbc="T T T"
Si       8.11989461       3.53961258       4.75645811
Si       6.18787023       5.26222872       4.75645811
Si       5.66205309       2.72773846       4.75645811
Si       4.92387021       3.58208516       8.42813599
Si       7.74910010       2.47315411       8.42813599
Si       7.29684762       5.47434049       8.42813599
Si       6.12217642       2.18689738      10.83871627
Si       8.35821506       4.20851161      10.83871627
Si       5.48942646       5.13417077      10.83871627
Si       3.93955120       4.75796419       0.46693246
Si       7.22291850       1.03276933       0.46693246
Si       8.80734824       5.73884624       0.46693246
Si       9.53269894       4.66799640       8.95543979
Si      11.16086500       5.92156125       8.95543979
Si       9.26116296       6.70481199       8.95543979
Si       7.08716738       1.06576714       3.54466430
Si       8.84664684       5.60478342       3.54466430
Si       4.03600371       4.85902919       3.54466430
Si       9.98490897       5.76478988       2.00831121
Si       9.98490897       5.76478988       6.26087203
20
Lattice="6.596631456082069 -1.3848520756240526e-14 -8.057271997001558e-15 3.2983157280410524 5.712850420370593 2.671504437540798e-14 3.298315728041056 1.904283473456792 12.4210013957094" Properties=species:S:1:pos:R:3 unique_starting_index=8 config_type=initial n_minim_iter=5 stress="-0.0029929277772674746 1.1327432845879369e-15 -1.2687942846441463e-15 1.1327432845879369e-15 -0.002992927777273455 1.349580963287923e-15 -1.2687942846441463e-15 1.349580963287923e-15 0.0014112713968512693" pbc="T T T"
Si       8.00325683       3.61933672       4.91214433
Si       6.05719696       5.12135537       4.91214433
Si       5.72944059       2.68500876       4.91214433
Si       4.95319227       3.67192655       8.61388943
Si       7.53668511       2.45362707       8.61388943
Si       7.30001699       5.30014723       8.61388943
Si       6.04186281       2.26453476      11.01522309
Si       8.21118688       4.10013930      11.01522309
Si       5.53684468       5.06102678      11.01522309
Si       3.91664627       4.69797440       0.53870514
Si       7.16637460       1.04292796       0.53870514
Si       8.70687350       5.68479848       0.53870514
Si       9.42366822       4.52709396       8.99729489
Si      11.15748189       5.89758909       8.99729489
Si       9.10369145       6.71386821       8.99729489
Si       7.09364765       1.03018165       3.61168875
Si       8.75427561       5.62818825       3.61168875
Si       3.94197111       4.76733095       3.61168875
Si       9.89494719       5.71285042       2.07662613
Si       9.89494719       5.71285042       6.28023211
20
Lattice="6.618288235433822 -3.088932418501646e-14 -7.964030618036199e-15 3.309144117716943 5.731605741453357 2.6570712015568386e-14 3.309144117716937 1.91053524715104 12.523660929730546" Properties=species:S:1:pos:R:3 unique_starting_index=8 config_type=initial n_minim_iter=6 stress="-0.0013431466396455372 2.6879973169764287e-15 6.226825142700269e-16 2.6879973169764287e-15 -0.001343146639647347 3.4433703711025955e-16 6.226825142700269e-16 3.4433703711025955e-16 0.0011252017015517" pbc="T T T"
Si       8.01113585       3.71127357       5.00396419
Si       6.01695136       5.08221037       5.00396419
Si       5.82677751       2.66972754       5.00396419
Si       5.02441957       3.75643791       8.70853102
Si       7.47119603       2.47305603       8.70853102
Si       7.35924911       5.23371754       8.70853102
Si       6.04116293       2.33860333      11.09000024
Si       8.19070511       4.06249890      11.09000024
Si       5.62299666       5.06210925      11.09000024
Si       3.92118367       4.72693966       0.57302832
Si       7.18233481       1.03237484       0.57302832
Si       8.75134623       5.70389699       0.57302832
Si       9.43417199       4.45718258       8.99149045
Si      11.27774538       5.94164132       8.99149045
Si       9.07037970       6.79599333       8.99149045
Si       7.15316989       1.00492990       3.65501065
Si       8.78969671       5.69236189       3.65501065
Si       3.91199812       4.76591970       3.65501065
Si       9.92743236       5.73160574       2.09989070
Si       9.92743236       5.73160574       6.26129624
20
Lattice="6.678519168370603 -4.0680147678366025e-14 -8.165608110839416e-15 3.339259584185342 5.783767259470239 2.697053489369751e-14 3.3392595841853296 1.9279224198233316 12.469603380766443" Properties=species:S:1:pos:R:3 unique_starting_index=8 config_type=initial n_minim_iter=7 stress="0.00847005085564719 3.4319541512785973e-15 5.833235683201759e-16 3.4319541512785973e-15 0.008470050855642307 2.8377578437107857e-15 5.833235683201759e-16 2.8377578437107857e-15 -0.019590801219076845" pbc="T T T"
Si       8.08121379       3.77355563       5.00084244
Si       6.04843641       5.11175862       5.00084244
Si       5.90590731       2.68222028       5.00084244
Si       5.09033875       3.81230795       8.67925979
Si       7.51031343       2.50220870       8.67925979
Si       7.43490533       5.25301787       8.67925979
Si       6.08804137       2.38315506      11.03657717
Si       8.24914483       4.08082096      11.03657717
Si       5.69837131       5.10355850      11.03657717
Si       3.95177394       4.77758466       0.57454354
Si       7.24364169       1.03354429       0.57454354
Si       8.84014189       5.75640557       0.57454354
Si       9.51426334       4.46886370       8.92622666
Si      11.40827635       6.00516190       8.92622666
Si       9.13079658       6.87727618       8.92622666
Si       7.22614054       0.99983511       3.64008338
Si       8.87808546       5.75810372       3.64008338
Si       3.93133151       4.80959569       3.64008338
Si      10.01777875       5.78376726       2.11670194
Si      10.01777875       5.78376726       6.20951154
20
Lattice="6.800477782421361 -6.877666573197017e-14 -8.22906709223923e-15 3.400238891210746 5.889386517448525 2.748978944315775e-14 3.400238891210717 1.9631288391494155 12.603459134495232" Properties=species:S:1:pos:R:3 unique_starting_index=8 config_type=initial n_minim_iter=8 stress="-0.02038271075641322 1.9490544563088015e-15 1.5131625616222572e-15 1.9490544563088015e-15 -0.020382710756413524 9.422078453412097e-17 1.5131625616222572e-15 9.422078453412097e-17 0.013358632521359099" pbc="T T T"
Si       8.25356065       3.90108258       5.09477711
Si       6.09573862       5.19725190       5.09477711
Si       6.05213408       2.68043855       5.09477711
Si       5.22868083       3.89315330       8.79082732
Si       7.61504550       2.58159378       8.79082732
Si       7.55770702       5.30402596       8.79082732
Si       6.17621846       2.47238198      11.14531905
Si       8.37170074       4.11257109      11.14531905
Si       5.85351416       5.19381997      11.14531905
Si       3.98291350       4.92469059       0.56916666
Si       7.34459167       0.98695898       0.56916666
Si       9.07392819       5.86712347       0.56916666
Si       9.69448678       4.51545808       8.98313714
Si      11.64368855       6.13794279       8.98313714
Si       9.26397469       7.01475869       8.98313714
Si       7.34275601       0.97508209       3.69396449
Si       9.08513170       5.87147219       3.69396449
Si       3.97354564       4.93221875       3.69396449
Si      10.20071668       5.88938652       2.14662662
Si      10.20071668       5.88938652       6.22914106
20
Lattice="6.842920706611782 -8.335160182723628e-14 -7.982273273497363e-15 3.4214603533059695 5.926143168008317 2.7528851725688014e-14 3.421460353305932 1.9753810560026754 12.360771094041672" Properties=species:S:1:pos:R:3 unique_starting_index=8 config_type=initial n_minim_iter=9 stress="0.008946546777207793 2.070461608758024e-15 5.655796908991744e-16 2.070461608758024e-15 0.008946546777205277 4.349071006541873e-16 5.655796908991744e-16 4.349071006541873e-16 -0.0033517914696811466" pbc="T T T"
Si       8.32898296       3.98718250       5.04078759
Si       6.06834861       5.21951958       5.04078759
Si       6.13143056       2.64558426       5.04078759
Si       5.30697905       3.92567055       8.64327636
Si       7.63262147       2.63314340       8.64327636
Si       7.58916161       5.29347239       8.64327636
Si       6.18052716       2.53432901      10.92141348
Si       8.40078453       4.08532902      10.92141348
Si       5.94745044       5.23262830      10.92141348
Si       4.01418413       4.93127352       0.53636436
Si       7.40814121       1.01074867       0.53636436
Si       9.10643678       5.91026415       0.53636436
Si       9.76275016       4.51453173       8.77451632
Si      11.73768788       6.19752378       8.77451632
Si       9.29270515       7.06637400       8.77451632
Si       7.39587534       0.96063999       3.64481365
Si       9.15596511       5.92469593       3.64481365
Si       3.97692168       4.96695041       3.64481365
Si      10.26438106       5.92614317       2.08676998
Si      10.26438106       5.92614317       6.06461787
20
Lattice="6.821891865635317 -1.0585212640659126e-13 -7.73006318965216e-15 3.4109459328177567 5.907931657510543 2.7449277187034576e-14 3.4109459328177043 1.9693105525034096 12.268330737144579" Properties=species:S:1:pos:R:3 unique_starting_index=8 config_type=initial n_minim_iter=10 stress="0.029733876914630898 2.5724413958545452e-15 2.348017956594587e-16 2.5724413958545452e-15 0.029733876914629854 5.256188462680715e-16 2.348017956594587e-16 5.256188462680715e-16 0.0057504795915823805" pbc="T T T"
Si       8.33086496       4.07065503       5.06783983
Si       5.95306059       5.17941317       5.06783983
Si       6.18175005       2.56579511       5.06783983
Si       5.35909448       3.93676357       8.61128127
Si       7.55489924       2.67273017       8.61128127
Si       7.55168189       5.20636958       8.61128127
Si       6.11433098       2.59900059      10.82275844
Si       8.33581771       3.99566566      10.82275844
Si       6.01552692       5.22119707      10.82275844
Si       3.99351541       4.91211937       0.51768666
Si       7.39300587       1.00242611       0.51768666
Si       9.07915432       5.90131783       0.51768666
Si       9.73850807       4.45092989       8.65350004
Si      11.74180321       6.20833044       8.65350004
Si       9.21820212       7.06453465       8.65350004
Si       7.40545677       0.96467209       3.62677952
Si       9.10562481       5.93097765       3.62677952
Si       3.95459402       4.92021358       3.62677952
Si      10.23283780       5.90793166       2.07737187
Si      10.23283780       5.90793166       5.95432698
20
Lattice="6.796220457066417 -1.4028391253967104e-13 -7.363629643585683e-15 3.3981102285333353 5.885699565538928 2.7291905751062137e-14 3.398110228533263 1.9618998551795277 12.244552418788164" Properties=species:S:1:pos:R:3 unique_starting_index=8 config_type=initial n_minim_iter=11 stress="0.014801624996402463 1.6113557608370116e-15 1.4640341977811004e-15 1.6113557608370116e-15 0.014801624996407038 -1.0832355187245112e-15 1.4640341977811004e-15 -1.0832355187245112e-15 -0.00542844637651309" pbc="T T T"
Si       8.35665984       4.17614970       5.14189503
Si       5.79745927       5.14900486       5.14189503
Si       6.23454227       2.44624457       5.14189503
Si       5.42366724       3.92189006       8.63660305
Si       7.48415088       2.73608858       8.63660305
Si       7.48084326       5.11342050       8.63660305
Si       6.02353968       2.67344466      10.77749435
Si       8.26540009       3.87981605      10.77749435
Si       6.09972161       5.21813842      10.77749435
Si       3.96548789       4.88599252       0.49963947
Si       7.37830333       0.99121699       0.49963947
Si       9.04487016       5.89418962       0.49963947
Si       9.71422715       4.38392333       8.58568752
Si      11.73495883       6.22080583       8.58568752
Si       9.13380608       7.05236955       8.58568752
Si       7.37856608       0.95553700       3.61163561
Si       9.07563856       5.91225716       3.61163561
Si       3.93445674       4.90360497       3.61163561
Si      10.19433069       5.88569957       2.06235811
Si      10.19433069       5.88569957       5.87756378
20
Lattice="6.768599691158644 -1.6379045475933745e-13 -7.087726764808195e-15 3.38429984557947 5.861779280590803 2.7144652542062038e-14 3.384299845579385 1.9539264268634793 12.339065446880147" Properties=species:S:1:pos:R:3 unique_starting_index=8 config_type=initial n_minim_iter=12 stress="-0.006166270145430127 2.22416868980619e-15 -3.934268646156423e-16 2.22416868980619e-15 -0.0061662701454264475 5.495001214794281e-16 -3.934268646156423e-16 5.495001214794281e-16 -0.01346702616111706" pbc="T T T"
Si       8.40042371       4.23118699       5.23283918
Si       5.67267211       5.15938684       5.23283918
Si       6.23270326       2.33298473       5.23283918
Si       5.43750433       3.85311033       8.72618636
Si       7.48155579       2.78246171       8.72618636
Si       7.38673896       5.08798652       8.72618636
Si       5.94109466       2.69347787      10.84379488
Si       8.23403180       3.79839997      10.84379488
Si       6.13067262       5.23168073      10.84379488
Si       3.93478093       4.86003675       0.48638694
Si       7.36089363       0.97760187       0.48638694
Si       9.01012452       5.88591994       0.48638694
Si       9.69075955       4.36841414       8.66034348
Si      11.67726168       6.20823688       8.66034348
Si       9.09067739       7.00868682       8.66034348
Si       7.31861913       0.96402253       3.60053786
Si       9.04302182       5.85609882       3.60053786
Si       3.94415813       4.90343721       3.60053786
Si      10.15289954       5.86177928       2.05367948
Si      10.15289954       5.86177928       5.91877019
20
Lattice="6.744093992078285 -1.6970474645010612e-13 -6.609079267099176e-15 3.3720469960392965 5.840556722649712 2.6819284741080243e-14 3.37204699603921 1.9468522408831117 12.52003759418253" Properties=species:S:1:pos:R:3 unique_starting_index=8 config_type=initial n_minim_iter=13 stress="-0.014224040911352352 7.237906862762769e-16 -4.185005048492322e-16 7.237906862762769e-16 -0.014224040911350854 -1.6339228463364605e-16 -4.185005048492322e-16 -1.6339228463364605e-16 -0.0017519868542952494" pbc="T T T"
Si       8.45102200       4.20740833       5.30045268
Si       5.61895449       5.21509557       5.30045268
Si       6.16230550       2.25860954       5.30045268
Si       5.37664138       3.73087688       8.84409699
Si       7.56883314       2.79086958       8.84409699
Si       7.28680746       5.15936699       8.84409699
Si       5.89019872       2.64129523      10.99998836
Si       8.25565986       3.78041411      10.99998836
Si       6.08642340       5.25940411      10.99998836
Si       3.90742735       4.83821677       0.47659124
Si       7.34445568       0.96482296       0.47659124
Si       8.98039895       5.87807371       0.47659124
Si       9.67298874       4.42486601       8.87422596
Si      11.56374123       6.16462097       8.87422596
Si       9.11169300       6.93218318       8.87422596
Si       7.23530307       0.99384780       3.58968252
Si       9.00983901       5.76903236       3.58968252
Si       3.98713990       4.91823329       3.58968252
Si      10.11614099       5.84055672       2.04693923
Si      10.11614099       5.84055672       6.08978852
20
Lattice="6.7445547380626225 -1.7487262973933376e-13 -6.409166256411524e-15 3.37227736903147 5.840955740376838 2.7068374464630065e-14 3.37227736903138 1.9469852467921525 12.489137497525446" Properties=species:S:1:pos:R:3 unique_starting_index=8 config_type=initial n_minim_iter=14 stress="-0.0003319668776363159 1.2775417209645374e-15 -3.152712914258785e-16 1.2775417209645374e-15 -0.0003319668776319653 4.265658458475826e-16 -3.152712914258785e-16 4.265658458475826e-16 -0.0023448726256698506" pbc="T T T"
Si       8.50165719       4.20694889       5.26543139
Si       5.59495627       5.25917666       5.26543139
Si       6.13705076       2.21578593       5.26543139
Si       5.35191955       3.65885595       8.80912523
Si       7.64448750       2.80547031       8.80912523
Si       7.23725717       5.21758522       8.80912523
Si       5.87651738       2.61226080      10.96694023
Si       8.28856658       3.78308293      10.96694023
Si       6.06858027       5.28656775      10.96694023
Si       3.90054907       4.82980188       0.45905199
Si       7.35610382       0.96307364       0.45905199
Si       8.97701133       5.88903596       0.45905199
Si       9.68228890       4.48228728       8.90653577
Si      11.51074512       6.14396451       8.90653577
Si       9.15746231       6.89661543       8.90653577
Si       7.20362799       1.01843424       3.56406501
Si       9.00530556       5.72930772       3.56406501
Si       4.02473067       4.93416952       3.56406501
Si      10.11683211       5.84095574       2.02144248
Si      10.11683211       5.84095574       6.15488031
20
Lattice="6.8360585211250475 -1.954625594935931e-13 -5.9767290721506255e-15 3.418029260562699 5.92020034105127 2.733741628273001e-14 3.418029260562598 1.9734001136836232 12.386225255454328" Properties=species:S:1:pos:R:3 unique_starting_index=8 config_type=initial n_minim_iter=15 stress="0.020340915619181332 8.508186160865316e-17 1.0720574254959438e-15 8.508186160865316e-17 0.020340915619185024 3.249699485523569e-16 1.0720574254959438e-15 3.249699485523569e-16 0.02138465477287196" pbc="T T T"
Si       8.64150475       4.34338686       5.16602160
Si       5.58988131       5.31206921       5.16602160
Si       6.27678951       2.18494461       5.16602160
Si       5.42608600       3.68736143       8.69982711
Si       7.76572537       2.85544761       8.69982711
Si       7.31636419       5.29759165       8.69982711
Si       5.94798202       2.65903420      10.86004609
Si       8.39533487       3.82158643      10.86004609
Si       6.16485868       5.35978005      10.86004609
Si       3.93798816       4.89301226       0.47333281
Si       7.46565004       0.96389165       0.47333281
Si       9.10453737       5.98349677       0.47333281
Si       9.80071488       4.57631440       8.82115663
Si      11.64461360       6.19951086       8.82115663
Si       9.31693487       6.98477576       8.82115663
Si       7.28782288       1.00629118       3.59680144
Si       9.15673188       5.80829416       3.59680144
Si       4.06362081       5.02581534       3.59680144
Si      10.25408778       5.92020034       2.03978468
Si      10.25408778       5.92020034       6.19239311
20
Lattice="6.8381213320951755 -2.0895084354245881e-13 -5.9019495330938175e-15 3.419060666047775 5.921986787754602 2.7382535236011248e-14 3.419060666047664 1.9739955959180635 12.337976120288154" Properties=species:S:1:pos:R:3 unique_starting_index=8 config_type=initial n_minim_iter=16 stress="0.014220788334182007 1.7006296296024489e-15 2.9871757701314393e-16 1.7006296296024489e-15 0.014220788334183988 1.249638244599037e-15 2.9871757701314393e-16 1.249638244599037e-15 0.013244975563660704" pbc="T T T"
Si       8.66772873       4.40491094       5.09952748
Si       5.52761353       5.30401780       5.09952748
Si       6.31902174       2.13504484       5.09952748
Si       5.42448590       3.66260494       8.63880773
Si       7.79209080       2.86644012       8.63880773
Si       7.29778730       5.31492852       8.63880773
Si       5.94265716       2.66302940      10.80565837
Si       8.39866298       3.81497737      10.80565837
Si       6.17304386       5.36596681      10.80565837
Si       3.93136747       4.88963228       0.48823274
Si       7.47601317       0.95984796       0.48823274
Si       9.10698337       5.99449334       0.48823274
Si       9.79381588       4.60599701       8.78990127
Si      11.62854564       6.17869485       8.78990127
Si       9.34918448       6.98126851       8.78990127
Si       7.27706572       1.01032837       3.61474666
Si       9.16273978       5.79695959       3.61474666
Si       4.07455851       5.03668562       3.61474666
Si      10.25718200       5.92198679       2.05861284
Si      10.25718200       5.92198679       6.24283127
20
Lattice="6.807523490749484 -2.174234179815884e-13 -5.9200877379650614e-15 3.403761745374937 5.895488279848259 2.727297059892306e-14 3.403761745374821 1.9651627599492798 12.38877531715116" Properties=species:S:1:pos:R:3 unique_starting_index=8 config_type=initial n_minim_iter=17 stress="0.006097277900070392 3.2655407757695516e-15 1.1402013992333627e-15 3.2655407757695516e-15 0.00609727790006976 1.5020826556770157e-15 1.1402013992333627e-15 1.5020826556770157e-15 -0.00023503306639964096" pbc="T T T"
Si       8.62649313       4.41677020       5.09645651
Si       5.47676522       5.26237709       5.09645651
Si       6.31931213       2.11182927       5.09645651
Si       5.40141669       3.64416675       8.66217192
Si       7.75839766       2.85568069       8.66217192
Si       7.26275613       5.29112912       8.66217192
Si       5.91669835       2.65573729      10.84439026
Si       8.35676185       3.79614243      10.84439026
Si       6.14911028       5.33909684      10.84439026
Si       3.91345304       4.86621664       0.51255833
Si       7.44405323       0.95604143       0.51255833
Si       9.06506421       5.96871849       0.51255833
Si       9.74044877       4.58841790       8.82352929
Si      11.57865963       6.14126713       8.82352929
Si       9.31474732       6.95677981       8.82352929
Si       7.24704244       1.01597192       3.63395191
Si       9.11166828       5.76813690       3.63395191
Si       4.06385976       5.00686775       3.63395191
Si      10.21128524       5.89548828       2.08650143
Si      10.21128524       5.89548828       6.30298729
20
Lattice="6.740358099958925 -2.2031092851803194e-13 -5.770938095559236e-15 3.3701790499796593 5.837321345168522 2.6972084469904642e-14 3.3701790499795417 1.9457737817226992 12.537987386057084" Properties=species:S:1:pos:R:3 unique_starting_index=8 config_type=initial n_minim_iter=18 stress="-0.0005608922094697494 2.75837386367309e-15 -4.2109063726717124e-16 2.75837386367309e-15 -0.0005608922094713193 1.3509412911962444e-15 -4.2109063726717124e-16 1.3509412911962444e-15 -0.0031827675806079926" pbc="T T T"
Si       8.50284772       4.37689259       5.15884048
Si       5.43879217       5.17523584       5.15884048
Si       6.27943441       2.12251427       5.15884048
Si       5.35643241       3.64023554       8.76944029
Si       7.64996355       2.81868877       8.76944029
Si       7.21467835       5.21571839       8.76944029
Si       5.86970132       2.63996182      10.97577925
Si       8.25959154       3.76332955      10.97577925
Si       6.09178144       5.27135133      10.97577925
Si       3.88311667       4.82126149       0.55080873
Si       7.36382294       0.95224694       0.55080873
Si       8.97413470       5.90113426       0.55080873
Si       9.63202190       4.51447635       8.91339278
Si      11.49541215       6.08433748       8.91339278
Si       9.20417741       6.91315021       8.91339278
Si       7.20143811       1.01632967       3.65819803
Si       8.99982983       5.72846351       3.65819803
Si       4.01980636       4.92984951       3.65819803
Si      10.11053715       5.83732135       2.12651786
Si      10.11053715       5.83732135       6.36141581
20
Lattice="6.735061043539412 -2.2545831537582425e-13 -5.299790738699095e-15 3.367530521769908 5.832733959743944 2.711783601829433e-14 3.367530521769788 1.9442446532478384 12.5687711076691" Properties=species:S:1:pos:R:3 unique_starting_index=8 config_type=initial n_minim_iter=19 stress="-0.007614800225835166 3.532632551599195e-15 -9.455190393796431e-16 3.532632551599195e-15 -0.007614800225835987 8.131703952002405e-16 -9.455190393796431e-16 8.131703952002405e-16 -0.007511803976028221" pbc="T T T"
Si       8.46926825       4.39816994       5.15779373
Si       5.42656107       5.13551649       5.15779373
Si       6.30935382       2.13178150       5.15779373
Si       5.36157222       3.65314276       8.79065757
Si       7.62562155       2.81668637       8.79065757
Si       7.21798937       5.19563879       8.79065757
Si       5.86872145       2.64940021      11.00010726
Si       8.24131348       3.75776176      11.00010726
Si       6.09514821       5.25830595      11.00010726
Si       3.88194835       4.81704837       0.56931860
Si       7.35746165       0.95334170       0.56931860
Si       8.96577313       5.89507785       0.56931860
Si       9.61374940       4.49512912       8.92249157
Si      11.50541242       6.07818664       8.92249157
Si       9.18861288       6.92488612       8.92249157
Si       7.20338548       1.01067672       3.67814249
Si       8.99315764       5.73297646       3.67814249
Si       4.00864002       4.92181475       3.67814249
Si      10.10259157       5.83273396       2.14237161
Si      10.10259157       5.83273396       6.37033880
20