20
Lattice="5.268203717906782 -2.3180747428257974e-16 -1.0056852062944933e-14 1.169703422176114e-16 2.658342202032757 1.2294505113705922e-11 4.880893229717994e-14 -1.1824967951107236e-10 25.56817948456473" Properties=species:S:1:pos:R:3 unique_starting_index=4 config_type=initial n_minim_iter=1 energy=-3255.487815514632 free_energy=-3255.487815514632 pbc="T T T"
Si       3.70632004       1.52000170      15.93824252
Si       3.70632004       1.13834050       9.62993696
Si       1.97250367       1.13610457      14.05349322
Si       1.97250367       1.52223763      11.51468627
Si       1.56188368       0.19083060      22.41402670
Si       1.56188368       2.46751160       3.15415278
Si       3.29570005       2.46527567      24.29877601
Si       3.29570005       0.19306653       1.26940347
Si       4.06919193       2.44724955       3.51758151
Si       4.06919193       0.21109265      22.05059798
Si       2.57516051       1.53254538      20.58558097
Si       2.57516051       1.12579682       4.98259852
Si       1.19901179       1.11807845       9.26650823
Si       1.19901179       1.54026376      16.30167125
Si       2.69304321       0.20337428      17.76668826
Si       2.69304321       2.45496792       7.80149123
Si       5.81714548       1.67739450      24.38394106
Si       5.81714548       0.98094770       1.18423843
Si      -0.54894176       2.31011880      11.59985132
Si      -0.54894176       0.34822340      13.96832817
20
Lattice="5.26996423943903 -2.318849394057341e-16 -1.0060212848812657e-14 1.1699604094520865e-16 2.6589262476191395 1.229722799056487e-11 4.88221565904369e-14 -1.1828150895654134e-10 25.575106927711637" Properties=species:S:1:pos:R:3 unique_starting_index=4 config_type=initial n_minim_iter=2 stress="0.00031528115956792034 7.154158869535141e-17 5.776573651712478e-16 7.154158869535141e-17 0.0004846492582629984 5.455158076803223e-16 5.776573651712478e-16 5.455158076803223e-16 0.00040595680040086474" pbc="T T T"
Si       3.70744461       1.52035994      15.94264745
Si       3.70744461       1.13856630       9.63245948
Si       1.97314401       1.13632827      14.05726755
Si       1.97314401       1.52259798      11.51783938
Si       1.56251963       0.19089682      22.42001294
Si       1.56251963       2.46802943       3.15509399
Si       3.29682023       2.46579139      24.30539284
Si       3.29682023       0.19313486       1.26971409
Si       4.07060663       2.44791153       3.51846322
Si       4.07060663       0.21101472      22.05664370
Si       2.57597921       1.53275935      20.59115337
Si       2.57597921       1.12616690       4.98395356
Si       1.19935761       1.11844840       9.26909024
Si       1.19935761       1.54047785      16.30601669
Si       2.69398503       0.20329622      17.77150702
Si       2.69398503       2.45563003       7.80359990
Si       5.81911313       1.67770590      24.39054787
Si       5.81911313       0.98122035       1.18455906
Si      -0.54914889       2.31068348      11.60299441
Si      -0.54914889       0.34824277      13.97211252
20
Lattice="5.28295126378329 -2.324563845268587e-16 -1.0085004711383225e-14 1.167214022664245e-16 2.652684634777103 1.2268368545652735e-11 4.881457448180367e-14 -1.1826307055208853e-10 25.571135099087602" Properties=species:S:1:pos:R:3 unique_starting_index=4 config_type=initial n_minim_iter=3 stress="0.0017407040176889955 6.746878719163559e-17 2.876602841309958e-16 6.746878719163559e-17 -0.0014833317034618938 -5.552951061020376e-15 2.876602841309958e-16 -5.552951061020376e-15 -0.0002291260893466956" pbc="T T T"
Si       3.71217879       1.51770300      15.94344544
Si       3.71217879       1.13498163       9.62768966
Si       1.97728206       1.13267277      14.05394093
Si       1.97728206       1.52001187      11.51719417
Si       1.57077247       0.19136068      22.41325721
Si       1.57077247       2.46132395       3.15787789
Si       3.30566920       2.45901508      24.30276172
Si       3.30566920       0.19366955       1.26837338
Si       4.08252535       2.44690312       3.51511547
Si       4.08252535       0.20578151      22.05601963
Si       2.58084486       1.52449767      20.58799192
Si       2.58084486       1.12818697       4.98314318
Si       1.20042592       1.12056081       9.27045208
Si       1.20042592       1.53212383      16.30068302
Si       2.70210641       0.19815535      17.76871073
Si       2.70210641       2.45452929       7.80242437
Si       5.83441325       1.67160991      24.38672772
Si       5.83441325       0.98107473       1.18440738
Si      -0.55146198       2.30741705      11.60116017
Si      -0.55146198       0.34526759      13.96997493
20
Lattice="5.272906659834864 -2.3201440953953237e-16 -1.0065829846220581e-14 1.1686947557784422e-16 2.6560498427886237 1.228394617491777e-11 4.8835412007062863e-14 -1.1831341936728674e-10 25.582050674593276" Properties=species:S:1:pos:R:3 unique_starting_index=4 config_type=initial n_minim_iter=4 stress="1.5722507390122972e-05 -1.0350115490883784e-16 8.708690256367137e-16 -1.0350115490883784e-16 0.00010402550009107406 1.208750558823079e-15 8.708690256367137e-16 1.208750558823079e-15 -0.00017463595164909386" pbc="T T T"
Si       3.69937530       1.52068430      15.95416740
Si       3.69937530       1.13536555       9.62788327
Si       1.97267966       1.13282184      14.05853374
Si       1.97267966       1.52322800      11.52351693
Si       1.57353136       0.19265938      22.41890861
Si       1.57353136       2.46339047       3.16314207
Si       3.30022700       2.46084677      24.31454227
Si       3.30022700       0.19520308       1.26750841
Si       4.07695142       2.45615869       3.51312613
Si       4.07695142       0.19989116      22.06892455
Si       2.57427927       1.52042449      20.59686105
Si       2.57427927       1.13562535       4.98518963
Si       1.19595524       1.12813376       9.27789921
Si       1.19595524       1.52791608      16.30415146
Si       2.69862739       0.19239957      17.77621497
Si       2.69862739       2.46365027       7.80583571
Si       5.82464952       1.67096517      24.39696407
Si       5.82464952       0.98508468       1.18508661
Si      -0.55174286       2.31310960      11.60593873
Si      -0.55174286       0.34294024      13.97611194
20
Lattice="5.266112282020126 -2.317154485188712e-16 -1.005285957092344e-14 1.1670485466513546e-16 2.6523085634925687 1.2266673357058748e-11 4.896881074555687e-14 -1.1863631753820008e-10 25.651930566004545" Properties=species:S:1:pos:R:3 unique_starting_index=4 config_type=initial n_minim_iter=5 stress="-0.0007748250304592065 -2.027211208556001e-17 6.073015436149901e-16 -2.027211208556001e-17 -0.0009561956205049942 -1.3038061904218496e-14 6.073015436149901e-16 -1.3038061904218496e-14 0.0018318300365498437" pbc="T T T"
Si       3.69231921       1.51825404      15.99707025
Si       3.69231921       1.13405452       9.65486032
Si       1.97043256       1.12993615      14.09581995
Si       1.97043256       1.52237241      11.55611061
Si       1.57379308       0.19209976      22.48082560
Si       1.57379308       2.46020880       3.17110496
Si       3.29567972       2.45609043      24.38207590
Si       3.29567972       0.19621813       1.26985467
Si       4.07379352       2.45821677       3.52223594
Si       4.07379352       0.19409179      22.12969463
Si       2.57235155       1.51329824      20.65321127
Si       2.57235155       1.13901032       4.99871930
Si       1.19231876       1.13206249       9.30372935
Si       1.19231876       1.52024607      16.34820122
Si       2.69376073       0.18714396      17.82468458
Si       2.69376073       2.46516460       7.82724599
Si       5.81986015       1.66628985      24.46169555
Si       5.81986015       0.98601871       1.19023501
Si      -0.55374787       2.31217299      11.63573027
Si      -0.55374787       0.34013557      14.01620030
20
Lattice="5.267843756677942 -2.3179163554365293e-16 -1.0056164907128492e-14 1.1701773517990985e-16 2.659419284559543 1.2299624376371673e-11 4.8829037581111295e-14 -1.1829705934148004e-10 25.578711481147057" Properties=species:S:1:pos:R:3 unique_starting_index=4 config_type=initial n_minim_iter=6 stress="-0.0002467373791246682 3.61184357719277e-17 8.075890536410758e-16 3.61184357719277e-17 0.000831614906598777 3.216956424962816e-15 8.075890536410758e-16 3.216956424962816e-15 0.00018964261246345922" pbc="T T T"
Si       3.67885000       1.51943631      15.94522647
Si       3.67885000       1.13998297       9.63348501
Si       1.97321040       1.12433093      14.04881071
Si       1.97321040       1.53508836      11.52990077
Si       1.58899376       0.18972667      22.42284075
Si       1.58899376       2.46969262       3.15587073
Si       3.29463335       2.45404057      24.31925651
Si       3.29463335       0.20537871       1.25945497
Si       4.08956913       2.50331711       3.50937259
Si       4.08956913       0.15610218      22.06933889
Si       2.58381379       1.48306300      20.59522801
Si       2.58381379       1.17635629       4.98348347
Si       1.17827463       1.17360746       9.27998315
Si       1.17827463       1.48581182      16.29872833
Si       2.68402997       0.15335335      17.77283921
Si       2.68402997       2.50606593       7.80587227
Si       5.84128265       1.65441905      24.37888050
Si       5.84128265       1.00500024       1.19983098
Si      -0.57343889       2.33470988      11.58952476
Si      -0.57343889       0.32470940      13.98918672
20
Lattice="5.281983025784992 -2.3241378085833877e-16 -1.008315637239861e-14 1.1662259391934392e-16 2.650439053598322 1.2258136343950323e-11 4.884893725623313e-14 -1.1834484833942677e-10 25.589135771154094" Properties=species:S:1:pos:R:3 unique_starting_index=4 config_type=initial n_minim_iter=7 stress="0.0007972824592918115 1.0031496274767426e-16 5.5253613194442095e-16 1.0031496274767426e-16 -0.0025247504557998272 -8.513503683430251e-15 5.5253613194442095e-16 -8.513503683430251e-15 -0.0007327247887900798" pbc="T T T"
Si       3.68095948       1.50902076      15.95266150
Si       3.68095948       1.14141830       9.63647427
Si       1.97672961       1.11703268      14.05486409
Si       1.97672961       1.53340637      11.53427168
Si       1.60102354       0.18380123      22.43104216
Si       1.60102354       2.46663782       3.15809362
Si       3.30525341       2.44225221      24.32883957
Si       3.30525341       0.20818684       1.26029620
Si       4.10462843       2.51062975       3.51089288
Si       4.10462843       0.13980931      22.07824290
Si       2.59587118       1.46649565      20.60704741
Si       2.59587118       1.18394340       4.98208836
Si       1.17735459       1.18541022       9.28367501
Si       1.17735459       1.46502883      16.30546076
Si       2.68611185       0.14127613      17.77665625
Si       2.68611185       2.50916293       7.81247952
Si       5.86348622       1.64086830      24.38879288
Si       5.86348622       1.00957075       1.20034289
Si      -0.58150319       2.33479028      11.59422499
Si      -0.58150319       0.31564877      13.99491078
20
Lattice="5.274768627900317 -2.320963384355195e-16 -1.0069384290654162e-14 1.1684501511292317e-16 2.6554939387453427 1.2281599659139654e-11 4.8910291955208933e-14 -1.1849267308069936e-10 25.621275952915976" Properties=species:S:1:pos:R:3 unique_starting_index=4 config_type=initial n_minim_iter=8 stress="-0.00021195878681437108 8.17876158238137e-17 8.390550674582749e-16 8.17876158238137e-17 0.0004760080348519379 2.051504721116988e-15 8.390550674582749e-16 2.051504721116988e-15 -1.637238823076816e-05" pbc="T T T"
Si       3.66626735       1.49508486      15.97118871
Si       3.66626735       1.16040908       9.65008724
Si       1.96862989       1.11393087      14.07761504
Si       1.96862989       1.54156307      11.54366091
Si       1.60850128       0.16733789      22.46072522
Si       1.60850128       2.48815605       3.16055074
Si       3.30613874       2.44167784      24.35429889
Si       3.30613874       0.21381610       1.26697706
Si       4.10373107       2.53968666       3.51941028
Si       4.10373107       0.11580728      22.10186567
Si       2.60534232       1.45531804      20.63930961
Si       2.60534232       1.20017590       4.98196635
Si       1.17103756       1.21193969       9.29122770
Si       1.17103756       1.44355425      16.33004826
Si       2.66942631       0.12757107      17.79260432
Si       2.66942631       2.52792287       7.82867163
Si       5.86585472       1.63016580      24.42287458
Si       5.86585472       1.02532814       1.19840137
Si      -0.59108609       2.35307511      11.61223661
Si      -0.59108609       0.30241883      14.00903935
20
Lattice="5.27383961343416 -2.3205546065088805e-16 -1.0067610828284293e-14 1.1653885513727474e-16 2.6485359529139596 1.2249825948273528e-11 4.909250444648356e-14 -1.1893023928662254e-10 25.7167265489846" Properties=species:S:1:pos:R:3 unique_starting_index=4 config_type=initial n_minim_iter=9 stress="0.0005954422289595374 -4.482772882006627e-18 6.405161679356887e-16 -4.482772882006627e-18 0.000735883643135103 -3.1058408382000086e-15 6.405161679356887e-16 -3.1058408382000086e-15 0.0013451524644630477" pbc="T T T"
Si       3.63980956       1.45421144      16.03350424
Si       3.63980956       1.19432451       9.68322231
Si       1.94892874       1.09997090      14.13421856
Si       1.94892874       1.54856505      11.58250799
Si       1.63403006       0.12994346      22.54158558
Si       1.63403006       2.51859249       3.17514097
Si       3.32491087       2.42423887      24.44087126
Si       3.32491087       0.22429708       1.27585528
Si       4.12627965       2.58869336       3.52390085
Si       4.12627965       0.05984259      22.19282570
Si       2.62128655       1.41191948      20.70964219
Si       2.62128655       1.23661647       5.00708436
Si       1.14755996       1.26442539       9.33446243
Si       1.14755996       1.38411057      16.38226412
Si       2.65255306       0.08765151      17.86544764
Si       2.65255306       2.56088445       7.85127891
Si       5.88462380       1.59365413      24.51387502
Si       5.88462380       1.05488182       1.20285153
Si      -0.61078418       2.37914980      11.65551175
Si      -0.61078418       0.26938616      14.06121480
20
Lattice="5.269767133481224 -2.318762664999964e-16 -1.0059836579107713e-14 1.1652427299303443e-16 2.6482045498531837 1.2248586548381834e-11 4.9045308610748383e-14 -1.1881307020075304e-10 25.692003377585277" Properties=species:S:1:pos:R:3 unique_starting_index=4 config_type=initial n_minim_iter=10 stress="-0.00028700039017883676 5.929168455940665e-17 2.3370738129766656e-16 5.929168455940665e-17 -0.0006418357936242514 2.7969021816113587e-16 2.3370738129766656e-16 2.7969021816113587e-16 -0.0007689882929437967" pbc="T T T"
Si       3.63614577       1.42876833      16.01286874
Si       3.63614577       1.21943622       9.67913464
Si       1.93688148       1.09766010      14.12474083
Si       1.93688148       1.55054445      11.56726255
Si       1.63362136       0.10466606      22.52513633
Si       1.63362136       2.54353849       3.16686705
Si       3.33288565       2.42176238      24.41326424
Si       3.33288565       0.22644217       1.27873914
Si       4.13029738       2.60112868       3.52593399
Si       4.13029738       0.04707587      22.16606939
Si       2.63145635       1.40533515      20.68741009
Si       2.63145635       1.24286940       5.00459329
Si       1.13946975       1.27702640       9.32006770
Si       1.13946975       1.37117815      16.37193568
Si       2.63831078       0.08123287      17.85059498
Si       2.63831078       2.56697168       7.84140840
Si       5.88579570       1.58262146      24.49108262
Si       5.88579570       1.06558309       1.20092076
Si      -0.61602857       2.38968536      11.64508093
Si      -0.61602857       0.25851919      14.04692245
20
Lattice="5.257825587206924 -2.313508237060006e-16 -1.0037040504636401e-14 1.1657613691227005e-16 2.649383242183654 1.2254375028573087e-11 4.9099645255058914e-14 -1.1894147531524172e-10 25.7204672060063" Properties=species:S:1:pos:R:3 unique_starting_index=4 config_type=initial n_minim_iter=11 stress="-0.000314069295237901 -9.873979229203618e-17 2.5603060859601704e-16 -9.873979229203618e-17 1.954187809046554e-05 -3.945156668279898e-15 2.5603060859601704e-16 -3.945156668279898e-15 0.0007519209173477857" pbc="T T T"
Si       3.59575455       1.34953287      16.04112554
Si       3.59575455       1.29985037       9.67934167
Si       1.89012673       1.08757949      14.13008120
Si       1.89012673       1.56180376      11.59038600
Si       1.66207104       0.02484125      22.53957527
Si       1.66207104       2.62454199       3.18089194
Si       3.36769886       2.41227111      24.45061961
Si       3.36769886       0.23711213       1.26984760
Si       4.15984631       2.66187726       3.54019757
Si       4.15984631      -0.01249402      22.18026964
Si       2.65268080       1.34776407      20.71049718
Si       2.65268080       1.30161918       5.00997003
Si       1.09797928       1.33718564       9.32003604
Si       1.09797928       1.31219760      16.40043117
Si       2.60514479       0.02307244      17.87020363
Si       2.60514479       2.62631080       7.85026358
Si       5.89297071       1.53594084      24.50805437
Si       5.89297071       1.11344240       1.21241283
Si      -0.63514512       2.43813402      11.64782077
Si      -0.63514512       0.21124922      14.07264643
20
Lattice="5.258851858964239 -2.313959809316381e-16 -1.0038999628427429e-14 1.1663101060101966e-16 2.650630336445489 1.2260262791639472e-11 4.904573333167794e-14 -1.188096862899795e-10 25.692225864340212" Properties=species:S:1:pos:R:3 unique_starting_index=4 config_type=initial n_minim_iter=12 stress="-4.877588196598865e-05 5.61544605124804e-17 -2.279310181898799e-16 5.61544605124804e-17 6.483069925869222e-05 3.383702228551567e-16 -2.279310181898799e-16 3.383702228551567e-16 8.497520901991125e-05" pbc="T T T"
Si       3.58722093       1.32786185      16.02584764
Si       3.58722093       1.32276849       9.66637822
Si       1.87838245       1.08587541      14.11186779
Si       1.87838245       1.56475493      11.58035807
Si       1.67163093       0.00254668      22.51249115
Si       1.67163093       2.64808365       3.17973471
Si       3.38046940       2.41119058      24.42647101
Si       3.38046940       0.23943976       1.26575486
Si       4.17148888       2.67700129       3.54038672
Si       4.17148888      -0.02637096      22.15183915
Si       2.66056541       1.33074446      20.68896080
Si       2.66056541       1.31988588       5.00326506
Si       1.08736298       1.35168613       9.30572621
Si       1.08736298       1.29894421      16.38649965
Si       2.59828645       0.00542929      17.84937799
Si       2.59828645       2.64520105       7.84284787
Si       5.89902681       1.52393825      24.47672690
Si       5.89902681       1.12669209       1.21549897
Si      -0.64017495       2.45200726      11.63061396
Si      -0.64017495       0.19862308      14.06161190
20
Lattice="5.263505836401297 -2.3160076169047377e-16 -1.0047883939873032e-14 1.1669495935341864e-16 2.6520836763609417 1.226717420623853e-11 4.8953226366707295e-14 -1.1858370733118993e-10 25.643766810379745" Properties=species:S:1:pos:R:3 unique_starting_index=4 config_type=initial n_minim_iter=13 stress="0.0005144338827322028 1.5710829519166376e-17 1.4003088518995422e-16 1.5710829519166376e-17 8.36784395747566e-05 5.556884540306556e-15 1.4003088518995422e-16 5.556884540306556e-15 -0.0011533521023007224" pbc="T T T"
Si       3.56834370       1.28289923      15.99692380
Si       3.56834370       1.36918444       9.64684301
Si       1.85428403       1.08345354      14.08466363
Si       1.85428403       1.56863014      11.55910318
Si       1.69516213      -0.04314260      22.46872642
Si       1.69516213       2.69522628       3.17504039
Si       3.40922181       2.40949537      24.38098658
Si       3.40922181       0.24258830       1.26278023
Si       4.19739133       2.70259728       3.54249923
Si       4.19739133      -0.05051360      22.10126758
Si       2.67811663       1.28948503      20.65362389
Si       2.67811663       1.36259865       4.99014292
Si       1.06611451       1.37655544       9.27938418
Si       1.06611451       1.27552823      16.36438263
Si       2.58538921      -0.03655681      17.81202633
Si       2.58538921       2.68864049       7.83174048
Si       5.91302255       1.49842033      24.41927051
Si       5.91302255       1.15366335       1.22449630
Si      -0.64951671       2.47970518      11.59738710
Si      -0.64951671       0.17237849      14.04637971
20
Lattice="5.2661275347548555 -2.3171611965804833e-16 -1.0052888687963124e-14 1.1646711938310244e-16 2.6469056406561577 1.2243494715041291e-11 4.9085969233443255e-14 -1.1890279994338627e-10 25.713303128472823" Properties=species:S:1:pos:R:3 unique_starting_index=4 config_type=initial n_minim_iter=14 stress="-0.00016221132300776813 1.334609272276883e-16 6.508789923237572e-17 1.334609272276883e-16 4.859341347653211e-05 1.2546554091471069e-15 6.508789923237572e-17 1.2546554091471069e-15 -0.00028068553034105344" pbc="T T T"
Si       3.56147344       1.27907620      16.03033945
Si       3.56147344       1.36782944       9.68296368
Si       1.85141674       1.08677463      14.14043459
Si       1.85141674       1.56013101      11.57286854
Si       1.70465409      -0.04437662      22.53961525
Si       1.70465409       2.69128226       3.17368788
Si       3.41471080       2.41022745      24.42952010
Si       3.41471080       0.23667819       1.28378303
Si       4.19790394       2.68282689       3.55273125
Si       4.19790394      -0.03592125      22.16057188
Si       2.67904567       1.27561888      20.71052865
Si       2.67904567       1.37128676       5.00277448
Si       1.06822359       1.35937407       9.30392032
Si       1.06822359       1.28753157      16.40938281
Si       2.58708187      -0.04783394      17.85942604
Si       2.58708187       2.69473958       7.85387709
Si       5.90990020       1.49494491      24.48503724
Si       5.90990020       1.15196073       1.22826588
Si      -0.64377266       2.47541355      11.62838568
Si      -0.64377266       0.17149209      14.08491745
20
Lattice="5.264259417101916 -2.3163392017261057e-16 -1.0049322504140724e-14 1.163005578542048e-16 2.6431202576854753 1.2226179585712564e-11 4.917194265748661e-14 -1.1910930588939803e-10 25.758339637844863" Properties=species:S:1:pos:R:3 unique_starting_index=4 config_type=initial n_minim_iter=15 stress="5.3710854670652446e-05 4.964050565374471e-17 2.061126455498308e-16 4.964050565374471e-17 -0.000523959476709671 -6.9575699047484125e-15 2.061126455498308e-16 -6.9575699047484125e-15 0.0010779103528783423" pbc="T T T"
Si       3.53684767       1.23338089      16.05658235
Si       3.53684767       1.40973937       9.70175729
Si       1.82775300       1.08179004      14.16656875
Si       1.82775300       1.56133022      11.59177089
Si       1.72741175      -0.08817924      22.58092711
Si       1.72741175       2.73129950       3.17741253
Si       3.43650642       2.40335017      24.47094071
Si       3.43650642       0.23977009       1.28739893
Si       4.21854162       2.71137667       3.56618448
Si       4.21854162      -0.06825641      22.19215516
Si       2.69461659       1.23705514      20.74494396
Si       2.69461659       1.40606511       5.01339568
Si       1.04571780       1.38981654       9.31298534
Si       1.04571780       1.25330372      16.44535430
Si       2.56964282      -0.08450498      17.89256550
Si       2.56964282       2.72762524       7.86577414
Si       5.91847303       1.46376439      24.52599278
Si       5.91847303       1.17935586       1.23234686
Si      -0.65421361       2.50091599      11.64682296
Si      -0.65421361       0.14220427      14.11151668
20
Lattice="5.2675304545781145 -2.3177784986406535e-16 -1.005556682227113e-14 1.164278642387592e-16 2.6460135033427212 1.2239757265945913e-11 4.9058899183416955e-14 -1.1883347463092606e-10 25.6991226933525" Properties=species:S:1:pos:R:3 unique_starting_index=4 config_type=initial n_minim_iter=16 stress="0.0005584238637944125 1.5282634783258494e-16 2.517963153578691e-16 1.5282634783258494e-16 0.000871611600900423 5.0131061764071455e-15 2.517963153578691e-16 5.0131061764071455e-15 -0.00017473009281231299" pbc="T T T"
Si       3.54425544       1.25137087      16.01467465
Si       3.54425544       1.39464264       9.68444805
Si       1.83627641       1.09201987      14.13436683
Si       1.83627641       1.55399364      11.56475586
Si       1.72327501      -0.07163589      22.53400939
Si       1.72327501       2.71764939       3.16511330
Si       3.43125405       2.41502662      24.41431721
Si       3.43125405       0.23098688       1.28480549
Si       4.21336559       2.68771598       3.56297510
Si       4.21336559      -0.04170247      22.13614759
Si       2.68633627       1.25671665      20.69401020
Si       2.68633627       1.38929685       5.00511249
Si       1.05416486       1.36470923       9.28658624
Si       1.05416486       1.28130428      16.41253645
Si       2.58119419      -0.06629010      17.85467384
Si       2.58119419       2.71230360       7.84444886
Si       5.90900908       1.47671349      24.47780717
Si       5.90900908       1.16930002       1.22131553
Si      -0.64147862       2.49230677      11.62824582
Si      -0.64147862       0.15370674      14.07087687
20
Lattice="5.264678961912326 -2.3165238066276055e-16 -1.0050123403330986e-14 1.163299298771212e-16 2.6437877849115465 1.222990995051485e-11 4.90673184473255e-14 -1.1884960208507338e-10 25.703533059254912" Properties=species:S:1:pos:R:3 unique_starting_index=4 config_type=initial n_minim_iter=17 stress="-0.0002216704446795038 1.5188362851090602e-16 9.570082642714724e-16 1.5188362851090602e-16 -0.00017083749506591387 1.0046821792643645e-16 9.570082642714724e-16 1.0046821792643645e-16 -7.173493570808251e-05" pbc="T T T"
Si       3.52853231       1.24301562      16.01142069
Si       3.52853231       1.40077217       9.69211237
Si       1.83121691       1.09223198      14.13498426
Si       1.83121691       1.55155581      11.56854880
Si       1.73614666      -0.07887827      22.54387890
Si       1.73614666       2.72266606       3.15965416
Si       3.43346205       2.41412587      24.42031533
Si       3.43346205       0.22966192       1.28321773
Si       4.22169039       2.69986798       3.56841542
Si       4.22169039      -0.05608019      22.13511764
Si       2.68950048       1.23803275      20.69715495
Si       2.68950048       1.40575504       5.00637811
Si       1.04298858       1.37797409       9.28335111
Si       1.04298858       1.26581370      16.42018195
Si       2.57517848      -0.08386115      17.85814464
Si       2.57517848       2.72764893       7.84538842
Si       5.90955509       1.46309930      24.48067882
Si       5.90955509       1.18068848       1.22285424
Si      -0.64487613       2.50258237      11.62891229
Si      -0.64487613       0.14120541      14.07462077
20
Lattice="5.259871784487852 -2.314408589151468e-16 -1.0040946637437507e-14 1.1622183709993112e-16 2.6413311998841444 1.221898445888452e-11 4.902257783294303e-14 -1.1873701654026056e-10 25.680096036461247" Properties=species:S:1:pos:R:3 unique_starting_index=4 config_type=initial n_minim_iter=18 stress="-0.00033765173975646936 1.2740504040623012e-16 2.261909888065422e-16 1.2740504040623012e-16 -0.002131620497160921 -8.792469666350953e-15 2.261909888065422e-16 -8.792469666350953e-15 -0.00011709583752246358" pbc="T T T"
Si       3.50619780       1.21949478      15.98640763
Si       3.50619780       1.42183642       9.69368841
Si       1.80293800       1.11235745      14.12006338
Si       1.80293800       1.52897375      11.56003265
Si       1.75367398      -0.10117082      22.53373643
Si       1.75367398       2.74250202       3.14635961
Si       3.45693378       2.43302305      24.40008067
Si       3.45693378       0.20830815       1.28001537
Si       4.24207266       2.69201650       3.58493676
Si       4.24207266      -0.05068530      22.09515927
Si       2.68492182       1.23282283      20.68163087
Si       2.68492182       1.40850837       4.99846517
Si       1.01779912       1.37135090       9.25511126
Si       1.01779912       1.26998030      16.42498478
Si       2.57494996      -0.08784277      17.83851318
Si       2.57494996       2.72917397       7.84158285
Si       5.88245481       1.44289933      24.45369140
Si       5.88245481       1.19843187       1.22640463
Si      -0.62258302       2.51909747      11.61364339
Si      -0.62258302       0.12223373      14.06645265
20
Lattice="5.251007172670479 -2.3105080503987685e-16 -1.002402434391654e-14 1.16379926679101e-16 2.6449240439507746 1.2235667219086502e-11 4.898086606270023e-14 -1.1863525626862354e-10 25.658245650107958" Properties=species:S:1:pos:R:3 unique_starting_index=4 config_type=initial n_minim_iter=19 stress="-0.0007472263843624786 -3.5984000089614786e-17 -1.0584903922464609e-16 -3.5984000089614786e-17 -0.0001578786185418391 -1.6151519693903502e-15 -1.0584903922464609e-16 -1.6151519693903502e-15 0.00027125589325288" pbc="T T T"
Si       3.46509210       1.23341260      15.93102549
Si       3.46509210       1.41151145       9.72722016
Si       1.77518093       1.15996585      14.11776325
Si       1.77518093       1.48495819      11.54048240
Si       1.78591508      -0.08904942      22.55634298
Si       1.78591508       2.73397347       3.10190267
Si       3.47582625       2.48242787      24.36960523
Si       3.47582625       0.16249617       1.28864042
Si       4.27184294       2.70284999       3.60870330
Si       4.27184294      -0.05792594      22.04954235
Si       2.67274081       1.24689838      20.67460962
Si       2.67274081       1.39802566       4.98363603
Si       0.97916423       1.38038796       9.22041953
Si       0.97916423       1.26453608      16.43782612