8
Lattice="7.009351460896818 0.0 0.0 0.0 2.6153614178395284 -2.0682524139850578e-12 0.0 5.623009618802316e-12 7.1104485650378555" Properties=species:S:1:pos:R:3 unique_starting_index=2 config_type=initial n_minim_iter=1 energy=-1301.345350788478 free_energy=-1301.345350788478 pbc="T T T"
Si       3.71725909       0.83951228       5.15494022
Si       3.29209237       0.83951228       1.95550834
Si       5.11372609       1.79398392       3.37253012
Si       1.89562537       1.79398392       3.73791844
Si       6.79676810       1.77584914       1.59971594
Si       0.21258336       1.77584914       5.51073263
Si       5.40030110       0.82137750       6.92775440
Si       1.60905036       0.82137750       0.18269416
8
Lattice="7.146338402744808 0.0 0.0 0.0 2.52994413990897 -2.0007036270101973e-12 0.0 5.498901776598062e-12 6.953510823803981" Properties=species:S:1:pos:R:3 unique_starting_index=2 config_type=initial n_minim_iter=2 stress="0.0019999350648251565 -9.159438669376094e-17 -6.438928081768094e-16 -9.159438669376094e-17 -0.01736315277536409 8.202492584893967e-15 -6.438928081768094e-16 8.202492584893967e-15 -0.007723999154841802" pbc="T T T"
Si       3.73267603       0.79915734       5.08981164
Si       3.41366237       0.79915734       1.86369918
Si       5.25986505       1.74424093       3.32398113
Si       1.88647335       1.74424093       3.62952970
Si       6.98683157       1.73078680       1.61305623
Si       0.15950683       1.73078680       5.34045459
Si       5.45964255       0.78570321       6.80073654
Si       1.68669585       0.78570321       0.15277428
8
Lattice="7.254757804633078 0.0 0.0 0.0 2.5301247338745845 -2.0008464424171944e-12 0.0 5.458961678921101e-12 6.9030054842319135" Properties=species:S:1:pos:R:3 unique_starting_index=2 config_type=initial n_minim_iter=3 stress="0.019146208977530735 1.527887512585038e-17 -3.877219924409344e-16 1.527887512585038e-17 -0.00682742805326318 6.587967555776446e-15 -3.877219924409344e-16 6.587967555776446e-15 0.0015705111357706704" pbc="T T T"
Si       3.72594262       0.78668533       5.10123267
Si       3.52881519       0.78668533       1.80177281
Si       5.38666952       1.75276764       3.33020550
Si       1.86808828       1.75276764       3.57279999
Si       7.15619409       1.74343941       1.64972993
Si       0.09856371       1.74343941       5.25327555
Si       5.49546719       0.77735710       6.78170824
Si       1.75929062       0.77735710       0.12129725
8
Lattice="7.13665594157815 0.0 0.0 0.0 2.5310423144572027 -2.0015720737743295e-12 0.0 5.378116604395147e-12 6.800774689137545" Properties=species:S:1:pos:R:3 unique_starting_index=2 config_type=initial n_minim_iter=4 stress="0.0035668704844931606 -1.878710832368868e-16 -2.6407014856658022e-17 -1.878710832368868e-16 -0.012647116551774291 -1.5626221963020874e-15 -2.6407014856658022e-17 -1.5626221963020874e-15 -0.014704481436365371" pbc="T T T"
Si       3.60065724       0.77536576       5.07081996
Si       3.53599870       0.77536576       1.72995473
Si       5.34225107       1.76090104       3.31428199
Si       1.79440487       1.76090104       3.48649270
Si       7.10432667       1.75567655       1.67043262
Si       0.03232927       1.75567655       5.13034207
Si       5.36273284       0.77014128       6.71466933
Si       1.77392310       0.77014128       0.08610536
8
Lattice="6.993940669574516 0.0 0.0 0.0 2.5742495828903 -2.0357407881359084e-12 0.0 5.471637777323329e-12 6.919034755352671" Properties=species:S:1:pos:R:3 unique_starting_index=2 config_type=initial n_minim_iter=5 stress="0.0007505608289056402 -2.5854163739026024e-16 4.997564174971621e-16 -2.5854163739026024e-16 0.005134229304959704 -6.491042142132412e-15 4.997564174971621e-16 -6.491042142132412e-15 -0.003332782382303774" pbc="T T T"
Si       3.49747237       0.78484762       5.17251047
Si       3.49646830       0.78484762       1.74652428
Si       5.24654918       1.79298435       3.39268846
Si       1.74739149       1.79298435       3.52634629
Si       6.99343863       1.78940196       1.71299310
Si       0.00050204       1.78940196       5.20604166
Si       5.24436182       0.78126523       6.85220584
Si       1.74957885       0.78126523       0.06682891
8
Lattice="6.9244055288869335 0.0 0.0 0.0 2.5764559021595534 -2.0374855661706114e-12 0.0 5.556900538069557e-12 7.0268518347992295" Properties=species:S:1:pos:R:3 unique_starting_index=2 config_type=initial n_minim_iter=6 stress="0.002174321413688163 -2.9363622425526624e-17 1.4124497408244893e-16 -2.9363622425526624e-17 0.00610323525317337 1.9146168081745152e-15 1.4124497408244893e-16 1.9146168081745152e-15 0.008622057678533135" pbc="T T T"
Si       3.47209022       0.78988094       5.23405333
Si       3.45231531       0.78988094       1.79279851
Si       5.17604315       1.79115639       3.44534116
Si       1.74836238       1.79115639       3.58151067
Si       6.91451808       1.78657497       1.72062741
Si       0.00988745       1.78657497       5.30622442
Si       5.21056514       0.78529951       6.95876708
Si       1.71384039       0.78529951       0.06808475
8
Lattice="6.862393080601877 0.0 0.0 0.0 2.566307082201764 -2.029459783870077e-12 0.0 5.570210584976551e-12 7.043682751042724" Properties=species:S:1:pos:R:3 unique_starting_index=2 config_type=initial n_minim_iter=7 stress="-0.003337855813815754 -4.279250221536754e-17 7.557911053037708e-17 -4.279250221536754e-17 -0.0009521188769804098 6.327374893744624e-15 7.557911053037708e-17 6.327374893744624e-15 0.007587958388709652" pbc="T T T"
Si       3.42754888       0.78810482       5.23751398
Si       3.43484420       0.78810482       1.80616877
Si       5.12011100       1.78239952       3.46985482
Si       1.74228208       1.78239952       3.57382793
Si       6.86604074       1.77820226       1.71567260
Si      -0.00364766       1.77820226       5.32801015
Si       5.17347862       0.78390756       6.99169620
Si       1.68891446       0.78390756       0.05198655
8
Lattice="6.8624540684551745 0.0 0.0 0.0 2.5754478291609866 -2.0366883725596118e-12 0.0 5.5147102160824515e-12 6.973501025398412" Properties=species:S:1:pos:R:3 unique_starting_index=2 config_type=initial n_minim_iter=8 stress="-0.00473214479539572 -7.769378098325909e-17 -3.632747259380285e-17 -7.769378098325909e-17 -0.0030887023318956776 3.8050370893247506e-15 -3.632747259380285e-17 3.8050370893247506e-15 0.001686679091384306" pbc="T T T"
Si       3.41982675       0.79449416       5.16604578
Si       3.44262732       0.79449416       1.80745524
Si       5.10114637       1.78519553       3.45293914
Si       1.76130770       1.78519553       3.52056188
Si       6.87385435       1.78095367       1.67929527
Si      -0.01140028       1.78095367       5.29420575
Si       5.19253473       0.79025230       6.93968965
Si       1.66991934       0.79025230       0.03381137
8
Lattice="6.904246029647692 0.0 0.0 0.0 2.5813335958333714 -2.04134289221616e-12 0.0 5.478562970513718e-12 6.927791850453234" Properties=species:S:1:pos:R:3 unique_starting_index=2 config_type=initial n_minim_iter=9 stress="-0.0014414537608318204 -2.594184284816894e-16 2.222984388776695e-16 -2.594184284816894e-16 -0.0011028180568989337 9.591098600780528e-16 2.222984388776695e-16 9.591098600780528e-16 -0.0002803009743966593" pbc="T T T"
Si       3.43088709       0.79567225       5.13149474
Si       3.47335894       0.79567225       1.79629711
Si       5.13107504       1.78930484       3.44220393
Si       1.77317099       1.78930484       3.48558792
Si       6.92548195       1.78566134       1.66759881
Si      -0.02123592       1.78566134       5.26019304
Si       5.22529400       0.79202876       6.90609985
Si       1.67895203       0.79202876       0.02169200
8
Lattice="6.920621262918619 0.0 0.0 0.0 2.5847146727846186 -2.0440166796776503e-12 0.0 5.468777612178242e-12 6.915417998752499" Properties=species:S:1:pos:R:3 unique_starting_index=2 config_type=initial n_minim_iter=10 stress="0.0003824640998855299 1.846604743376306e-16 2.322700058060583e-16 1.846604743376306e-16 0.00017385052023738634 -3.2585446314297597e-16 2.322700058060583e-16 -3.2585446314297597e-16 -9.810837791098178e-05" pbc="T T T"
Si       3.44099945       0.79686699       5.12006459
Si       3.47962182       0.79686699       1.79535341
Si       5.14114272       1.79149165       3.43821990
Si       1.77947854       1.79149165       3.47719810
Si       6.93993245       1.78784768       1.66235559
Si      -0.01931119       1.78784768       5.25306241
Si       5.23978918       0.79322302       6.89592890
Si       1.68083209       0.79322302       0.01948910
8
Lattice="6.950024465266342 0.0 0.0 0.0 2.5899400633213494 -2.0481489676734458e-12 0.0 5.451004616096421e-12 6.892943561919979" Properties=species:S:1:pos:R:3 unique_starting_index=2 config_type=initial n_minim_iter=11 stress="0.0036412624551595742 -1.174993677910003e-16 1.0592279990297694e-16 -1.174993677910003e-16 0.0025467611848162147 -2.320730918533248e-15 1.0592279990297694e-16 -2.320730918533248e-15 0.00014930685407200697" pbc="T T T"
Si       3.46202189       0.79677292       5.10188052
Si       3.48800257       0.79677292       1.79106304
Si       5.16182826       1.79633095       3.43717558
Si       1.78819620       1.79633095       3.45576798
Si       6.96301481       1.79316715       1.65540874
Si      -0.01299034       1.79316715       5.23753482
Si       5.26320844       0.79360911       6.88364736
Si       1.68681603       0.79360911       0.00929620
8
Lattice="6.910317747241066 0.0 0.0 0.0 2.5848131731575825 -2.044094574699259e-12 0.0 5.467520406219629e-12 6.913828227631622" Properties=species:S:1:pos:R:3 unique_starting_index=2 config_type=initial n_minim_iter=12 stress="-0.0003247254162133998 -9.993056791629647e-17 3.5287191650032396e-16 -9.993056791629647e-17 -0.00017245247623652425 -3.293845149668715e-16 3.5287191650032396e-16 -3.293845149668715e-16 -0.00034715359440535735" pbc="T T T"
Si       3.45710195       0.79171544       5.11780045
Si       3.45321579       0.79171544       1.79602778
Si       5.13356688       1.79560975       3.45762493
Si       1.77675087       1.79560975       3.45620330
Si       6.90837467       1.79309774       1.66088634
Si       0.00194308       1.79309774       5.25294189
Si       5.23190974       0.78920342       6.91453904
Si       1.67840801       0.78920342      -0.00071082
8
Lattice="6.911652010360214 0.0 0.0 0.0 2.5837841966456883 -2.0432808503932636e-12 0.0 5.470231537071882e-12 6.917256526315938" Properties=species:S:1:pos:R:3 unique_starting_index=2 config_type=initial n_minim_iter=13 stress="-8.444058285203988e-05 5.193362846409051e-16 1.0548711092291708e-16 5.193362846409051e-16 -4.864227141665592e-05 -1.6814630384944413e-16 1.0548711092291708e-16 -1.6814630384944413e-16 -5.436196491889518e-06" pbc="T T T"
Si       3.45654976       0.79053415       5.12227012
Si       3.45510225       0.79053415       1.79498640
Si       5.13643416       1.79557997       3.45988556
Si       1.77521785       1.79557997       3.45737097
Si       6.91092825       1.79325005       1.66364186
Si       0.00072376       1.79325005       5.25361466
Si       5.23104385       0.78820422       6.91851382
Si       1.68060816       0.78820422      -0.00125729
8
Lattice="6.925257011473503 0.0 0.0 0.0 2.5847463502474044 -2.0440417305132364e-12 0.0 5.468076175006576e-12 6.914531012375299" Properties=species:S:1:pos:R:3 unique_starting_index=2 config_type=initial n_minim_iter=14 stress="0.002266802970687717 -2.6021483163994653e-16 -5.509557810926585e-16 -2.6021483163994653e-16 0.0005615620183961033 3.9823058629180816e-16 -5.509557810926585e-16 3.9823058629180816e-16 0.0013605874226640252" pbc="T T T"
Si       3.46944138       0.78175904       5.11845190
Si       3.45581563       0.78175904       1.79607912
Si       5.14612692       1.80386401       3.46342251
Si       1.77913009       1.80386401       3.45110850
Si       6.91844414       1.80298731       1.66118639
Si       0.00681288       1.80298731       5.25334462
Si       5.24175859       0.78088234       6.92068802
Si       1.68349842       0.78088234      -0.00615701
8
Lattice="6.903521430008677 0.0 0.0 0.0 2.6154670727186695 -2.0683359668574604e-12 0.0 5.430135851756234e-12 6.86655444194398" Properties=species:S:1:pos:R:3 unique_starting_index=2 config_type=initial n_minim_iter=15 stress="0.008563932393988245 1.645077798540609e-16 -3.6524015184438916e-16 1.645077798540609e-16 0.002962878055206286 2.63230462120447e-15 -3.6524015184438916e-16 2.63230462120447e-15 0.006070625463443123" pbc="T T T"
Si       3.48377112       0.66737321       5.05237270
Si       3.41975031       0.66737321       1.81418174
Si       5.11621166       1.93010412       3.46395288
Si       1.78730977       1.93010412       3.40260156
Si       6.87151103       1.94809386       1.61909548
Si       0.03201040       1.94809386       5.24745896
Si       5.23907048       0.68536295       6.89723010
Si       1.66445095       0.68536295      -0.03067566
8
Lattice="6.894050351510819 0.0 0.0 0.0 2.620840924930665 -2.0725856597427506e-12 0.0 5.422929529692031e-12 6.857441851737969" Properties=species:S:1:pos:R:3 unique_starting_index=2 config_type=initial n_minim_iter=16 stress="0.008108633885875152 -4.419354124178185e-17 1.308235226875367e-16 -4.419354124178185e-17 0.0030793427247274596 2.5237809676179438e-15 1.308235226875367e-16 2.5237809676179438e-15 0.005742722634305086" pbc="T T T"
Si       3.48004541       0.64810914       5.04067031
Si       3.41400495       0.64810914       1.81677154
Si       5.10690550       1.95165133       3.46057197
Si       1.78714485       1.95165133       3.39686988
Si       6.86103012       1.97273178       1.61194939
Si       0.03302023       1.97273178       5.24549247
Si       5.23417003       0.66918960       6.88929289
Si       1.65988033       0.66918960      -0.03185104
8
Lattice="6.84576932079944 0.0 0.0 0.0 2.624247323272848 -2.075279471598411e-12 0.0 5.416098077999984e-12 6.848803295311101" Properties=species:S:1:pos:R:3 unique_starting_index=2 config_type=initial n_minim_iter=17 stress="0.0028873466020812827 1.7744482027353513e-16 -2.518223715473495e-16 1.7744482027353513e-16 0.002021740909898514 3.513663481593732e-16 -2.518223715473495e-16 3.513663481593732e-16 0.0028209482740808073" pbc="T T T"
Si       3.43127943       0.64027714       5.03329236
Si       3.41448989       0.64027714       1.81551093
Si       5.07060892       1.96227294       3.43385040
Si       1.77516040       1.96227294       3.41495289
Si       6.83737455       1.98397018       1.60889071
Si       0.00839477       1.98397018       5.23991258
Si       5.19804506       0.66197438       6.85825205
Si       1.64772426       0.66197438      -0.00944875
8
Lattice="6.82902982240813 0.0 0.0 0.0 2.622272987607633 -2.0737181483802337e-12 0.0 5.406206822031205e-12 6.836295533173463" Properties=species:S:1:pos:R:3 unique_starting_index=2 config_type=initial n_minim_iter=18 stress="-0.0002044274659717923 -5.188731602218955e-17 -1.4323301051868498e-16 -5.188731602218955e-17 -0.0008506031120227984 8.26055301833243e-16 -1.4323301051868498e-16 8.26055301833243e-16 -5.3645148670851724e-06" pbc="T T T"
Si       3.41306836       0.64546191       5.02287148
Si       3.41596146       0.64546191       1.81342405
Si       5.05624719       1.95673463       3.41671644
Si       1.77278263       1.95673463       3.41957909
Si       6.83047638       1.97681108       1.60472371
Si      -0.00144655       1.97681108       5.23157182
Si       5.18729754       0.66553836       6.83486421
Si       1.64173228       0.66553836       0.00143133
8
Lattice="6.829293899055698 0.0 0.0 0.0 2.6245031971987958 -2.075481819106257e-12 0.0 5.404374915273983e-12 6.833979037265362" Properties=species:S:1:pos:R:3 unique_starting_index=2 config_type=initial n_minim_iter=19 stress="6.121919325847659e-05 7.688711157087595e-17 -1.2820419552318188e-17 7.688711157087595e-17 -0.00017546932236874057 2.6777552067650463e-16 -1.2820419552318188e-17 2.6777552067650463e-16 0.00011892989491391501" pbc="T T T"
Si       3.41428889       0.64641248       5.02086479
Si       3.41500501       0.64641248       1.81311425
Si       5.05619911       1.95837631       3.41671739
Si       1.77309479       1.95837631       3.41726164
Si       6.82965195       1.97809072       1.60387527
Si      -0.00035806       1.97809072       5.23010376
Si       5.18774174       0.66612689       6.83370691
Si       1.64155216       0.66612689       0.00027213
8
Lattice="6.828187522379375 0.0 0.0 0.0 2.6262923160063245 -2.0768966710908966e-12 0.0 5.4020928470419546e-12 6.831093299931484" Properties=species:S:1:pos:R:3 unique_starting_index=2 config_type=initial n_minim_iter=20 stress="5.202546483650627e-05 -1.2369211500813228e-16 9.778736305348974e-17 -1.2369211500813228e-16 0.0001424356796119304 1.3770279087514162e-16 9.778736305348974e-17 1.3770279087514162e-16 2.092643219033517e-05" pbc="T T T"
Si       3.41431385       0.64783209       5.01820188
Si       3.41387367       0.64783209       1.81289142
Si       5.05490487       1.95956587       3.41564395
Si       1.77328265       1.95956587       3.41544935
Si       6.82796743       1.97846023       1.60265523
Si       0.00022009       1.97846023       5.22843807
Si       5.18737641       0.66672644       6.83119060
Si       1.64081111       0.66672644      -0.00009730
8
Lattice="6.825643161971698 0.0 0.0 0.0 2.628949722534794 -2.0789981731739197e-12 0.0 5.398262903040006e-12 6.826250231596376" Properties=species:S:1:pos:R:3 unique_starting_index=2 config_type=initial n_minim_iter=21 stress="-0.00010210940524157387 -1.3553667229243986e-16 -3.736977106856232e-17 -1.3553667229243986e-16 0.0004575287885776309 -2.230476436225844e-16 -3.736977106856232e-17 -2.230476436225844e-16 -0.00023882861181641338" pbc="T T T"
Si       3.41377483       0.65119183       5.01348728
Si       3.41186833       0.65119183       1.81276295
Si       5.05218311       1.96195500       3.41346939
Si       1.77346005       1.96195500       3.41278084
Si       6.82468992       1.97775790       1.60036217
Si       0.00095325       1.97775790       5.22588807
Si       5.18628163       0.66699472       6.82659451
Si       1.63936153       0.66699472      -0.00034428
