24
Lattice="7.976879809819276 -1.3791694443902392e-11 1.627109346275223e-14 3.988439904921581 6.908180558231781 -3.805590344497824e-14 3.988439904913594 2.3027268527394167 13.39147323386972" Properties=species:S:1:pos:R:3 unique_starting_index=24 config_type=initial n_minim_iter=1 energy=-3957.1728418129214 free_energy=-3957.1728418129214 pbc="T T T"
Si       8.88238686       3.86868705      13.59916368
Si       8.16218413       5.75802915      13.59916368
Si       6.88606724       4.18964424      13.59916368
Si       9.07972382       4.77861463      10.67349524
Si       7.27549525       5.47396417      10.67349524
Si       7.57541917       3.56378162      10.67349524
Si       9.55745368       3.74597715       2.30730711
Si       7.93092061       6.40400911       2.30730711
Si       6.44226395       3.66637417       2.30730711
Si       8.93307359       5.19193826       3.48609909
Si       6.99087160       5.14029954       3.48609909
Si       8.00669304       3.48412264       3.48609909
Si       8.62494027       6.38362941       9.62349187
Si       6.11290346       4.27760267       9.62349187
Si       9.19279451       3.15512835       9.62349187
Si      10.72564763       3.69994906      10.70407900
Si       7.38668513       7.43870879      10.70407900
Si       5.81830547       2.67770258      10.70407900
Si       8.70658619       8.35790400       9.62284873
Si       4.36230854       3.36117282       9.62284873
Si      10.86174350       2.09728361       9.62284873
Si       4.56799246       1.32898688       2.31174644
Si       4.54194639       3.29150408       2.31174644
Si       2.85537967       2.28768892       2.31174644
24
Lattice="7.976949186614891 -1.3797229920510005e-11 1.628271118620852e-14 3.988474593319392 6.908240640299215 -3.80489271490031e-14 3.988474593311404 2.302746880095226 13.391583515859011" Properties=species:S:1:pos:R:3 unique_starting_index=24 config_type=initial n_minim_iter=2 stress="0.0001857902370130359 9.42529795549359e-17 8.488597853412313e-16 9.42529795549359e-17 0.00018579023701723388 -1.110660035715142e-15 8.488597853412313e-16 -1.110660035715142e-15 6.441497666355802e-05" pbc="T T T"
Si       8.88246210       3.86872104      13.59927615
Si       8.16225583       5.75807731      13.59927615
Si       6.88612844       4.18968225      13.59927615
Si       9.07980240       4.77865460      10.67358870
Si       7.27556009       5.47401224      10.67358870
Si       7.57548387       3.56381375      10.67358870
Si       9.55754230       3.74600906       2.30732209
Si       7.93098742       6.40406990       2.30732209
Si       6.44231665       3.66640163       2.30732209
Si       8.93315236       5.19198140       3.48613340
Si       6.99093361       5.14034618       3.48613340
Si       8.00676040       3.48415301       3.48613340
Si       8.62501610       6.38368012       9.62356693
Si       6.11296038       4.27764299       9.62356693
Si       9.19286990       3.15515749       9.62356693
Si      10.72573836       3.69998205      10.70416676
Si       7.38674995       7.43877087      10.70416676
Si       5.81835806       2.67772768      10.70416676
Si       8.70666389       8.35797652       9.62292619
Si       4.36234565       3.36120385       9.62292619
Si      10.86183683       2.09730023       9.62292619
Si       4.56803012       1.32900503       2.31176422
Si       4.54198122       3.29152761       2.31176422
Si       2.85541125       2.28770731       2.31176422
24
Lattice="7.976773359109795 -1.384177271849931e-11 1.62887135460988e-14 3.9883866795668825 6.908088369213091 -3.8047398535230374e-14 3.988386679558869 2.3026961230665037 13.392069928457598" Properties=species:S:1:pos:R:3 unique_starting_index=24 config_type=initial n_minim_iter=3 stress="-5.027872139764573e-05 -3.565543425357508e-17 -4.078936545147908e-17 -3.565543425357508e-17 -5.027872139888058e-05 -1.1385644274890126e-15 -4.078936545147908e-17 -1.1385644274890126e-15 0.00021137146441721385" pbc="T T T"
Si       8.88224148       3.86864051      13.59977576
Si       8.16208422       5.75792651      13.59977576
Si       6.88599318       4.18960903      13.59977576
Si       9.07959352       4.77852778      10.67403854
Si       7.27542271       5.47389476      10.67403854
Si       7.57530265       3.56375351      10.67403854
Si       9.55739387       3.74591838       2.30736260
Si       7.93078851       6.40398669       2.30736260
Si       6.44213651       3.66627098       2.30736260
Si       8.93296377       5.19184140       3.48632167
Si       6.99079749       5.14025286       3.48632167
Si       8.00655762       3.48408179       3.48632167
Si       8.62483137       6.38348350       9.62387278
Si       6.11287136       4.27758132       9.62387278
Si       9.19261615       3.15511123       9.62387278
Si      10.72547031       3.69990615      10.70454507
Si       7.38659805       7.43857668      10.70454507
Si       5.81825052       2.67769322      10.70454507
Si       8.70649005       8.35779242       9.62325912
Si       4.36224034       3.36114535       9.62325912
Si      10.86158849       2.09723827       9.62325912
Si       4.56790338       1.32905197       2.31183283
Si       4.54182811       3.29139439       2.31183283
Si       2.85542735       2.28764133       2.31183283
24
Lattice="7.97686557787215 -1.3873847695139803e-11 1.6292563439633345e-14 3.988432788948087 6.908168233003975 -3.806027542733198e-14 3.988432788940055 2.3027227443301213 13.390986090591651" Properties=species:S:1:pos:R:3 unique_starting_index=24 config_type=initial n_minim_iter=4 stress="6.92187593280861e-06 -1.9829780285432663e-16 -1.6716895959896988e-15 -1.9829780285432663e-16 6.921875926742322e-06 -2.532088886478069e-15 -1.6716895959896988e-15 -2.532088886478069e-15 -2.7648718306855166e-05" pbc="T T T"
Si       8.88232586       3.86868729      13.59867970
Si       8.16218595       5.75797620      13.59867970
Si       6.88608372       4.18967229      13.59867970
Si       9.07969873       4.77857255      10.67322451
Si       7.27551578       5.47396349      10.67322451
Si       7.57538104       3.56379975      10.67322451
Si       9.55753828       3.74596102       2.30715524
Si       7.93086382       6.40409044       2.30715524
Si       6.44219345       3.66628432       2.30715524
Si       8.93307377       5.19188731       3.48607560
Si       6.99088718       5.14032517       3.48607560
Si       8.00663459       3.48412331       3.48607560
Si       8.62493179       6.38351299       9.62306299
Si       6.11298005       4.27765355       9.62306299
Si       9.19268369       3.15516924       9.62306299
Si      10.72557431       3.69994310      10.70366352
Si       7.38669849       7.43864827      10.70366352
Si       5.81832274       2.67774441      10.70366352
Si       8.70660634       8.35788370       9.62247069
Si       4.36228758       3.36120042       9.62247069
Si      10.86170161       2.09725166       9.62247069
Si       4.56794679       1.32911275       2.31163158
Si       4.54184599       3.29140159       2.31163158
Si       2.85550440       2.28765321       2.31163158
24
Lattice="7.976771597690066 -1.391683181767054e-11 1.629209077656768e-14 3.988385798857082 6.908086843778811 -3.806065774517494e-14 3.988385798849025 2.3026956145883872 13.391024247788653" Properties=species:S:1:pos:R:3 unique_starting_index=24 config_type=initial n_minim_iter=5 stress="2.4285965341533293e-06 7.088014415328097e-16 1.0090941770707627e-15 7.088014415328097e-16 2.42859652663531e-06 1.1864920118526091e-17 1.0090941770707627e-15 1.1864920118526091e-17 -1.1518146178446433e-05" pbc="T T T"
Si       8.88216738       3.86863688      13.59873552
Si       8.16212089       5.75786415      13.59873552
Si       6.88602533       4.18967197      13.59873552
Si       9.07959484       4.77851616      10.67342529
Si       7.27542860       5.47390171      10.67342529
Si       7.57529016       3.56375513      10.67342529
Si       9.55743376       3.74591598       2.30721626
Si       7.93076712       6.40402244       2.30721626
Si       6.44211272       3.66623458       2.30721626
Si       8.93294512       5.19182626       3.48611410
Si       6.99081641       5.14024427       3.48611410
Si       8.00655207       3.48410247       3.48611410
Si       8.62483756       6.38335417       9.62296774
Si       6.11297675       4.27765135       9.62296774
Si       9.19249929       3.15516748       9.62296774
Si      10.72539556       3.69985533      10.70363601
Si       7.38667591       7.43853736      10.70363601
Si       5.81824212       2.67778031      10.70363601
Si       8.70650641       8.35775561       9.62243642
Si       4.36226052       3.36117793       9.62243642
Si      10.86154667       2.09723947       9.62243642
Si       4.56794912       1.32906470       2.31161009
Si       4.54179245       3.29142763       2.31161009
Si       2.85541463       2.28759383       2.31161009
24
Lattice="7.976658399498861 -1.3950071289487063e-11 1.6291952507126053e-14 3.988329199761509 6.9079888112695516 -3.806012684776251e-14 3.988329199753433 2.3026629370852896 13.391438359059403" Properties=species:S:1:pos:R:3 unique_starting_index=24 config_type=initial n_minim_iter=6 stress="3.738191126304366e-06 1.0966759869914295e-15 1.558708484117552e-15 1.0966759869914295e-15 3.7381911247973956e-06 8.612142248732665e-16 1.558708484117552e-15 8.612142248732665e-16 -4.6510390762884985e-06" pbc="T T T"
Si       8.88200379       3.86855624      13.59918344
Si       8.16204613       5.75776279      13.59918344
Si       6.88592409       4.18965790      13.59918344
Si       9.07945774       4.77843981      10.67384327
Si       7.27533687       5.47382115      10.67384327
Si       7.57517939       3.56371598      10.67384327
Si       9.55728700       3.74587822       2.30735109
Si       7.93064681       6.40391422       2.30735109
Si       6.44204020       3.66618449       2.30735109
Si       8.93285146       5.19179747       3.48626074
Si       6.99066177       5.14017756       3.48626074
Si       8.00646077       3.48400190       3.48626074
Si       8.62465093       6.38313226       9.62322297
Si       6.11303585       4.27760067       9.62322297
Si       9.19228723       3.15524400       9.62322297
Si      10.72523450       3.69976739      10.70390998
Si       7.38660621       7.43844184      10.70390998
Si       5.81813330       2.67776771      10.70390998
Si       8.70641505       8.35764267       9.62263872
Si       4.36217761       3.36115527       9.62263872
Si      10.86138135       2.09717899       9.62263872
Si       4.56795174       1.32903747       2.31165863
Si       4.54170152       3.29144351       2.31165863
Si       2.85533315       2.28750714       2.31165863
24
Lattice="7.976463790043095 -1.3985966273111571e-11 1.629056122597942e-14 3.9882318950336564 6.907820274537026 -3.805922367953265e-14 3.9882318950255606 2.3026067581744356 13.391997818649884" Properties=species:S:1:pos:R:3 unique_starting_index=24 config_type=initial n_minim_iter=7 stress="-1.3581586080578767e-06 2.6331166125727e-15 1.0952919537949011e-15 2.6331166125727e-15 -1.3581586027882581e-06 1.7153572888362008e-15 1.0952919537949011e-15 1.7153572888362008e-15 1.3133334631680395e-05" pbc="T T T"
Si       8.88176354       3.86840755      13.59979012
Si       8.16190580       5.75762908      13.59979012
Si       6.88572084       4.18960323      13.59979012
Si       9.07930066       4.77834967      10.67438008
Si       7.27510426       5.47373019      10.67438008
Si       7.57498526       3.56356001      10.67438008
Si       9.55705090       3.74581187       2.30751149
Si       7.93043310       6.40374293       2.30751149
Si       6.44190618       3.66608506       2.30751149
Si       8.93265886       5.19170685       3.48647412
Si       6.99044733       5.14005607       3.48647412
Si       8.00628399       3.48387694       3.48647412
Si       8.62435088       6.38292093       9.62359222
Si       6.11297967       4.27744649       9.62359222
Si       9.19205963       3.15527245       9.62359222
Si      10.72499251       3.69962615      10.70428582
Si       7.38646030       7.43830290      10.70428582
Si       5.81793737       2.67771082      10.70428582
Si       8.70624519       8.35738080       9.62291044
Si       4.36210011       3.36113911       9.62291044
Si      10.86104488       2.09711996       9.62291044
Si       4.56790920       1.32903527       2.31172844
Si       4.54153009       3.29140778       2.31172844
Si       2.85525520       2.28737654       2.31172844
24
Lattice="7.976196853124481 -1.4044742776500592e-11 1.62900377055327e-14 3.9880984265744 6.907589100384269 -3.80586855835237e-14 3.9880984265662707 2.302529700123497 13.392355964647933" Properties=species:S:1:pos:R:3 unique_starting_index=24 config_type=initial n_minim_iter=8 stress="-1.531656164281884e-06 3.004791816959519e-15 -1.4834375194292019e-15 3.004791816959519e-15 -1.5316561545800038e-06 4.268359983612648e-15 -1.4834375194292019e-15 4.268359983612648e-15 2.1878388890014642e-05" pbc="T T T"
Si       8.88144899       3.86815855      13.60022662
Si       8.16174485       5.75748117      13.60022662
Si       6.88539553       4.18953780      13.60022662
Si       9.07902563       4.77829532      10.67481953
Si       7.27475496       5.47351917      10.67481953
Si       7.57480878       3.56336302      10.67481953
Si       9.55675815       3.74571898       2.30766538
Si       7.93012605       6.40353585       2.30766538
Si       6.44170517       3.66592269       2.30766538
Si       8.93237210       5.19156568       3.48670910
Si       6.99017909       5.13987832       3.48670910
Si       8.00603817       3.48373351       3.48670910
Si       8.62394460       6.38263889       9.62377447
Si       6.11289319       4.27723566       9.62377447
Si       9.19175157       3.15530297       9.62377447
Si      10.72476873       3.69942250      10.70449068
Si       7.38621468       7.43821093      10.70449068
Si       5.81760595       2.67754409      10.70449068
Si       8.70596351       8.35708329       9.62291493
Si       4.36196472       3.36104392       9.62291493
Si      10.86066113       2.09705030       9.62291493
Si       4.56787552       1.32903355       2.31173895
Si       4.54128148       3.29137947       2.31173895
Si       2.85513709       2.28717539       2.31173895
24
Lattice="7.976033330588144 -1.4093607027295276e-11 1.6287351251318525e-14 3.988016665306273 6.907447485713686 -3.8059247212487524e-14 3.9880166652981157 2.3024824952332867 13.392030088920421" Properties=species:S:1:pos:R:3 unique_starting_index=24 config_type=initial n_minim_iter=9 stress="-7.122673931889662e-07 2.952698695813191e-15 4.722696564180957e-15 2.952698695813191e-15 -7.122673809079425e-07 3.905824387690538e-15 4.722696564180957e-15 3.905824387690538e-15 6.7615274603686335e-06" pbc="T T T"
Si       8.88125668       3.86797874      13.59995852
Si       8.16166968       5.75740454      13.59995852
Si       6.88517244       4.18951101      13.59995852
Si       9.07887258       4.77822267      10.67466103
Si       7.27456736       5.47342295      10.67466103
Si       7.57465886       3.56324866      10.67466103
Si       9.55660504       3.74565163       2.30767943
Si       7.92993388       6.40343692       2.30767943
Si       6.44155988       3.66580573       2.30767943
Si       8.93218923       5.19147919       3.48674552
Si       6.99001839       5.13976320       3.48674552
Si       8.00589118       3.48365190       3.48674552
Si       8.62366257       6.38247327       9.62348543
Si       6.11285059       4.27707423       9.62348543
Si       9.19158564       3.15534679       9.62348543
Si      10.72460616       3.69936340      10.70422235
Si       7.38602010       7.43809968      10.70422235
Si       5.81747254       2.67743121      10.70422235
Si       8.70576646       8.35688782       9.62242925
Si       4.36190549       3.36097100       9.62242925
Si      10.86042685       2.09703546       9.62242925
Si       4.56788046       1.32900077       2.31164140
Si       4.54114388       3.29140013       2.31164140
Si       2.85502447       2.28704589       2.31164140
