14
Lattice="7.0474002518077405 1.9219066814013872 -0.42955489891577153 -1.1396888024403053 7.2153091178577915 0.4295541639049025 -4.030420159924547 -3.8725495398951764 4.6281192475095345" Properties=species:S:1:pos:R:3 unique_starting_index=10 config_type=initial n_minim_iter=1 energy=-2278.035232532547 free_energy=-2278.035232532547 pbc="T T T"
Si       2.30013623       4.86870656       2.45745301
Si      -0.53461431       0.22309059       2.17066552
Si       0.82386707       2.94155723       2.21216528
Si       4.22158959       7.22318090       2.41595284
Si      -0.39128275      -2.86366567       4.26994786
Si      -0.57351231       3.73259315       0.35817100
Si       1.08498641      -0.93651634       4.51523560
Si       0.57799524       5.86971865       0.11288294
Si       4.17699484       6.46038717      -0.00000052
Si      -2.42880241      -1.39539284       4.62811905
Si       0.62258999       6.63251238       2.52883631
Si      -2.70974436       1.47852705       2.52883672
Si       3.05459109       1.41596986       2.09928198
Si       2.88468254       4.46162057      -0.00000036
14
Lattice="7.087932523909349 1.9373711689775355 -0.4501972953892009 -1.1422212920304926 7.2586173405109085 0.4501965556505701 -4.069724835510602 -3.888807735673406 4.652661017601105" Properties=species:S:1:pos:R:3 unique_starting_index=10 config_type=initial n_minim_iter=2 stress="0.004761740328525786 0.0011202799258723634 0.0012239161343881272 0.0011202799258723634 0.00577010882720461 -0.0007913289918813896 0.0012239161343881272 -0.0007913289918813896 0.005940915588979637" pbc="T T T"
Si       2.30717815       4.90488422       2.47217154
Si      -0.54381847       0.22810141       2.18048875
Si       0.82101254       2.96456489       2.22809576
Si       4.24243697       7.27253480       2.42456413
Si      -0.40851571      -2.87241885       4.28172078
Si      -0.57572678       3.75580053       0.37093985
Si       1.07764989      -0.93209951       4.52579657
Si       0.58372900       5.90735565       0.12686374
Si       4.20268430       6.50012001      -0.00000052
Si      -2.45946972      -1.39829198       4.65266082
Si       0.62348168       6.67977044       2.55142838
Si      -2.72980037       1.49338618       2.55142880
Si       3.06407075       1.42928547       2.10123167
Si       2.90431652       4.49198764      -0.00000036
14
Lattice="7.085798406678995 1.915158203884788 -0.5269887207530597 -1.1616015211663093 7.247554945557294 0.5269879836911471 -4.123639571135505 -3.8303561188008617 4.636731757991556" Properties=species:S:1:pos:R:3 unique_starting_index=10 config_type=initial n_minim_iter=3 stress="-0.0006374085257648849 0.0017066761846501197 -0.0060008475489528165 0.0017066761846501197 0.0008987790081406632 0.0038798769334814362 -0.0060008475489528165 0.0038798769334814362 -0.002018201263944171" pbc="T T T"
Si       2.25755955       4.91189996       2.47254391
Si      -0.57097185       0.24418493       2.16418713
Si       0.77279357       2.97733878       2.24242378
Si       4.19844572       7.25898245       2.39430684
Si      -0.45697204      -2.82782016       4.21905882
Si      -0.59059947       3.75509278       0.41767256
Si       1.02779394      -0.89325898       4.44917894
Si       0.56417984       5.90300841       0.18755211
Si       4.18012869       6.46523417      -0.00000052
Si      -2.52811290      -1.36262023       4.63673156
Si       0.58249687       6.69675669       2.58185947
Si      -2.75709800       1.53154182       2.58185989
Si       3.02436437       1.42933680       2.05487133
Si       2.89986271       4.48509912      -0.00000036
14
Lattice="7.087263790828506 1.8446702490892355 -0.4944031715032736 -1.226481151401742 7.2199626782227595 0.4944024423310759 -4.075743246680894 -3.7917832160446685 4.622312874089985" Properties=species:S:1:pos:R:3 unique_starting_index=10 config_type=initial n_minim_iter=4 stress="0.0022985506363381236 -0.010686778828596425 -0.0027073978201822588 -0.010686778828596425 -0.007320663853464136 0.0017504827247675817 -0.0027073978201822588 0.0017504827247675817 0.0038766814611989587" pbc="T T T"
Si       2.22525127       4.86089277       2.47874927
Si      -0.55632972       0.23236223       2.14356289
Si       0.74262133       2.95012276       2.26366463
Si       4.17049222       7.16079139       2.35864713
Si      -0.39964726      -2.82775776       4.20751791
Si      -0.62958682       3.74788574       0.41479458
Si       1.08298267      -0.91698775       4.42260255
Si       0.50437389       5.88408951       0.19970962
Si       4.12368237       6.37793096      -0.00000051
Si      -2.51210191      -1.37336308       4.62231268
Si       0.55118373       6.66694994       2.55835726
Si      -2.74955787       1.56182784       2.55835767
Si       3.02442945       1.37530705       2.06395466
Si       2.87691781       4.44961117      -0.00000036
14
Lattice="7.074916415713128 1.939512871818015 -0.42731375274145045 -1.1349264014194798 7.247626864307238 0.42731301371462754 -4.053487279801872 -3.893032287472575 4.55078593956935" Properties=species:S:1:pos:R:3 unique_starting_index=10 config_type=initial n_minim_iter=5 stress="0.000336537728660526 -5.728874633296526e-05 -2.0489690990863608e-05 -5.728874633296526e-05 0.00028497188862695123 1.3246952606146637e-05 -2.0489690990863608e-05 1.3246952606146637e-05 -0.009163379427438887" pbc="T T T"
Si       2.28706772       4.90233295       2.45675607
Si      -0.52165403       0.20449104       2.09402915
Si       0.77538315       2.96373519       2.25789414
Si       4.27092320       7.21751135       2.29289067
Si      -0.37484792      -2.88177013       4.15576541
Si      -0.58755531       3.76959119       0.39502014
Si       1.13683665      -0.94317237       4.35462734
Si       0.55985748       5.94371062       0.19615788
Si       4.16769604       6.44600511      -0.00000052
Si      -2.48596124      -1.46860383       4.55078574
Si       0.66308463       6.71521686       2.48904907
Si      -2.67673538       1.54965378       2.48904949
Si       3.04374085       1.39430938       2.06173590
Si       2.92196623       4.51928572      -0.00000036
14
Lattice="7.010693442755336 1.978716206478057 -0.41612066965814215 -1.0728193576026248 7.20515090854131 0.41611993089457366 -4.0221328923415305 -3.910984271760244 4.615115893691735" Properties=species:S:1:pos:R:3 unique_starting_index=10 config_type=initial n_minim_iter=6 stress="-0.0021772289539949826 0.001506172250262352 0.00023202192810271182 0.001506172250262352 -0.0008215169618033912 -0.0001500148828389126 0.00023202192810271182 -0.0001500148828389126 0.00048367111879864727" pbc="T T T"
Si       2.29719134       4.88795009       2.50175918
Si      -0.50757020       0.18986803       2.11335599
Si       0.78593311       2.95528907       2.29996913
Si       4.28812986       7.20244097       2.31514564
Si      -0.37163839      -2.87716805       4.21285377
Si      -0.55543740       3.75318208       0.40226174
Si       1.13961984      -0.94450703       4.41464383
Si       0.58673662       5.92447625       0.20047135
Si       4.16214133       6.43741386      -0.00000052
Si      -2.46153134      -1.49726563       4.61511570
Si       0.71272515       6.68950336       2.51561751
Si      -2.62360916       1.52933147       2.51561792
Si       3.03224438       1.41257218       2.09949742
Si       2.91544146       4.50919413      -0.00000036
14
Lattice="6.933167720436635 2.0439535298587757 -0.3575137751541643 -0.9815123219168677 7.161228579183448 0.35751303467598716 -3.9549234116721337 -3.9695515684394453 4.68501398652015" Properties=species:S:1:pos:R:3 unique_starting_index=10 config_type=initial n_minim_iter=7 stress="0.00011172868291290889 0.000436796177249518 0.0031892820935517006 0.000436796177249518 0.000504890212704112 -0.0020620446175292815 0.0031892820935517006 -0.0020620446175292815 0.016679958702412543" pbc="T T T"
Si       2.31903447       4.85041224       2.59661687
Si      -0.48355615       0.13581386       2.08839640
Si       0.79342319       2.96004020       2.38311160
Si       4.37037925       7.17396877       2.30190125
Si      -0.32109418      -2.87887623       4.25214667
Si      -0.49674787       3.76132018       0.43286693
Si       1.20451710      -0.98850419       4.46565194
Si       0.60097213       5.92834738       0.21936133
Si       4.14955155       6.41794176      -0.00000052
Si      -2.42183303      -1.59838334       4.68501380
Si       0.82179983       6.68437440       2.52126310
Si      -2.51339440       1.52596581       2.52126352
Si       3.06969195       1.48180368       2.16374991
Si       2.88317175       4.45928389      -0.00000036
14
Lattice="6.925387768229548 2.0856012335600904 -0.3417883607635763 -0.940340702148293 7.171226402692009 0.3417876161309586 -3.955574074377966 -4.00574841886103 4.645425978888397" Properties=species:S:1:pos:R:3 unique_starting_index=10 config_type=initial n_minim_iter=8 stress="0.0037615020752364073 -0.0024816100737872267 0.00092775237851766 -0.0024816100737872267 0.0015277941547088688 -0.000599842120873572 0.00092775237851766 -0.000599842120873572 0.008691658929904013" pbc="T T T"
Si       2.31642527       4.83962738       2.64069654
Si      -0.49297073       0.09281151       2.00472872
Si       0.77243101       2.99799346       2.41456191
Si       4.44634526       7.18585078       2.23086293
Si      -0.29830719      -2.86282866       4.15654769
Si      -0.45872489       3.80413440       0.48887789
Si       1.24568706      -1.02119473       4.38268232
Si       0.58700619       5.96792277       0.26274294
Si       4.13955810       6.40248530      -0.00000051
Si      -2.44967141      -1.67663032       4.64542579
Si       0.89379334       6.75128825       2.49360638
Si      -2.45759828       1.56782782       2.49360680
Si       3.11834925       1.56630500       2.15181861
Si       2.85534290       4.41624214      -0.00000036
14
Lattice="6.912004961043195 2.1760431232448028 -0.33221965889959276 -0.8523740470965314 7.196140301611078 0.33221890498758855 -3.976889852366969 -4.073755773673127 4.578129948269644" Properties=species:S:1:pos:R:3 unique_starting_index=10 config_type=initial n_minim_iter=9 stress="-0.0004998389369006703 0.0008665950364849696 -0.004384037229924369 0.0008665950364849696 0.00028018770584371447 0.0028345200452031157 -0.004384037229924369 0.0028345200452031157 -0.006774811176258534" pbc="T T T"
Si       2.34396457       4.85783800       2.64616007
Si      -0.50898243       0.05739107       1.93196915
Si       0.79320747       3.04470207       2.39154552
Si       4.53368035       7.27131475       2.18658327
Si      -0.30857368      -2.85131252       4.05492446
Si      -0.39074179       3.84684706       0.52320509
Si       1.24218342      -1.03817659       4.30953901
Si       0.62622635       6.00510681       0.26859022
Si       4.14931035       6.41756871      -0.00000052
Si      -2.47410758      -1.74946386       4.57812976
Si       1.01059634       6.85885285       2.45517400
Si      -2.40250649       1.57994622       2.45517443
Si       3.15546897       1.66176727       2.12295493
Si       2.85681177       4.41851398      -0.00000036
14
Lattice="6.937799304158452 2.2397627391899237 -0.2703124766659524 -0.8048540037882773 7.245813050151469 0.2703117136325023 -3.966109744628563 -4.161122779453678 4.513565651683215" Properties=species:S:1:pos:R:3 unique_starting_index=10 config_type=initial n_minim_iter=10 stress="-0.0028533666650133634 0.0036365358528043365 0.0015499044976955865 0.0036365358528043365 0.000419894412418176 -0.0010020990456072129 0.0015499044976955865 -0.0010020990456072129 -0.006324639596112753" pbc="T T T"
Si       2.40729053       4.88644475       2.58774111
Si      -0.49810495       0.03951158       1.92582382
Si       0.87635689       3.05468307       2.31393187
Si       4.59275168       7.37726063       2.19963260
Si      -0.28784652      -2.89406570       4.04745056
Si      -0.35414059       3.87422752       0.46611468
Si       1.24308712      -1.06230402       4.32125979
Si       0.68794807       6.02205425       0.19230512
Si       4.16957665       6.44891376      -0.00000052
Si      -2.43525805      -1.79341704       4.51356546
Si       1.11112311       6.95040113       2.39193825
Si      -2.38309724       1.54603335       2.39193868
Si       3.18764489       1.67142465       2.12162638
Si       2.89790887       4.48207718      -0.00000036
14
Lattice="6.949135273815677 2.210875284606546 -0.30120036652232307 -0.8358489083417033 7.244294833762302 0.3011996059347494 -3.9841480840036687 -4.127901874989849 4.544987805343515" Properties=species:S:1:pos:R:3 unique_starting_index=10 config_type=initial n_minim_iter=11 stress="0.002488779147513683 -0.004665401501484849 -0.00018399810457349548 -0.004665401501484849 -0.0017105685067368948 0.00011896558719578605 -0.00018399810457349548 0.00011896558719578605 0.0041624441593469085" pbc="T T T"
Si       2.36639290       4.88493571       2.60557722
Si      -0.50073484       0.03481846       1.93940986
Si       0.85984697       3.05664218       2.34696028
Si       4.56361666       7.36582442       2.19802636
Si      -0.28308262      -2.87997328       4.06130373
Si      -0.38094207       3.88717056       0.48368366
Si       1.22346332      -1.05167975       4.31992068
Si       0.66799280       6.01133472       0.22506640
Si       4.14554152       6.41173961      -0.00000052
Si      -2.46633909      -1.78036875       4.54498762
Si       1.08606794       6.96541953       2.42309327
Si      -2.39948589       1.57445590       2.42309370
Si       3.18066841       1.66798428       2.12189351
Si       2.88678996       4.46488002      -0.00000036
14
Lattice="6.9355402663146695 2.305830054297745 -0.2926058908250195 -0.7436798532620426 7.270867331457238 0.292605120461617 -4.003945589521618 -4.201266553178451 4.527821637281289" Properties=species:S:1:pos:R:3 unique_starting_index=10 config_type=initial n_minim_iter=12 stress="0.0003182761013245202 0.0012338110886963179 0.0007357245398354943 0.0012338110886963179 0.0014288345675004606 -0.0004756862081859669 0.0007357245398354943 -0.0004756862081859669 0.003247827452114954" pbc="T T T"
Si       2.38930911       4.93534799       2.59737635
Si      -0.48396610       0.00304057       1.93044456
Si       0.91005185       3.08243296       2.35040833
Si       4.62530761       7.47035368       2.17741212
Si      -0.28356205      -2.90180974       4.04805259
Si      -0.34188151       3.92593417       0.47976863
Si       1.19569521      -1.04889471       4.29502061
Si       0.74070518       6.03531846       0.23280029
Si       4.17912628       6.46368379      -0.00000052
Si      -2.47794420      -1.84106259       4.52782145
Si       1.18688651       7.04198834       2.41021294
Si      -2.35184900       1.56877078       2.41021338
Si       3.20303012       1.73918867       2.11760766
Si       2.90666253       4.49561613      -0.00000036
14
Lattice="6.948205047440895 2.286910114865415 -0.3103484785249335 -0.7661306944687539 7.2746515718043545 0.31034770937906914 -4.018487401851064 -4.181133012221806 4.518750883033121" Properties=species:S:1:pos:R:3 unique_starting_index=10 config_type=initial n_minim_iter=13 stress="-0.00023770919690735518 0.0014345364248115032 -0.0005641359999130652 0.0014345364248115032 0.0010535232253084184 0.0003647448225102822 -0.0005641359999130652 0.0003647448225102822 0.001231725327924718" pbc="T T T"
Si       2.37464362       4.94342801       2.57958635
Si      -0.48512094       0.01311668       1.93916380
Si       0.90599892       3.07917968       2.33853550
Si       4.59967641       7.47032047       2.18021420
Si      -0.29171644      -2.90050119       4.04336516
Si      -0.36166952       3.92403304       0.47538530
Si       1.17692827      -1.03625286       4.28441601
Si       0.73560749       6.02839093       0.23433413
Si       4.18169790       6.46766120      -0.00000052
Si      -2.48869714      -1.81506895       4.51875069
Si       1.15358600       7.03105020       2.41454886
Si      -2.37658072       1.57108565       2.41454929
Si       3.19663359       1.73135380       2.10420099
Si       2.90478100       4.49270603      -0.00000036
14
Lattice="6.950313247388369 2.282110601861823 -0.30415060121746224 -0.7713726027932301 7.274604306163115 0.30414983246147975 -4.013823476211417 -4.18071205050904 4.506886658641802" Properties=species:S:1:pos:R:3 unique_starting_index=10 config_type=initial n_minim_iter=14 stress="-8.023815033218558e-05 0.0002761443086145662 -0.0002563542619656457 0.0002761443086145662 0.00016832055875527264 0.00016574711410352074 -0.0002563542619656457 0.00016574711410352074 0.0005389083326075513" pbc="T T T"
Si       2.37158772       4.93865879       2.57673869
Si      -0.48355192       0.00879364       1.93014724
Si       0.90580549       3.07839593       2.33409119
Si       4.60057130       7.46539662       2.17279428
Si      -0.28296082      -2.90113537       4.03151542
Si      -0.36431095       3.92733122       0.47537082
Si       1.18282140      -1.04087251       4.27416292
Si       0.73050647       6.02744316       0.23272300
Si       4.17687277       6.46019836      -0.00000052
Si      -2.48828761      -1.82122809       4.50688647
Si       1.15420500       7.03264141       2.40551780
Si      -2.37339874       1.57664090       2.40551824
Si       3.20407737       1.73544042       2.10136781
Si       2.89837300       4.48279504      -0.00000036
14
Lattice="6.953657137719959 2.2778079874256973 -0.2983436125473842 -0.7766685199649778 7.275887800481863 0.29834284403426486 -4.010283028784969 -4.180860538777569 4.494327912115183" Properties=species:S:1:pos:R:3 unique_starting_index=10 config_type=initial n_minim_iter=15 stress="3.337602630566568e-07 -0.00019722980908687976 6.094631579694899e-05 -0.00019722980908687976 -0.00017719363849222447 -3.9405156723739014e-05 6.094631579694899e-05 -3.9405156723739014e-05 -0.0005400262484144828" pbc="T T T"
Si       2.36999554       4.93690650       2.57174238
Si      -0.48095596       0.00647409       1.92258480
Si       0.90654828       3.07668361       2.32729685
Si       4.60029341       7.46220362       2.16702987
Si      -0.27585005      -2.90402147       4.02057711
Si      -0.36827266       3.92946350       0.47375038
Si       1.18759721      -1.04379857       4.26502263
Si       0.72746659       6.02742976       0.22930454
Si       4.17360305       6.45514123      -0.00000052
Si      -2.48856822      -1.82728644       4.49432772
Si       1.15415695       7.03449215       2.39633494
Si      -2.37094343       1.58236349       2.39633538
Si       3.21003258       1.73710169       2.09799193
Si       2.89439594       4.47664388      -0.00000036
14
Lattice="6.9561346081240965 2.265987545718409 -0.29132243040087796 -0.7884643894838577 7.2732958552022815 0.2913216630471129 -4.003003641448182 -4.175348441671764 4.479451175114474" Properties=species:S:1:pos:R:3 unique_starting_index=10 config_type=initial n_minim_iter=16 stress="9.938468122062611e-05 -0.0006920074829835624 0.0003613839724086581 -0.0006920074829835624 -0.0005234942541476512 -0.00023365462989950522 0.0003613839724086581 -0.00023365462989950522 -0.0017116807680601647" pbc="T T T"
Si       2.36468481       4.93334218       2.56702117
Si      -0.47474734       0.00568050       1.91242927
Si       0.90530821       3.06978791       2.31670580
Si       4.59247511       7.44934248       2.16274419
Si      -0.26537030      -2.90890851       4.00649380
Si      -0.37906912       3.92811406       0.47295696
Si       1.19400630      -1.04535423       4.25680917
Si       0.72137865       6.02373549       0.22264127
Si       4.16496143       6.44177559      -0.00000052
Si      -2.49187273      -1.83814403       4.47945099
Si       1.14889233       7.03130238       2.38538598
Si      -2.36494737       1.59659016       2.38538642
Si       3.21721181       1.73750608       2.09406416
Si       2.88510634       4.46227604      -0.00000036
14
Lattice="6.950069185871292 2.2633056347922405 -0.2970919406248458 -0.78842075882076 7.266664107239574 0.29709117402028484 -4.002689918343655 -4.168947740871478 4.494309416057807" Properties=species:S:1:pos:R:3 unique_starting_index=10 config_type=initial n_minim_iter=17 stress="3.611699942037378e-05 5.233519431385443e-06 -8.812096166316847e-05 5.233519431385443e-06 4.082772801387762e-05 5.6975040189340946e-05 -8.812096166316847e-05 5.6975040189340946e-05 7.581182967651785e-05" pbc="T T T"
Si       2.36296834       4.93392020       2.57421965
Si      -0.47320207       0.01075317       1.92008903
Si       0.90371266       3.06525767       2.31978724
Si       4.58329072       7.44311530       2.17452100
Si      -0.27073230      -2.90821168       4.01869793
Si      -0.38194116       3.92059746       0.47561107
Si       1.18852338      -1.03954914       4.27313034
Si       0.72321447       6.01820507       0.22117834
Si       4.16219017       6.43748939      -0.00000052
Si      -2.49581190      -1.83832111       4.49430923
Si       1.14431503       7.02383098       2.39569985
Si      -2.36202124       1.60072400       2.39570029
Si       3.21105765       1.73429505       2.09860852
Si       2.88386830       4.46036122      -0.00000036
14
Lattice="6.949093233092178 2.261476563107253 -0.2935759513047397 -0.7896881612259314 7.265023473166443 0.29357518497928686 -3.998888860517046 -4.168945254446936 4.493153024277481" Properties=species:S:1:pos:R:3 unique_starting_index=10 config_type=initial n_minim_iter=18 stress="-0.00015654546201501228 -2.870802056207508e-05 0.00033129438969529284 -2.870802056207508e-05 -0.00018238573157845422 -0.0002141999833230886 0.00033129438969529284 -0.0002141999833230886 5.386748300709218e-05" pbc="T T T"
Si       2.36447788       4.93134783       2.57231499
Si      -0.47236629       0.01107650       1.92083730
Si       0.90569213       3.06348449       2.31754976
Si       4.58241908       7.44072545       2.17560209
Si      -0.26871075      -2.90915240       4.02062599
Si      -0.38207095       3.91858763       0.47252662
Si       1.19007500      -1.04128905       4.27539123
Si       0.72254875       6.01543871       0.21776106
Si       4.16185708       6.43697422      -0.00000052
Si      -2.49421987      -1.84173524       4.49315284
Si       1.14311075       7.01918995       2.39336366
Si      -2.35910623       1.60245411       2.39336410
Si       3.21195759       1.73258891       2.09978832
Si       2.88269840       4.45855178      -0.00000036
14
Lattice="6.950755218027501 2.263263057219321 -0.29693629200124366 -0.7887411359593441 7.267272228480761 0.2969355253511898 -4.002976233289572 -4.169163602501846 4.493022297108857" Properties=species:S:1:pos:R:3 unique_starting_index=10 config_type=initial n_minim_iter=19 stress="3.8718349007425354e-05 -5.058133262806143e-05 2.9870312114537816e-06 -5.058133262806143e-05 -6.810123633585922e-06 -1.931269439702141e-06 2.9870312114537816e-06 -1.931269439702141e-06 8.68138389554163e-05" pbc="T T T"
Si       2.36523611       4.93250539       2.57043483
Si      -0.47570926       0.01202465       1.92258673
Si       0.90668109       3.06705067       2.31786801
Si       4.58378685       7.44690776       2.17515311
Si      -0.27281229      -2.90671779       4.02062989
Si      -0.37964590       3.91966349       0.47239199
Si       1.18574273      -1.04126307       4.27319672
Si       0.72287207       6.01531567       0.21982485
Si       4.16413325       6.44049468      -0.00000052
Si      -2.50037211      -1.84514723       4.49302211
Si       1.14252567       7.02172875       2.39497847
Si      -2.35795928       1.60767177       2.39497891
Si       3.21124436       1.73414548       2.09804279
Si       2.88415570       4.46080572      -0.00000036
14
Lattice="6.950681887144401 2.26330259172011 -0.2971841544478263 -0.7886749889802998 7.267221582929236 0.2971833877986666 -4.003157844888762 -4.169038302723395 4.492942230170867" Properties=species:S:1:pos:R:3 unique_starting_index=10 config_type=initial n_minim_iter=20 stress="1.0779168296453001e-05 2.5771728698572364e-07 -2.5823447750310583e-06 2.5771728698572364e-07 1.1011141175265275e-05 1.6696282922353329e-06 -2.5823447750310583e-06 1.6696282922353329e-06 1.9634086744753025e-05" pbc="T T T"
Si       2.36529437       4.93272970       2.57005859
Si      -0.47571023       0.01229514       1.92288291
Si       0.90663420       3.06699919       2.31809493
Si       4.58357036       7.44695807       2.17484612
Si      -0.27318502      -2.90674272       4.02076210
Si      -0.37970446       3.91942756       0.47217971
Si       1.18547515      -1.04101221       4.27272577
Si       0.72302185       6.01528880       0.22021573
Si       4.16430952       6.44076731      -0.00000052
Si      -2.50060031      -1.84509398       4.49294204
Si       1.14228269       7.02147956       2.39506237
Si      -2.35797223       1.60777837       2.39506280
Si       3.21097010       1.73400087       2.09787882
Si       2.88429710       4.46102442      -0.00000036
