20
Lattice="6.993918362990065 -1.0176342536906458e-12 -5.2888880978672224e-15 3.4969591814959147 6.056910974343363 2.7380692376857545e-14 3.496959181495337 2.0189703247807165 13.484560357893347" Properties=species:S:1:pos:R:3 unique_starting_index=8 config_type=initial n_minim_iter=1 energy=-3262.4062055581503 free_energy=-3262.4062055581503 pbc="T T T"
Si       8.68153204       4.83224510       5.18909573
Si       5.46222369       5.10230473       5.18909573
Si       6.83799937       2.17927211       5.18909573
Si       5.70003015       3.71779209       9.73033383
Si       7.91811926       3.07747487       9.73033383
Si       7.36360569       5.31855499       9.73033383
Si       6.49653790       2.76632201      11.80990874
Si       8.34386265       4.24300585      11.80990874
Si       6.14135455       5.10449409      11.80990874
Si       3.34053223       4.91324737       0.67021444
Si       8.06257358       0.43636208       0.67021444
Si       9.57864929       6.76421250       0.67021444
Si       9.55922740       4.67884308       9.87687910
Si      12.15014443       5.93911223       9.87687910
Si       9.76326081       7.55277762       9.87687910
Si       7.55849165       0.95813875       3.77203612
Si       9.37881841       6.06677641       3.77203612
Si       4.04444504       5.08890679       3.77203612
Si      10.49087755       6.05691097       2.23662481
Si      10.49087755       6.05691097       6.43867512
20
Lattice="6.99046795843724 -1.017798690679168e-12 -5.385624971481924e-15 3.495233979219502 6.053922836347283 2.709933424254609e-14 3.4952339792189235 2.017974278782023 13.47965284545382" Properties=species:S:1:pos:R:3 unique_starting_index=8 config_type=initial n_minim_iter=2 stress="-0.0002971511500968876 5.2080726842510695e-17 -7.342081755088492e-16 5.2080726842510695e-17 -0.00029715115009783737 -4.482755471366119e-16 -7.342081755088492e-16 -4.482755471366119e-16 -0.0017610468890774426" pbc="T T T"
Si       8.67725614       4.82980328       5.18720742
Si       5.45957552       5.09982261       5.18720742
Si       6.83457223       2.17821978       5.18720742
Si       5.69720433       3.71593719       9.72684701
Si       7.91423775       3.07595509       9.72684701
Si       7.35996180       5.31595339       9.72684701
Si       6.49325864       2.76496193      11.80555977
Si       8.33977932       4.24084597      11.80555977
Si       6.13836591       5.10203777      11.80555977
Si       3.33893503       4.91105790       0.67002535
Si       8.05836751       0.43607361       0.67002535
Si       9.57410134       6.76071417       0.67002535
Si       9.55449944       4.67647523       9.87331629
Si      12.14420781       5.93620162       9.87331629
Si       9.75839857       7.54909166       9.87331629
Si       7.55477593       0.95766707       3.77067564
Si       9.37418394       6.06379434       3.77067564
Si       4.04244401       5.08638427       3.77067564
Si      10.48570194       6.05392284       2.23556598
Si      10.48570194       6.05392284       6.43626912
20
Lattice="6.98810850314432 -1.0208552285083872e-12 -5.349690672984735e-15 3.4940542515730453 6.051879488124522 2.701016841001441e-14 3.494054251572465 2.0172931627077677 13.49071347473319" Properties=species:S:1:pos:R:3 unique_starting_index=8 config_type=initial n_minim_iter=3 stress="-0.0006062322205763221 -1.2682445110209253e-15 -3.4804292311502554e-16 -1.2682445110209253e-15 -0.0006062322205762879 -1.817859441256302e-15 -3.4804292311502554e-16 -1.817859441256302e-15 0.0017056323132649742" pbc="T T T"
Si       8.67434382       4.82779364       5.19151707
Si       5.45805317       5.09830528       5.19151707
Si       6.83192853       2.17766005       5.19151707
Si       5.69517397       3.71456340       9.73511082
Si       7.91172376       3.07488363       9.73511082
Si       7.35742779       5.31431194       9.73511082
Si       6.49064891       2.76404120      11.81498595
Si       8.33716266       4.23904624      11.81498595
Si       6.13651395       5.10067154      11.81498595
Si       3.33803053       4.91027949       0.67060260
Si       8.05477497       0.43567949       0.67060260
Si       9.57152002       6.75780000       0.67060260
Si       9.55124046       4.67457161       9.88158267
Si      12.14040752       5.93433107       9.88158267
Si       9.75484029       7.54673578       9.88158267
Si       7.55255396       0.95769118       3.77396495
Si       9.37055514       6.06185800       3.77396495
Si       4.04121642       5.08420980       3.77396495
Si      10.48216276       6.05187949       2.23633658
Si      10.48216276       6.05187949       6.44122592
20
Lattice="6.9928230675699306 -1.0279529956742804e-12 -5.361555551763981e-15 3.496411533785856 6.055962420684873 2.7014298689519947e-14 3.4964115337852726 2.018654140227883 13.479908078060104" Properties=species:S:1:pos:R:3 unique_starting_index=8 config_type=initial n_minim_iter=4 stress="0.0012301674343810052 -1.8953932485504835e-15 3.961479693212714e-16 -1.8953932485504835e-15 0.0012301674343821037 -1.4816363114447704e-15 3.961479693212714e-16 -1.4816363114447704e-15 -0.0018130443728185933" pbc="T T T"
Si       8.68024695       4.82992095       5.18749810
Si       5.46268842       5.10235389       5.18749810
Si       6.83553384       2.17965000       5.18749810
Si       5.69865968       3.71672427       9.72817470
Si       7.91753866       3.07682191       9.72817470
Si       7.36227087       5.31837866       9.72817470
Si       6.49372080       2.76591330      11.80471983
Si       8.34343456       4.24077052      11.80471983
Si       6.14131385       5.10524102      11.80471983
Si       3.34083426       4.91534071       0.66992166
Si       8.05841908       0.43557699       0.66992166
Si       9.57921586       6.76100715       0.66992166
Si       9.55763904       4.67674354       9.87417298
Si      12.14947098       5.93878644       9.87417298
Si       9.76059379       7.55235728       9.87417298
Si       7.55826367       0.95887812       3.77063221
Si       9.37610150       6.06620929       3.77063221
Si       4.04410404       5.08683744       3.77063221
Si      10.48923460       6.05596242       2.23478654
Si      10.48923460       6.05596242       6.43507964
20
Lattice="6.9912243833842735 -1.0360888229395797e-12 -5.313513426730604e-15 3.4956121916930347 6.054577919567461 2.702039845895457e-14 3.4956121916924463 2.018192639855411 13.491078476654259" Properties=species:S:1:pos:R:3 unique_starting_index=8 config_type=initial n_minim_iter=5 stress="-0.00034172759904723597 -1.0964927817861334e-15 1.1849351544617624e-16 -1.0964927817861334e-15 -0.00034172759904369296 -2.040519096883196e-15 1.1849351544617624e-16 -2.040519096883196e-15 0.0003210384644042353" pbc="T T T"
Si       8.67838723       4.82698434       5.19194763
Si       5.46296410       5.10221164       5.19194763
Si       6.83232183       2.17995987       5.19194763
Si       5.69678513       3.71535201       9.73768541
Si       7.91646698       3.07588463       9.73768541
Si       7.36042105       5.31791919       9.73768541
Si       6.48999994       2.76532053      11.81316816
Si       8.34261097       4.23784456      11.81316816
Si       6.14106224       5.10599076      11.81316816
Si       3.34086687       4.91625935       0.66972964
Si       8.05440985       0.43514590       0.66972964
Si       9.57839644       6.75775059       0.66972964
Si       9.55534613       4.67402974       9.88318936
Si      12.14817160       5.93815762       9.88318936
Si       9.75699200       7.55154641       9.88318936
Si       7.55683944       0.95848440       3.77320781
Si       9.37395722       6.06517273       3.77320781
Si       4.04287650       5.08549872       3.77320781
Si      10.48683658       6.05457792       2.23884527
Si      10.48683658       6.05457792       6.43879350
20
Lattice="7.000946297377627 -1.0670475442376476e-12 -5.3230665474658946e-15 3.500473148689739 6.062997344059098 2.705553061712931e-14 3.5004731486891325 2.020999114685946 13.480343833012077" Properties=species:S:1:pos:R:3 unique_starting_index=8 config_type=initial n_minim_iter=6 stress="0.00016270875859421754 -1.2651714555830036e-15 2.374677528642e-16 -1.2651714555830036e-15 0.00016270875859520164 -2.241973382208542e-15 2.374677528642e-16 -2.241973382208542e-15 -0.0005604654436931805" pbc="T T T"
Si       8.69233130       4.82622985       5.18640253
Si       5.47608929       5.11466479       5.18640253
Si       6.83441831       2.18510004       5.18640253
Si       5.70202081       3.71889821       9.73726661
Si       7.93022187       3.07864577       9.73726661
Si       7.37059622       5.32845071       9.73726661
Si       6.48739594       2.76966715      11.79709630
Si       8.35959252       4.23341611      11.79709630
Si       6.15585045       5.12291143      11.79709630
Si       3.34819943       4.92401184       0.66739465
Si       8.06347354       0.43761984       0.66739465
Si       9.59116593       6.76436301       0.66739465
Si       9.56813835       4.67244925       9.87942026
Si      12.17230997       5.95002625       9.87942026
Si       9.76381002       7.56651653       9.87942026
Si       7.56523418       0.95649108       3.77223339
Si       9.39092993       6.07343944       3.77223339
Si       4.04667479       5.09606417       3.77223339
Si      10.50141945       6.06299734       2.23505525
Si      10.50141945       6.06299734       6.42498798
20
Lattice="6.99192951129429 -1.0949158823455322e-12 -5.336254785337385e-15 3.495964755648094 6.055188578250423 2.6992330722860492e-14 3.495964755647473 2.0183961927497114 13.470129448931905" Properties=species:S:1:pos:R:3 unique_starting_index=8 config_type=initial n_minim_iter=7 stress="-0.0003358370767641203 -3.9991934238972456e-16 4.463368008603698e-16 -3.9991934238972456e-16 -0.0003358370767597689 -4.910837317699553e-16 4.463368008603698e-16 -4.910837317699553e-16 -0.0007347651798727461" pbc="T T T"
Si       8.68407323       4.81393245       5.17905676
Si       5.47283462       5.11366180       5.17905676
Si       6.81888069       2.18278291       5.17905676
Si       5.69250104       3.71450128       9.73696112
Si       7.92075604       3.07259987       9.73696112
Si       7.36253146       5.32327601       9.73696112
Si       6.46730657       2.76765249      11.78217253
Si       8.35334837       4.21702553      11.78217253
Si       6.15513360       5.12569913      11.78217253
Si       3.34613765       4.91539906       0.66490728
Si       8.05392975       0.44014068       0.66490728
Si       9.57572114       6.75483742       0.66490728
Si       9.55518799       4.65888154       9.87567048
Si      12.16348478       5.94559476       9.87567048
Si       9.74501004       7.56108943       9.87567048
Si       7.55564628       0.95818350       3.77188235
Si       9.37622463       6.06428987       3.77188235
Si       4.04391763       5.08790379       3.77188235
Si      10.48789427       6.05518858       2.23520308
Si      10.48789427       6.05518858       6.41247723
20
Lattice="6.9702233074993405 -1.1725753146713474e-12 -5.286823975625599e-15 3.485111653750686 6.036390454344234 2.6942948928458718e-14 3.4851116537500206 2.0121301514476224 13.547330443100876" Properties=species:S:1:pos:R:3 unique_starting_index=8 config_type=initial n_minim_iter=8 stress="0.0004928795691117095 -1.7296261304769926e-15 1.7562542546218454e-15 -1.7296261304769926e-15 0.0004928795691162375 -9.591658663250742e-16 1.7562542546218454e-15 -9.591658663250742e-16 0.0008196648326465732" pbc="T T T"
Si       8.66694720       4.77487535       5.19589118
Si       5.47180966       5.11835877       5.19589118
Si       6.77191307       2.17954679       5.19589118
Si       5.66627719       3.71933775       9.81172887
Si       7.88626704       3.04747111       9.81172887
Si       7.35812570       5.30597204       9.81172887
Si       6.40791207       2.77158768      11.83827270
Si       8.33622524       4.16362080      11.83827270
Si       6.16653261       5.13757243      11.83827270
Si       3.34390272       4.89202863       0.68027004
Si       8.03187419       0.44989039       0.68027004
Si       9.53489302       6.73086190       0.68027004
Si       9.52836781       4.62331805       9.94133657
Si      12.14257514       5.94014956       9.94133657
Si       9.69506194       7.54570376       9.94133657
Si       7.53331633       0.95868242       3.78314458
Si       9.34354512       6.04470210       3.78314458
Si       4.03380848       5.06939639       3.78314458
Si      10.45533496       6.03639045       2.24645014
Si      10.45533496       6.03639045       6.43594190
20
Lattice="6.966853502271028 -1.3121234635526274e-12 -5.363971452077103e-15 3.4834267511366503 6.033472117410642 2.707708313905981e-14 3.4834267511359047 2.0111573724697105 13.69199205850487" Properties=species:S:1:pos:R:3 unique_starting_index=8 config_type=initial n_minim_iter=9 stress="0.003133181936531153 -2.4397309945205506e-15 1.6275533291441908e-15 -2.4397309945205506e-15 0.0031331819365338753 -1.8039752000555183e-15 1.6275533291441908e-15 -1.8039752000555183e-15 0.0024366142953811116" pbc="T T T"
Si       8.68724494       4.74092345       5.21054528
Si       5.48432439       5.15291308       5.21054528
Si       6.72899118       2.17310771       5.21054528
Si       5.64835647       3.75217837       9.94344751
Si       7.86004698       3.01553101       9.94344751
Si       7.39215706       5.29923486       9.94344751
Si       6.33462355       2.79593389      11.95474041
Si       8.34504546       4.08797798      11.95474041
Si       6.22089150       5.18303237      11.95474041
Si       3.35830017       4.89069208       0.71049669
Si       8.01909334       0.46302722       0.71049669
Si       9.52316700       6.71322494       0.71049669
Si       9.53902258       4.58236861      10.06135349
Si      12.16260159       5.96985158      10.06135349
Si       9.64921659       7.54819616      10.06135349
Si       7.51819190       0.96489080       3.81606245
Si       9.33899111       6.02849977       3.81606245
Si       4.04337751       5.07355366       3.81606245
Si      10.45028026       6.03347212       2.27882014
Si      10.45028026       6.03347212       6.47973141
20
Lattice="6.944024276259509 -1.4565227985961512e-12 -5.072941673091773e-15 3.472012138131017 6.01370142773586 2.6675227560877675e-14 3.472012138130188 2.004567142578065 13.856447311918759" Properties=species:S:1:pos:R:3 unique_starting_index=8 config_type=initial n_minim_iter=10 stress="0.0004874127110832068 -3.3103322536234506e-15 3.767242736025724e-15 -3.3103322536234506e-15 0.0004874127110899514 -2.081719259727896e-15 3.767242736025724e-15 -2.081719259727896e-15 0.00028661341809907523" pbc="T T T"
Si       8.68099920       4.69041579       5.22752801
Si       5.48552973       5.17275794       5.22752801
Si       6.66554391       2.16422913       5.22752801
Si       5.62086798       3.77414420      10.08579160
Si       7.80910981       2.98074236      10.08579160
Si       7.40209504       5.27251630      10.08579160
Si       6.23968646       2.81499319      12.09506154
Si       8.33034971       3.99623039      12.09506154
Si       6.26203667       5.21617927      12.09506154
Si       3.36165877       4.87203722       0.74773092
Si       7.98791117       0.47526329       0.74773092
Si       9.48250289       6.68010235       0.74773092
Si       9.52918808       4.51764513      10.19849422
Si      12.15508335       5.99369639      10.19849422
Si       9.56383782       7.52976277      10.19849422
Si       7.48776547       0.96847864       3.85229920
Si       9.30543871       6.00035579       3.85229920
Si       4.03886865       5.05856842       3.85229920
Si      10.41603642       6.01370143       2.31636348
Si      10.41603642       6.01370143       6.51907048
20
Lattice="6.9105959753777615 -1.5996075367567985e-12 -4.9577973224329e-15 3.455297987690268 5.984751669966842 2.6480089907897006e-14 3.4552979876893555 1.9949172233216772 14.02211896541466" Properties=species:S:1:pos:R:3 unique_starting_index=8 config_type=initial n_minim_iter=11 stress="-0.004680515397366521 -1.774171203747817e-15 2.6033694756689328e-15 -1.774171203747817e-15 -0.004680515397360052 -1.59737367420649e-15 2.6033694756689328e-15 -1.59737367420649e-15 -0.003073610874141346" pbc="T T T"
Si       8.65536505       4.63021756       5.23675338
Si       5.48362340       5.18065724       5.23675338
Si       6.59279948       2.15862855       5.23675338
Si       5.59370538       3.79111779      10.21508046
Si       7.74113495       2.94873206      10.21508046
Si       7.39694761       5.22965349      10.21508046
Si       6.13830650       2.83303123      12.25301892
Si       8.29856169       3.89941375      12.25301892
Si       6.29491974       5.23705836      12.25301892
Si       3.35504191       4.84391260       0.79066357
Si       7.94871964       0.48359523       0.79066357
Si       9.42802639       6.64199552       0.79066357
Si       9.51506926       4.42815735      10.34166271
Si      12.13935655       6.02621302      10.34166271
Si       9.44325609       7.49988464      10.34166271
Si       7.45657476       0.96641872       3.89171270
Si       9.25596141       5.97437381       3.89171270
Si       4.01925176       5.02871081       3.89171270
Si      10.36589397       5.98475167       2.35853124
Si      10.36589397       5.98475167       6.53049649
20
Lattice="6.88876194521891 -1.6948834803519906e-12 -4.717979478637476e-15 3.444380972610924 5.965842845182236 2.6903480650965847e-14 3.4443809726099577 1.9886142817267751 14.084773518614456" Properties=species:S:1:pos:R:3 unique_starting_index=8 config_type=initial n_minim_iter=12 stress="-0.003326317485446232 -2.553994092581612e-15 3.0257975376027137e-15 -2.553994092581612e-15 -0.0033263174854385753 -1.0894397934240465e-15 3.0257975376027137e-15 -1.0894397934240465e-15 -0.0009496110520795581" pbc="T T T"
Si       8.62934301       4.58492751       5.21632001
Si       5.49218869       5.18076651       5.21632001
Si       6.54475414       2.16599167       5.21632001
Si       5.58640730       3.80496559      10.24608659
Si       7.68912339       2.93548784      10.24608659
Si       7.39075516       5.19123227      10.24608659
Si       6.08204066       2.84786818      12.33655965
Si       8.27017737       3.84326763      12.33655965
Si       6.31406781       5.24054988      12.33655965
Si       3.34230739       4.82399603       0.81659803
Si       7.92866709       0.48252509       0.81659803
Si       9.39531136       6.62516457       0.81659803
Si       9.51409915       4.34444954      10.41163518
Si      12.14683260       6.06722678      10.41163518
Si       9.33849701       7.48585221      10.41163518
Si       7.45600324       0.95418654       3.91380693
Si       9.22317249       5.97999495       3.91380693
Si       3.98711011       4.99750420       3.91380693
Si      10.33314292       5.96584285       2.38328961
Si      10.33314292       5.96584285       6.48188489
20
Lattice="6.87090653046196 -1.8640964673685473e-12 -4.371926995225543e-15 3.4354532652325958 5.950379602407525 2.7326883260865297e-14 3.4354532652315335 1.983459867468483 14.098770080769194" Properties=species:S:1:pos:R:3 unique_starting_index=8 config_type=initial n_minim_iter=13 stress="0.008804226727933283 -1.2926946447854889e-15 2.8561535112296813e-15 -1.2926946447854889e-15 0.008804226727941475 -1.0856678425974815e-15 2.8561535112296813e-15 -1.0856678425974815e-15 0.01166875392573983" pbc="T T T"
Si       8.61630649       4.51666711       5.14862238
Si       5.52211137       5.20360675       5.14862238
Si       6.47430175       2.18048535       5.14862238
Si       5.57221140       3.84402808      10.24631953
Si       7.62668139       2.90366259      10.24631953
Si       7.41382680       5.15306854      10.24631953
Si       6.00852322       2.87519614      12.37308435
Si       8.24755856       3.76593567      12.37308435
Si       6.35663782       5.25962739      12.37308435
Si       3.32976056       4.80488042       0.83967038
Si       7.91578428       0.48121702       0.83967038
Si       9.36717476       6.61466177       0.83967038
Si       9.51692906       4.22649304      10.46660729
Si      12.19400473       6.12865581      10.46660729
Si       9.20814561       7.49598996      10.46660729
Si       7.48106315       0.92801804       3.93380435
Si       9.19759429       6.01478172       3.93380435
Si       3.93406215       4.95795945       3.93380435
Si      10.30635980       5.95037960       2.40541160
Si      10.30635980       5.95037960       6.39528310
20
Lattice="6.864898503262466 -1.962329076620551e-12 -4.32149178512533e-15 3.4324492516329355 5.945176498226085 2.7784081584433587e-14 3.432449251631815 1.9817254994079714 13.92378329775439" Properties=species:S:1:pos:R:3 unique_starting_index=8 config_type=initial n_minim_iter=14 stress="0.03523660321892517 2.3148266650188384e-15 1.1987847928362944e-15 2.3148266650188384e-15 0.03523660321892996 -7.985574458983352e-17 1.1987847928362944e-15 -7.985574458983352e-17 0.02788142336931667" pbc="T T T"
Si       8.61199365       4.46743990       5.01055912
Si       5.55488374       5.22448533       5.01055912
Si       6.42781813       2.19842777       5.01055912
Si       5.57192934       3.88698381      10.07917317
Si       7.57760561       2.88194045      10.07917317
Si       7.44516056       5.12142873      10.07917317
Si       5.99625710       2.90014886      12.25931563
Si       8.22006588       3.74283655      12.25931563
Si       6.37837254       5.24736759      12.25931563
Si       3.30479694       4.79527080       0.83376543
Si       7.92457221       0.46440270       0.83376543
Si       9.36532637       6.63067949       0.83376543
Si       9.52590700       4.11502939      10.38327897
Si      12.26802203       6.19216276      10.38327897
Si       9.09811424       7.52833734      10.38327897
Si       7.54992220       0.88055610       3.92414189
Si       9.19225196       6.09814637       3.92414189
Si       3.85252136       4.91165053       3.92414189
Si      10.29734776       5.94517650       2.39834886
Si      10.29734776       5.94517650       6.24535380
20
Lattice="6.8364031346718255 -2.1474108097229387e-12 -3.716850352157365e-15 3.418201567337776 5.920498785136296 2.810445909505525e-14 3.4182015673365487 1.9734995950446481 13.80350383500344" Properties=species:S:1:pos:R:3 unique_starting_index=8 config_type=initial n_minim_iter=15 stress="0.07110778193933293 1.1672634067470192e-15 2.6539631971387917e-15 1.1672634067470192e-15 0.07110778193933491 -4.559417124012738e-16 2.6539631971387917e-15 -4.559417124012738e-16 0.03542395732388315" pbc="T T T"
Si       8.60326233       4.38243375       4.85939267
Si       5.57587615       5.25942685       4.85939267
Si       6.33007093       2.19913697       4.85939267
Si       5.54115599       3.94215599       9.96472118
Si       7.48822104       2.82770386       9.96472118
Si       7.47983237       5.07113772       9.96472118
Si       5.92541411       2.93203485      12.18787448
Si       8.17088255       3.66554172      12.18787448
Si       6.41291275       5.24342100      12.18787448
Si       3.27410718       4.76567261       0.84488741
Si       7.90855914       0.45262369       0.84488741
Si       9.32654309       6.62270128       0.84488741
Si       9.51034236       3.95420373      10.35303234
Si      12.32959735       6.25909621      10.35303234
Si       8.92387441       7.54819642      10.35303234
Si       7.59984138       0.82492247       3.93202515
Si       9.15848177       6.16919446       3.93202515
Si       3.75088626       4.84688064       3.93202515
Si      10.25460470       5.92049879       2.40781649
Si      10.25460470       5.92049879       6.10497596
20
Lattice="6.80675729194861 -2.236667747049661e-12 -4.203604057562177e-15 3.4033786459762463 5.894824732221345 2.8048932709552295e-14 3.403378645974966 1.9649415774063022 13.711113287576655" Properties=species:S:1:pos:R:3 unique_starting_index=8 config_type=initial n_minim_iter=16 stress="0.10302281978395808 1.3986349582646872e-15 9.139648825420643e-16 1.3986349582646872e-15 0.10302281978395353 -3.4175462199302127e-16 9.139648825420643e-16 -3.4175462199302127e-16 0.04723703120837698" pbc="T T T"
Si       8.58849119       4.33001457       4.75567816
Si       5.56936637       5.27284426       4.75567816
Si       6.26241432       2.18679063       4.75567816
Si       5.51037627       3.97205157       9.87290125
Si       7.41842889       2.78610005       9.87290125
Si       7.49146672       5.03149785       9.87290125
Si       5.88586641       2.94493368      12.13183089
Si       8.12019401       3.62484299      12.13183089
Si       6.41421147       5.21987280      12.13183089
Si       3.24394516       4.73620743       0.84968666
Si       7.88986605       0.44123520       0.84968666
Si       9.28646067       6.61220683       0.84968666
Si       9.48055933       3.84661720      10.32008325
Si      12.34872400       6.28709662      10.32008325
Si       8.80112449       7.55076038      10.32008325
Si       7.62557191       0.78264026       3.93689770
Si       9.12294228       6.21261886       3.93689770
Si       3.67175769       4.79439034       3.93689770
Si      10.21013594       5.89482473       2.41077157
Si      10.21013594       5.89482473       6.02340671
20
Lattice="6.773214401485232 -2.210911431936096e-12 -4.243960831995591e-15 3.386607200744536 5.8657757369637125 2.7686989400973842e-14 3.38660720074327 1.9552585789871009 13.52176454284669" Properties=species:S:1:pos:R:3 unique_starting_index=8 config_type=initial n_minim_iter=17 stress="0.09332232512282058 2.3120434942206466e-15 6.676105744246863e-15 2.3120434942206466e-15 0.0933223251228192 -7.433038913656716e-16 6.676105744246863e-15 -7.433038913656716e-16 0.045599353307479655" pbc="T T T"
Si       8.56673885       4.31579014       4.65775238
Si       5.52547548       5.26111840       4.65775238
Si       6.22742888       2.15464293       4.65775238
Si       5.46473146       3.97834689       9.71163492
Si       7.36871361       2.74342282       9.71163492
Si       7.48619815       5.00978176       9.71163492
Si       5.89542793       2.93089207      11.97133031
Si       8.06048786       3.64014432      11.97133031
Si       6.36372743       5.16051509      11.97133031
Si       3.20576589       4.70399377       0.82623111
Si       7.86976776       0.42427781       0.82623111
Si       9.24410957       6.60327990       0.82623111
Si       9.41650631       3.79398593      10.19412348
Si      12.32570186       6.25794072      10.19412348
Si       8.73725664       7.54540057      10.19412348
Si       7.62160942       0.74735837       3.91879597
Si       9.08839276       6.22682818       3.91879597
Si       3.60964103       4.75736492       3.91879597
Si      10.15982160       5.86577574       2.38544752
Si      10.15982160       5.86577574       5.95934784
20
Lattice="6.793733285281121 -1.949461737923766e-12 -4.5421212483742684e-15 3.3968666426422556 5.883545611588386 2.7099974768574534e-14 3.3968666426411374 1.961181870528746 13.184970458864408" Properties=species:S:1:pos:R:3 unique_starting_index=8 config_type=initial n_minim_iter=18 stress="0.03936406277918542 5.468486719218109e-15 5.99668448740032e-15 5.468486719218109e-15 0.03936406277917706 2.0237735235990176e-15 5.99668448740032e-15 2.0237735235990176e-15 0.014040329626157727" pbc="T T T"
Si       8.58995138       4.41555282       4.60810454
Si       5.46850997       5.23133970       4.60810454
Si       6.32273851       2.12019870       4.60810454
Si       5.45485289       3.95208591       9.45216441
Si       7.43743333       2.74799822       9.45216441
Si       7.48891364       5.06700710       9.45216441
Si       6.05542310       2.88511277      11.64187669
Si       8.06117407       3.80159385      11.64187669
Si       6.26460269       5.08038461      11.64187669
Si       3.18910882       4.72125975       0.74960714
Si       7.90418128       0.40121938       0.74960714
Si       9.28790975       6.64461210       0.74960714
Si       9.37178368       3.91617070       9.90537760
Si      12.30380471       6.15811740       9.90537760
Si       8.89621140       7.57634874       9.90537760
Si       7.62157293       0.73947054       3.85063639
Si       9.13627984       6.23074050       3.85063639
Si       3.62334710       4.79688018       3.85063639
Si      10.19059993       5.88354561       2.30680215
Si      10.19059993       5.88354561       5.96190733
20
Lattice="6.824525055879083 -1.8671977905164513e-12 -4.36015419830929e-15 3.4122625279411656 5.910212067153764 2.684967954140017e-14 3.4122625279400953 1.9700706890505653 13.226988763056589" Properties=species:S:1:pos:R:3 unique_starting_index=8 config_type=initial n_minim_iter=19 stress="-0.03274247429623724 6.386370882098607e-15 6.1220505535443395e-15 6.386370882098607e-15 -0.03274247429625277 3.1076615123493313e-15 6.1220505535443395e-15 3.1076615123493313e-15 -0.010920275366731246" pbc="T T T"
Si       8.66082422       4.50660284       4.62804354
Si       5.41580547       5.24719237       4.62804354
Si       6.39694549       2.06662893       4.62804354
Si       5.45740757       3.96408479       9.48724692
Si       7.48734820       2.74421120       9.48724692
Si       7.52881941       5.11212814       9.48724692
Si       6.12357087       2.88001090      11.65980804
Si       8.09310208       3.86316249      11.65980804
Si       6.25690222       5.07725075      11.65980804
Si       3.20192074       4.75292755       0.75883112
Si       7.93193375       0.39648092       0.75883112
Si       9.33972069       6.67101566       0.75883112
Si       9.39002212       3.98293200       9.91257863
Si      12.32924382       6.14053170       9.91257863
Si       8.99109682       7.60717251       9.91257863
Si       7.63526466       0.74248520       3.86388609
Si       9.18840674       6.24109056       3.86388609
Si       3.64990377       4.83684838       3.86388609
Si      10.23678759       5.91021207       2.31441152