22
Lattice="5.371715671594051 -1.6991615207368416 -1.5207277201779856 -4.281507378695914 10.174603845246631 -1.0308355305558181 -3.8909002598729847 -2.720737622586178 11.673385754464094" Properties=species:S:1:pos:R:3 unique_starting_index=18 config_type=initial n_minim_iter=1 energy=-3581.2043459364377 free_energy=-3581.2043459364377 pbc="T T T"
Si      -1.48632539       8.37700188       1.60434528
Si      -0.62331765       0.05654299       6.62535463
Si      -3.77243643      -2.12361242       9.70959228
Si       1.27965491      -1.87283488       9.60863693
Si      -5.02072367       1.87489135      10.34698482
Si       2.90311905       1.61105557       0.69874521
Si       1.61714881      -0.27447522      -0.14798444
Si      -2.67174913       1.75804489       9.38298766
Si      -0.82660866      -3.10007100       9.62896429
Si      -3.81258696       1.07599165       7.33268480
Si       1.77176364       0.19009825       3.57787369
Si      -4.25141642       4.88382445       5.30949382
Si      -2.77226048      -0.87611694       6.38131285
Si      -2.35037135       7.65087405      -0.54012017
Si      -0.52524269       2.13795091       5.26880824
Si      -0.13754087       6.84830264      -1.29490642
Si      -0.48074508       0.22113666       2.82447208
Si       3.09357463      -4.32241564       6.34059566
Si      -0.32948001       2.41516673       1.87542859
Si      -4.30970300       4.91056928       8.15719090
Si      -2.21079666       3.85271614       4.52906160
Si      -1.59783404      -0.09304893      10.35443310
22
Lattice="5.373264164954399 -1.70077465950596 -1.5069415810545408 -4.293112399494599 10.179665113193582 -1.0529858521939799 -3.90218908785581 -2.7582255891749603 11.570647390474301" Properties=species:S:1:pos:R:3 unique_starting_index=18 config_type=initial n_minim_iter=2 stress="-0.004950230530121674 7.762109905091383e-05 0.00018662649199284462 7.762109905091383e-05 -0.0036697907829735866 0.0017798749974404398 0.00018662649199284462 0.0017798749974404398 -0.002153458472269096" pbc="T T T"
Si      -1.50051414       8.36877832       1.55660164
Si      -0.63233707       0.03221589       6.55821981
Si      -3.78072059      -2.15458396       9.62452169
Si       1.26679193      -1.91112536       9.51564087
Si      -5.03787183       1.84270357      10.24184805
Si       2.89774631       1.60275114       0.68131467
Si       1.61720609      -0.27571018      -0.14836231
Si      -2.68749268       1.72554785       9.28399997
Si      -0.83630903      -3.13379246       9.54348806
Si      -3.82290833       1.05299231       7.25976789
Si       1.76488634       0.17303221       3.53800469
Si      -4.26503977       4.86654682       5.24215169
Si      -2.77920610      -0.89597045       6.32453638
Si      -2.35948489       7.65334105      -0.55934335
Si      -0.53630895       2.11720368       5.20796292
Si      -0.14630831       6.85000985      -1.30762003
Si      -0.48609347       0.21009941       2.79498830
Si       3.08828485      -4.34955524       6.28769463
Si      -0.33548408       2.40715079       1.84758996
Si      -4.32751563       4.88288209       8.06243006
Si      -2.22283107       3.83560396       4.47134884
Si      -1.61252253      -0.13071340      10.25087653
22
Lattice="5.4039451364604005 -1.7059772318412205 -1.5019085889469226 -4.3227694343098815 10.226013932419356 -1.084931204895941 -3.9309672428985962 -2.8094443251858032 11.556779389355508" Properties=species:S:1:pos:R:3 unique_starting_index=18 config_type=initial n_minim_iter=3 stress="0.0008918478690392055 -0.0007323664262260612 -0.0006179350331382178 -0.0007323664262260612 0.0019496189662472907 -0.00022316284255106465 -0.0006179350331382178 -0.00022316284255106465 -0.0007197168600175792" pbc="T T T"
Si      -1.51594010       8.39642406       1.52088134
Si      -0.64050539       0.00842650       6.54232084
Si      -3.80630474      -2.19703678       9.61301031
Si       1.26595152      -1.95564216       9.49838542
Si      -5.07699050       1.81634985      10.21533550
Si       2.91109306       1.60367691       0.67141321
Si       1.62646606      -0.27691769      -0.14891350
Si      -2.71163434       1.69992396       9.25714581
Si      -0.84710792      -3.18073533       9.53253730
Si      -3.85017143       1.03240527       7.24219849
Si       1.77077512       0.15843418       3.52726158
Si      -4.29661795       4.86779822       5.21410447
Si      -2.79922646      -0.92137564       6.31633558
Si      -2.37685624       7.68790792      -0.58339221
Si      -0.54582439       2.10576131       5.18840367
Si      -0.15155968       6.88144912      -1.32972894
Si      -0.49263268       0.19973991       2.78715409
Si       3.10172049      -4.39267724       6.28572786
Si      -0.34033524       2.40959380       1.83462818
Si      -4.36175681       4.87430974       8.02971866
Si      -2.24225803       3.83374424       4.44840277
Si      -1.63013505      -0.16899256      10.22717604
22
Lattice="5.411384459985522 -1.6703591456119158 -1.4822659316422664 -4.3043134742128 10.155623601563843 -1.1451361558252144 -3.924114814607629 -2.8623227533131725 11.572045175339344" Properties=species:S:1:pos:R:3 unique_starting_index=18 config_type=initial n_minim_iter=4 stress="0.0011039853683827902 0.0011623372957590722 0.0012214721089877272 0.0011623372957590722 -0.001951971576922806 -0.0025715025034175297 0.0012214721089877272 -0.0025715025034175297 0.0002006375089653021" pbc="T T T"
Si      -1.48441883       8.33655259       1.47048029
Si      -0.61976845      -0.02318231       6.54294037
Si      -3.79552932      -2.24897076       9.62445492
Si       1.28607528      -1.98535609       9.51723187
Si      -5.07051589       1.74489949      10.20901651
Si       2.92982069       1.59851408       0.67312853
Si       1.63305902      -0.26665447      -0.14599340
Si      -2.69136979       1.63976913       9.25129660
Si      -0.83681642      -3.20877562       9.55198698
Si      -3.84041239       0.97695906       7.23680797
Si       1.78639125       0.14442129       3.53456903
Si      -4.28274515       4.79325545       5.18141957
Si      -2.79686919      -0.95811216       6.32643860
Si      -2.35652261       7.64423812      -0.62116883
Si      -0.52910915       2.06461700       5.18462337
Si      -0.13313916       6.84665238      -1.36161480
Si      -0.49257659       0.17959488       2.78362750
Si       3.11034390      -4.38665054       6.31771959
Si      -0.32709281       2.38422581       1.82643103
Si      -4.33956366       4.79195722       8.00995176
Si      -2.22906474       3.77413441       4.43242191
Si      -1.60958157      -0.22375099      10.22845365
22
Lattice="5.4209640729645505 -1.684775937651379 -1.5109156569127584 -4.310497661337275 10.15826897249881 -1.0659289659815396 -3.9655808921393914 -2.7883067386830023 11.561510194415785" Properties=species:S:1:pos:R:3 unique_starting_index=18 config_type=initial n_minim_iter=5 stress="0.0015512452468274315 0.0010631900205067722 -0.0012634054461715131 0.0010631900205067722 -0.0020911167440727583 0.0004068111264069452 -0.0012634054461715131 0.0004068111264069452 -0.0012329023786409132" pbc="T T T"
Si      -1.48303985       8.35975580       1.50250766
Si      -0.62428856       0.02656400       6.52783244
Si      -3.81045722      -2.20646117       9.62159500
Si       1.25118208      -1.92373443       9.48589743
Si      -5.14213384       1.83484166      10.24722874
Si       2.93554505       1.59640658       0.67654421
Si       1.64360133      -0.26030889      -0.16092438
Si      -2.72703395       1.71735072       9.26555199
Si      -0.87011653      -3.13920963       9.51851061
Si      -3.86804265       1.02515165       7.25787226
Si       1.77421162       0.16093271       3.52938284
Si      -4.31566562       4.81382280       5.21033784
Si      -2.82202147      -0.92365982       6.34409904
Si      -2.35263575       7.67039852      -0.54848934
Si      -0.55436047       2.09546246       5.20506586
Si      -0.13733409       6.84278523      -1.31075587
Si      -0.52029127       0.18593726       2.77216235
Si       3.08834652      -4.35220430       6.26818924
Si      -0.33065070       2.39481183       1.84832812
Si      -4.37522317       4.84929065       8.06981946
Si      -2.26175494       3.78205091       4.47272945
Si      -1.64401202      -0.15907706      10.20982735
22
Lattice="5.391560516640952 -1.7071374248346871 -1.4943817511276223 -4.321051475920355 10.216403817691141 -1.0901286402585293 -3.89669780383446 -2.7974425943843966 11.57288037891212" Properties=species:S:1:pos:R:3 unique_starting_index=18 config_type=initial n_minim_iter=6 stress="-0.0019018615155742818 -0.00021794168277907192 0.0007766318729394108 -0.00021794168277907192 0.00042213418237806063 -0.0009069374634398691 0.0007766318729394108 -0.0009069374634398691 -1.946834288834761e-05" pbc="T T T"
Si      -1.48974193       8.40230412       1.48931221
Si      -0.59340671       0.02549085       6.53414528
Si      -3.74412863      -2.21930893       9.63118481
Si       1.28111869      -1.94124854       9.50640316
Si      -5.09568623       1.85783876      10.25358631
Si       2.92005528       1.59281360       0.68729266
Si       1.63891505      -0.26256941      -0.15841176
Si      -2.68599718       1.73293568       9.27369590
Si      -0.82378474      -3.15333235       9.53242667
Si      -3.82460212       1.03524450       7.26047495
Si       1.77460290       0.15127149       3.54273163
Si      -4.29235940       4.83652857       5.19803667
Si      -2.78176920      -0.92401462       6.35124871
Si      -2.36274177       7.71846860      -0.55866346
Si      -0.54059736       2.10190342       5.21521405
Si      -0.16273239       6.87332753      -1.31580974
Si      -0.51317825       0.18176601       2.77127023
Si       3.10400714      -4.38756518       6.29176471
Si      -0.32833455       2.40396814       1.85027907
Si      -4.33932196       4.87821748       8.07286057
Si      -2.24971787       3.79399622       4.47512652
Si      -1.59964162      -0.16306608      10.21893807
22
Lattice="5.441068142793021 -1.7332977761058046 -1.4995601780959724 -4.3979981650550695 10.190573754830822 -1.0221650709663301 -3.9033435155923817 -2.688521249199408 11.54732006797151" Properties=species:S:1:pos:R:3 unique_starting_index=18 config_type=initial n_minim_iter=7 stress="0.0034676976969472907 -0.0027986327628691213 0.0007947531955523108 -0.0027986327628691213 -0.0013254828374386141 0.002289291396736424 0.0007947531955523108 0.002289291396736424 0.0009933795584897436" pbc="T T T"
Si      -1.51388725       8.40130137       1.55087315
Si      -0.57469365       0.07945511       6.52070063
Si      -3.72921558      -2.15657944       9.62387993
Si       1.30780128      -1.85843943       9.47640962
Si      -5.17110877       1.97451444      10.27481469
Si       2.94907690       1.58076731       0.70147283
Si       1.67207646      -0.25436233      -0.16829720
Si      -2.70336242       1.83569587       9.28725856
Si      -0.80416663      -3.05502348       9.48699498
Si      -3.84085455       1.09674204       7.27095653
Si       1.78211520       0.15330974       3.54814326
Si      -4.35660146       4.84207570       5.21055605
Si      -2.78519184      -0.85288553       6.34281827
Si      -2.41316425       7.72348573      -0.49394481
Si      -0.54440492       2.13638839       5.24662291
Si      -0.19778050       6.83536828      -1.25276795
Si      -0.52315307       0.18628831       2.75199061
Si       3.14751676      -4.35911963       6.25298496
Si      -0.33233065       2.40429457       1.86523213
Si      -4.39003790       4.94499762       8.12210796
Si      -2.29010425       3.79315562       4.51463846
Si      -1.60415340      -0.08551035      10.20058504
22
Lattice="5.421083696284688 -1.6941251116437008 -1.531021079088487 -4.286208275176291 10.206347831114048 -0.9845910286389128 -3.9826339496970022 -2.7237469705533486 11.567050628356807" Properties=species:S:1:pos:R:3 unique_starting_index=18 config_type=initial n_minim_iter=8 stress="0.0017758775371657285 0.0008160473933980639 -0.00272681938531516 0.0008160473933980639 0.00218103550940632 0.0020613039150164845 -0.00272681938531516 0.0020613039150164845 0.001964203893538749" pbc="T T T"
Si      -1.42320581       8.44780091       1.58345635
Si      -0.59732458       0.08517773       6.51755028
Si      -3.77264321      -2.21553079       9.65792580
Si       1.23400533      -1.82921679       9.45252316
Si      -5.22813358       1.97527698      10.31723912
Si       2.96379479       1.62139335       0.68580211
Si       1.68545817      -0.22616254      -0.18619361
Si      -2.73083138       1.86320517       9.31242757
Si      -0.87917591      -3.05284194       9.46833938
Si      -3.85043427       1.07534199       7.30331979
Si       1.74681287       0.15915833       3.54091049
Si      -4.34515705       4.80562567       5.22733135
Si      -2.81084938      -0.86074775       6.35511474
Si      -2.33434180       7.76500129      -0.46158407
Si      -0.54651890       2.15580062       5.27063234
Si      -0.13084710       6.86486043      -1.22968819
Si      -0.53668008       0.17107860       2.73870269
Si       3.05831418      -4.36817570       6.22172426
Si      -0.31557636       2.41245099       1.86451193
Si      -4.38463082       4.95294879       8.16990026
Si      -2.28332707       3.77565234       4.54579122
Si      -1.66516081      -0.08912850      10.20262873
22
Lattice="5.4231344106718735 -1.6622752302121002 -1.4742729483744481 -4.249380613192076 10.206202440893067 -1.0231955839413658 -3.920699717996658 -2.766809737242339 11.46055895103309" Properties=species:S:1:pos:R:3 unique_starting_index=18 config_type=initial n_minim_iter=9 stress="0.0011936418420864577 0.001661341277234903 0.00139759141348497 0.001661341277234903 0.0020362357072220513 0.00037123147107502564 0.00139759141348497 0.00037123147107502564 -0.0016023719610665655" pbc="T T T"
Si      -1.34150652       8.47180197       1.60432631
Si      -0.54516567       0.06679888       6.47092781
Si      -3.70467432      -2.28700902       9.59616800
Si       1.30662667      -1.80712249       9.37386981
Si      -5.18406835       1.96156282      10.20226990
Si       3.00590794       1.65793251       0.69397938
Si       1.72938056      -0.19351171      -0.17696667
Si      -2.65523559       1.89098638       9.24149570
Si      -0.80873671      -3.05466099       9.36867052
Si      -3.77559657       1.04703845       7.23826890
Si       1.75343293       0.13579224       3.53201696
Si      -4.31998566       4.73242185       5.13713810
Si      -2.74383619      -0.85403624       6.27194969
Si      -2.31473415       7.78814745      -0.48185989
Si      -0.46998630       2.17044436       5.25865470
Si      -0.10528767       6.86615584      -1.21136239
Si      -0.49603982       0.14657290       2.69404360
Si       3.07717551      -4.41583910       6.18818634
Si      -0.28727625       2.40186756       1.81685255
Si      -4.31817480       4.95087710       8.08539280
Si      -2.23732751       3.73972875       4.50530442
Si      -1.61917538      -0.11356417      10.12647656
22
Lattice="5.425415343637077 -1.6683047350022917 -1.49489761703428 -4.272870502625768 10.181341988022172 -1.0456098985834854 -3.9461830918094196 -2.7797368530428943 11.538354412482654" Properties=species:S:1:pos:R:3 unique_starting_index=18 config_type=initial n_minim_iter=10 stress="-0.0012471370894303906 -0.0010596198188984577 -0.001484616980767836 -0.0010596198188984577 -0.0011329496487717816 -0.002022155171579953 -0.001484616980767836 -0.002022155171579953 0.0014812341916949278" pbc="T T T"
Si      -1.36655430       8.43928791       1.59504348
Si      -0.56634951       0.04533741       6.50453684
Si      -3.72153817      -2.30467396       9.67169824
Si       1.27670266      -1.82725063       9.41133308
Si      -5.22798963       1.94320028      10.26241282
Si       2.99636939       1.64258517       0.67989349
Si       1.74092247      -0.19144974      -0.18305160
Si      -2.69138213       1.87647143       9.29342918
Si      -0.82529710      -3.06247361       9.41615155
Si      -3.79286902       1.03333654       7.28954772
Si       1.72924113       0.11172408       3.54253401
Si      -4.35634966       4.69342007       5.15641710
Si      -2.74926059      -0.85864445       6.31705230
Si      -2.33698821       7.77091529      -0.49614477
Si      -0.48940772       2.15086107       5.28849694
Si      -0.12558350       6.83739957      -1.23457786
Si      -0.50144677       0.13360459       2.70255151
Si       3.05662227      -4.43953547       6.21257902
Si      -0.30239284       2.38226432       1.80900199
Si      -4.35975928       4.92392067       8.12709615
Si      -2.26409828       3.70845184       4.52566268
Si      -1.66380103      -0.14047160      10.18311423
22
Lattice="5.419627074936633 -1.6500440876801485 -1.4419224338228949 -4.242680423047361 10.173708653947841 -1.0330013794130792 -3.854219841084446 -2.746335800658273 11.437092207000937" Properties=species:S:1:pos:R:3 unique_starting_index=18 config_type=initial n_minim_iter=11 stress="-0.0038252898945927184 -0.0017513587816677804 0.0022052875951903885 -0.0017513587816677804 -0.003327891475384143 -0.0010316180794922073 0.0022052875951903885 -0.0010316180794922073 0.0003013816301040002" pbc="T T T"
Si      -1.26606412       8.47329338       1.60220914
Si      -0.47911199       0.07084297       6.47365170
Si      -3.62307648      -2.32065429       9.62770366
Si       1.36792692      -1.73805509       9.32618296
Si      -5.18657062       1.99983790      10.17408303
Si       3.04488352       1.68630686       0.71362164
Si       1.82311894      -0.15173811      -0.16234261
Si      -2.60120230       1.99605905       9.25823168
Si      -0.71816191      -2.97727745       9.29625296
Si      -3.69624712       1.07099011       7.26618768
Si       1.73395500       0.11579836       3.55056335
Si      -4.34507808       4.60304318       5.07831720
Si      -2.64597083      -0.85322300       6.30629078
Si      -2.29983111       7.81098909      -0.43637716
Si      -0.39652366       2.20269365       5.32700645
Si      -0.11391363       6.82183785      -1.18400737
Si      -0.46600624       0.11738807       2.65756646
Si       3.05128697      -4.44846663       6.14126355
Si      -0.28305033       2.36529476       1.74992460
Si      -4.27142539       4.98045746       8.10346974
Si      -2.21895285       3.67034108       4.51219405
Si      -1.63252543      -0.08900322      10.12975428
22
Lattice="5.436081756052365 -1.6210276765320593 -1.433511230152081 -4.194726816048208 10.171968466570382 -1.0037779235405855 -3.879410664928122 -2.7472130705263846 11.378538016508385" Properties=species:S:1:pos:R:3 unique_starting_index=18 config_type=initial n_minim_iter=12 stress="-0.001444608789102154 -0.0008706338169529252 0.0013721281062222576 -0.0008706338169529252 -0.0009828533358361919 -0.0002736731200071507 0.0013721281062222576 -0.0002736731200071507 4.348830513319256e-07" pbc="T T T"
Si      -1.18713048       8.50252451       1.61720133
Si      -0.46204608       0.08275952       6.45217662
Si      -3.63489362      -2.34573410       9.60642773
Si       1.37566867      -1.68216551       9.25410592
Si      -5.22070639       2.01068912      10.12923507
Si       3.08756520       1.73184790       0.71825840
Si       1.88289127      -0.12133493      -0.15644972
Si      -2.59191836       2.06518501       9.23798579
Si      -0.71552962      -2.93388107       9.20964265
Si      -3.68006460       1.08269753       7.26036668
Si       1.72727776       0.12595702       3.54282477
Si      -4.36399657       4.53248107       5.03987415
Si      -2.62386947      -0.85691190       6.30018654
Si      -2.25186038       7.83578763      -0.38895143
Si      -0.35882611       2.23737884       5.34830480
Si      -0.07410048       6.82375921      -1.15313508
Si      -0.45557204       0.10811834       2.63069877
Si       3.00913965      -4.45561942       6.08149594
Si      -0.27563073       2.35491040       1.70807496
Si      -4.25181220       5.00819697       8.09589138
Si      -2.20578416       3.64698607       4.50523506
Si      -1.67479737      -0.06194731      10.09569734
22
Lattice="5.4591960063442935 -1.5817079840406336 -1.4384611767150275 -4.135697821432557 10.149348544782308 -0.9713455337875394 -3.9412109967700646 -2.756617550127492 11.338229922192596" Properties=species:S:1:pos:R:3 unique_starting_index=18 config_type=initial n_minim_iter=13 stress="0.0018929511324049305 0.0006065835965579541 -0.0007798391977815038 0.0006065835965579541 0.001281635639294938 0.0006064612514670594 -0.0007798391977815038 0.0006064612514670594 -0.0007774444714095428" pbc="T T T"
Si      -1.11503227       8.50572712       1.62330767
Si      -0.46440537       0.09048075       6.44171330
Si      -3.68924637      -2.35897273       9.59366690
Si       1.35878313      -1.63755107       9.19071523
Si      -5.27229561       1.98298898      10.10107131
Si       3.12822217       1.78229219       0.71651175
Si       1.93933539      -0.09831749      -0.15157424
Si      -2.60192663       2.11396472       9.22543676
Si      -0.75103503      -2.89743612       9.13155963
Si      -3.68894420       1.08733944       7.26429692
Si       1.72915963       0.15024425       3.53604633
Si      -4.39036145       4.44426742       5.00753627
Si      -2.62533424      -0.86996315       6.30705536
Si      -2.18653311       7.82864789      -0.34240978
Si      -0.34016980       2.25917527       5.36879589
Si      -0.01924521       6.81876046      -1.13648094
Si      -0.45277441       0.10698212       2.61748135
Si       2.95076144      -4.44473334       6.04196251
Si      -0.27859802       2.33599304       1.66417652
Si      -4.24165721       5.01256921       8.09217484
Si      -2.19658086       3.62458309       4.49331577
Si      -1.74330906      -0.03213255      10.07947387
22
Lattice="5.475275130226472 -1.5408893833443444 -1.445739422123318 -4.078022597987237 10.102062835456232 -0.9475489784233301 -3.987297444849212 -2.757308095203316 11.346246339752769" Properties=species:S:1:pos:R:3 unique_starting_index=18 config_type=initial n_minim_iter=14 stress="0.0034536907813334694 0.0019087520146356335 -0.0023313050471521204 0.0019087520146356335 0.002241483881866858 0.0010525744562633924 -0.0023313050471521204 0.0010525744562633924 0.0007206196124978446" pbc="T T T"
Si      -1.05005273       8.48104858       1.64742807
Si      -0.45561231       0.10094172       6.45968928
Si      -3.72624474      -2.35560977       9.62404578
Si       1.34426182      -1.59742531       9.16426079
Si      -5.32318384       1.93923565      10.12649139
Si       3.16340819       1.83519889       0.71766482
Si       1.99676928      -0.08051314      -0.15256133
Si      -2.59089586       2.17376378       9.25150565
Si      -0.79568065      -2.85101941       9.07474561
Si      -3.68272138       1.09380266       7.29867825
Si       1.74769841       0.18041236       3.55350032
Si      -4.41967662       4.31163206       4.97120975
Si      -2.61447550      -0.86200012       6.33209985
Si      -2.11211432       7.79022483      -0.30107110
Si      -0.32585012       2.27013456       5.41961476
Si       0.03456267       6.79644329      -1.12665003
Si      -0.45077633       0.10676811       2.61858920
Si       2.89527518      -4.42472283       6.06552320
Si      -0.29327772       2.30134288       1.62096811
Si      -4.21343999       5.00550658       8.11825456
Si      -2.18132408       3.59638319       4.49446221
Si      -1.79783904       0.01909144      10.11004696
22
Lattice="5.478229933660297 -1.54084713625562 -1.4432812223959484 -4.095537357479858 10.07039240721003 -0.9643277677869392 -3.973314249698134 -2.752217769601432 11.378718121189442" Properties=species:S:1:pos:R:3 unique_starting_index=18 config_type=initial n_minim_iter=15 stress="0.0010637477343935769 0.0015041390284123003 -0.0024578631984747083 0.0015041390284123003 0.0008048955660957856 0.00046851129140281595 -0.0024578631984747083 0.00046851129140281595 -0.00032915659858897417" pbc="T T T"
Si      -1.07965871       8.43067603       1.65493646
Si      -0.44108036       0.09969993       6.48645781
Si      -3.71956208      -2.31746876       9.65295312
Si       1.34718268      -1.62633852       9.18766856
Si      -5.32997532       1.88818662      10.16809686
Si       3.15416398       1.84290697       0.71644388
Si       2.00033087      -0.10112667      -0.15938893
Si      -2.56284966       2.18385119       9.26983826
Si      -0.82235420      -2.84747260       9.07032888
Si      -3.67208862       1.10002263       7.31737144
Si       1.78990799       0.19917197       3.58088210
Si      -4.43764061       4.22875430       4.93489437
Si      -2.60342337      -0.84406820       6.34486192
Si      -2.09434555       7.72823956      -0.31432261
Si      -0.33877376       2.24817773       5.44032327
Si       0.03362496       6.77590055      -1.14673527
Si      -0.45133883       0.11386872       2.64438362
Si       2.90281074      -4.39934033       6.16140578
Si      -0.32826868       2.27130036       1.60361555
Si      -4.19159167       4.98168286       8.11841398
Si      -2.17109796       3.60096067       4.48253169
Si      -1.78181907       0.06606837      10.15371700
22
Lattice="5.480524487805183 -1.5553016335378458 -1.4118471777275938 -4.136445105295623 10.070529792382672 -0.9845036118772547 -3.8950258010326686 -2.7280093244241925 11.366926717526324" Properties=species:S:1:pos:R:3 unique_starting_index=18 config_type=initial n_minim_iter=16 stress="-0.0003378220009493337 -0.00045317886832056437 0.0016912912738219898 -0.00045317886832056437 -0.0003570677358924448 -0.0002027709122322123 0.0016912912738219898 -0.0002027709122322123 0.0013254855580747296" pbc="T T T"
Si      -1.07911951       8.43547796       1.68081810
Si      -0.38384037       0.10755945       6.48747725
Si      -3.63142893      -2.31517477       9.66636379
Si       1.40660374      -1.61983348       9.18534398
Si      -5.31779924       1.92456215      10.16674527
Si       3.16383045       1.84115785       0.72911428
Si       2.02623496      -0.09419897      -0.16333922
Si      -2.50099122       2.24317662       9.27139911
Si      -0.75584627      -2.82223074       9.05069899
Si      -3.61243566       1.11989671       7.31713326
Si       1.80516644       0.17985828       3.60239055
Si      -4.45516027       4.17127638       4.88561519
Si      -2.54560804      -0.81057547       6.33357720
Si      -2.11013085       7.73864317      -0.31898854
Si      -0.29930063       2.26139444       5.46324372
Si       0.00596368       6.76050171      -1.13042584
Si      -0.43445135       0.09711087       2.63616318
Si       2.93286428      -4.40969006       6.18551685
Si      -0.33913038       2.25716368       1.58772618
Si      -4.16124738       5.00526283       8.11252617
Si      -2.15747389       3.59338981       4.48585362
Si      -1.72176969       0.10120808      10.15422181
22
Lattice="5.479410697729169 -1.5775998548848633 -1.4130242010572378 -4.176481456398376 10.086283793036932 -0.9982726353003837 -3.8819357869762627 -2.7261424468580944 11.3773705980779" Properties=species:S:1:pos:R:3 unique_starting_index=18 config_type=initial n_minim_iter=17 stress="-0.0016309949726508685 -0.001776155790750739 0.0026316532745629673 -0.001776155790750739 -0.0008114271885475545 -0.0008255323737136494 0.0026316532745629673 -0.0008255323737136494 -0.00044990319790343505" pbc="T T T"
Si      -1.13117766       8.43069214       1.67262875
Si      -0.38951346       0.10056283       6.49107417
Si      -3.62621594      -2.29926216       9.66953796
Si       1.40292854      -1.66343808       9.20576390
Si      -5.30833701       1.92472367      10.17478718
Si       3.13871702       1.81567481       0.72077439
Si       1.99669146      -0.11393770      -0.17311777
Si      -2.50565923       2.21874601       9.26202447
Si      -0.74980948      -2.85302772       9.08853899
Si      -3.62135754       1.12312192       7.30953351
Si       1.80808279       0.16864581       3.60200222
Si      -4.45922471       4.19802855       4.89433985
Si      -2.55801122      -0.81279044       6.33073703
Si      -2.13415110       7.73505656      -0.34789951
Si      -0.31304235       2.25265517       5.43442874
Si      -0.01948263       6.76561597      -1.14411173
Si      -0.43597457       0.09692191       2.65531774
Si       2.94547720      -4.39591662       6.20315375
Si      -0.35857235       2.26246649       1.60073464
Si      -4.18174309       5.00027907       8.09448935
Si      -2.16265992       3.62353335       4.48047950
Si      -1.69487762       0.10593673      10.16173934
22
Lattice="5.496432417765721 -1.5656866669229876 -1.4411251700732866 -4.161594073380836 10.063165779139178 -0.9706863670011723 -3.951872808791613 -2.720657141531391 11.404774392064882" Properties=species:S:1:pos:R:3 unique_starting_index=18 config_type=initial n_minim_iter=18 stress="-0.0013181715267085918 -0.0011263444154374987 0.001329011977517606 -0.0011263444154374987 -0.003515738355260225 -0.000920862510405084 0.001329011977517606 -0.000920862510405084 -0.0015582190631971207" pbc="T T T"
Si      -1.13287230       8.41409581       1.69374044
Si      -0.40960562       0.10561112       6.50861468
Si      -3.68869865      -2.28436939       9.71724901
Si       1.34451506      -1.68786847       9.20261825
Si      -5.37509284       1.90320155      10.22468778
Si       3.13317621       1.82248087       0.69794726
Si       2.00330095      -0.11735301      -0.20323641
Si      -2.53149481       2.24435620       9.27425043
Si      -0.80641823      -2.86261362       9.11173265
Si      -3.65065916       1.13492611       7.34062019
Si       1.80068520       0.17184262       3.60598918
Si      -4.50754756       4.11232111       4.90024790
Si      -2.59365384      -0.81498472       6.36008887
Si      -2.08084280       7.71150904      -0.34383747
Si      -0.32116721       2.26531048       5.42241066
Si       0.00921703       6.75146838      -1.14306441
Si      -0.44425752       0.08509780       2.69038085