4
Lattice="1.9578464930168904 -3.3910895993257992 6.592199375268139e-35 1.9578464930168904 3.3910895993257992 -6.592199375268201e-35 1.047962005834664e-48 1.2520264931718732e-34 6.4405424917883005" Properties=species:S:1:pos:R:3:forces:R:3 cutoff=-1.0 nneightol=1.2 n_minim_iter=1 energy=-652.6095423192774 stress="0.021597827572070093 2.1344089248778847e-16 -9.630907676855095e-18 2.1344089248778847e-16 0.021597827572070318 -6.447623488346497e-17 -9.630907676855095e-18 -6.447623488346497e-17 0.021534843985703753" free_energy=-652.6095423192774 pbc="T T T"
Si       1.95784649       1.13036320       0.40273309       0.00000000       0.00000000       0.01779650
Si       1.95784649      -1.13036320       3.62300434      -0.00000000       0.00000000       0.01779650
Si       1.95784649       1.13036320       2.81753815       0.00000000      -0.00000000      -0.01779650
Si       1.95784649      -1.13036320      -0.40273309      -0.00000000       0.00000000      -0.01779650
4
Lattice="1.957651376944619 -3.390751648375253 7.503752364688023e-20 1.957651376944619 3.390751648375253 -7.503752364688023e-20 9.690463510771251e-36 -1.4251536244524838e-19 6.44182639350179" Properties=species:S:1:pos:R:3:forces:R:3 cutoff=-1.0 nneightol=1.2 n_minim_iter=2 energy=-652.6095779756761 stress="0.0216480576915133 -6.357813818785188e-17 -6.17483201306825e-17 -6.357813818785188e-17 0.02164805769151361 -1.7320141584714558e-18 -6.17483201306825e-17 -1.7320141584714558e-18 0.021317461591673734" free_energy=-652.6095779756761 pbc="T T T"
Si       1.95765138       1.13025055       0.40380143       0.00000000      -0.00000000      -0.00146378
Si       1.95765138      -1.13025055       3.62471463       0.00000000       0.00000000      -0.00146378
Si       1.95765138       1.13025055       2.81711176      -0.00000000      -0.00000000       0.00146378
Si       1.95765138      -1.13025055      -0.40380143      -0.00000000       0.00000000       0.00146378
