4
Lattice="1.7471923737374842 -3.026225961910193 -1.1414568391798662e-18 1.7471923737374842 3.026225961910193 1.1414568391798554e-18 1.766079439415914e-32 -2.178855254534756e-18 5.776572632614927" Properties=species:S:1:pos:R:3:forces:R:3 cutoff=-1.0 nneightol=1.2 n_minim_iter=1 energy=-650.22011449061 stress="-0.3175134426734712 7.447724759148363e-16 -4.884888294969e-16 7.447724759148363e-16 -0.31751344267347026 9.467502414287779e-17 -4.884888294969e-16 9.467502414287779e-17 -0.31460377340830264" free_energy=-650.22011449061 pbc="T T T"
Si       1.74719237       1.00874199       0.37634794       0.00000000      -0.00000000       0.05172500
Si       1.74719237      -1.00874199       3.26463426      -0.00000000       0.00000000       0.05172500
Si       1.74719237       1.00874199       2.51193838       0.00000000      -0.00000000      -0.05172500
Si       1.74719237      -1.00874199      -0.37634794      -0.00000000       0.00000000      -0.05172500
4
Lattice="1.7477195946239186 -3.0271391352723094 -5.471846049703956e-19 1.7477195946239186 3.0271391352723094 5.471846049703733e-19 1.764887918620909e-32 -3.3107173820594953e-18 5.773088011405974" Properties=species:S:1:pos:R:3:forces:R:3 cutoff=-1.0 nneightol=1.2 n_minim_iter=2 energy=-650.2201955817213 stress="-0.31639058457840263 1.4532145871509002e-16 -1.551039905514257e-17 1.4532145871509002e-16 -0.3163905845784025 8.258174334516845e-17 -1.551039905514257e-17 8.258174334516845e-17 -0.3166567771567948" free_energy=-650.2201955817213 pbc="T T T"
Si       1.74771959       1.00904638       0.37638416       0.00000000      -0.00000000       0.00955141
Si       1.74771959      -1.00904638       3.26292817       0.00000000      -0.00000000       0.00955141
Si       1.74771959       1.00904638       2.51015985      -0.00000000      -0.00000000      -0.00955141
Si       1.74771959      -1.00904638      -0.37638416      -0.00000000       0.00000000      -0.00955141
