4
Lattice="1.7477195946239186 -3.0271391352723094 -5.471846049703956e-19 1.7477195946239186 3.0271391352723094 5.471846049703733e-19 1.764887918620909e-32 -3.3107173820594953e-18 5.773088011405974" Properties=species:S:1:pos:R:3:forces:R:3 cutoff=-1.0 nneightol=1.2 n_minim_iter=2 energy=-650.2201955817213 stress="-0.31639058457840263 1.4532145871509002e-16 -1.551039905514257e-17 1.4532145871509002e-16 -0.3163905845784025 8.258174334516845e-17 -1.551039905514257e-17 8.258174334516845e-17 -0.3166567771567948" free_energy=-650.2201955817213 pbc="T T T"
Si       1.74771959       1.00904638       0.37638416       0.00000000      -0.00000000       0.00955141
Si       1.74771959      -1.00904638       3.26292817       0.00000000      -0.00000000       0.00955141
Si       1.74771959       1.00904638       2.51015985      -0.00000000      -0.00000000      -0.00955141
Si       1.74771959      -1.00904638      -0.37638416      -0.00000000       0.00000000      -0.00955141
