4
Lattice="1.8056436438729173 -3.127466531551696 4.1333001086905795e-33 1.8056436438729175 3.127466531551696 -4.1333001086905925e-33 2.2499612414198442e-47 -7.687302156691983e-33 5.949497514505713" Properties=species:S:1:pos:R:3:forces:R:3 cutoff=-1.0 nneightol=1.2 n_minim_iter=3 energy=-652.0026604233673 stress="-0.13199960957410758 -7.266072935754501e-17 -9.194681161160465e-17 -7.266072935754501e-17 -0.13199960957410978 -1.3183140763576736e-16 -9.194681161160465e-17 -1.3183140763576736e-16 -0.13202474448181034" free_energy=-652.0026604233673 pbc="T T T"
Si       1.80564364       1.04248884       0.37950201       0.00000000       0.00000000      -0.00080282
Si       1.80564364      -1.04248884       3.35425077       0.00000000      -0.00000000      -0.00080282
Si       1.80564364       1.04248884       2.59524675      -0.00000000       0.00000000       0.00080282
Si       1.80564364      -1.04248884      -0.37950201      -0.00000000      -0.00000000       0.00080282
