4
Lattice="2.072583173959819 -3.5898193602107717 -2.3274260980613087e-19 2.0725831739598193 3.5898193602107717 2.327426098061279e-19 1.8771385494278535e-33 -3.297348459690491e-19 6.841896539371141" Properties=species:S:1:pos:R:3:forces:R:3 cutoff=-1.0 nneightol=1.2 n_minim_iter=2 energy=-651.7541235398826 stress="0.07452831687258439 9.082591169693126e-18 9.09890521855977e-18 9.082591169693126e-18 0.07452831687258467 8.940088232897541e-18 9.09890521855977e-18 8.940088232897541e-18 0.07492598094456497" free_energy=-651.7541235398826 pbc="T T T"
Si       2.07258317       1.19660645       0.44118293       0.00000000      -0.00000000       0.00518407
Si       2.07258317      -1.19660645       3.86213120       0.00000000       0.00000000       0.00518407
Si       2.07258317       1.19660645       2.97976534      -0.00000000      -0.00000000      -0.00518407
Si       2.07258317      -1.19660645      -0.44118293      -0.00000000       0.00000000      -0.00518407
