4
Lattice="1.7658951335588744 -3.0586200921626 -1.1705358728125157e-18 1.7658951335588748 3.0586200921626 1.1705358728124944e-18 3.8295295377648914e-35 2.231859665748416e-18 5.8433554992189185" Properties=species:S:1:pos:R:3:forces:R:3 cutoff=-1.0 nneightol=1.2 n_minim_iter=3 energy=-651.300879855832 stress="-0.21565029130078842 1.8165182339386253e-16 -8.149023515802205e-17 1.8165182339386253e-16 -0.21565029130078867 -4.8677721839077395e-17 -8.149023515802205e-17 -4.8677721839077395e-17 -0.2159040339833072" free_energy=-651.300879855832 pbc="T T T"
Si       1.76589513       1.01954003       0.37952245       0.00000000       0.00000000       0.00480806
Si       1.76589513      -1.01954003       3.30120020      -0.00000000      -0.00000000       0.00480806
Si       1.76589513       1.01954003       2.54215530       0.00000000       0.00000000      -0.00480806
Si       1.76589513      -1.01954003      -0.37952245      -0.00000000      -0.00000000      -0.00480806
