4
Lattice="2.0596729500250825 -3.5674581964187166 -2.0158571663900871e-19 2.059672950025082 3.5674581964187166 2.0158571663900763e-19 -3.361480953998826e-33 1.3603933665882663e-21 6.789377920715536" Properties=species:S:1:pos:R:3:forces:R:3 cutoff=-1.0 nneightol=1.2 n_minim_iter=2 energy=-651.9020568196795 stress="0.07051965565791295 8.174332052723814e-17 1.977399023709063e-17 8.174332052723814e-17 0.07051965565791303 1.4804380104771167e-17 1.977399023709063e-17 1.4804380104771167e-17 0.07066628781042647" free_energy=-651.9020568196795 pbc="T T T"
Si       2.05967295       1.18915273       0.43596121       0.00000000       0.00000000       0.00114645
Si       2.05967295      -1.18915273       3.83065017      -0.00000000       0.00000000       0.00114645
Si       2.05967295       1.18915273       2.95872775       0.00000000      -0.00000000      -0.00114645
Si       2.05967295      -1.18915273      -0.43596121      -0.00000000      -0.00000000      -0.00114645
