4
Lattice="1.9813410084330378 -3.431783293725777 0.0 1.9813410084330378 3.431783293725777 0.0 0.0 0.0 6.471032650910501" Properties=species:S:1:pos:R:3:forces:R:3 cutoff=-1.0 nneightol=1.2 n_minim_iter=1 energy=-17.12810471396331 stress="0.051945288941884805 1.8165182339386252e-17 -2.3259084036368997e-17 1.8165182339386252e-17 0.05194528894188467 -1.0947414490222369e-16 -2.3259084036368997e-17 -1.0947414490222369e-16 0.05194528696525091" free_energy=-17.12810471396331 pbc="T T T"
Si       1.98134101       1.14392776       0.40443955       0.00000000       0.00000000      -0.00000011
Si       1.98134101      -1.14392776       3.63995587      -0.00000000       0.00000000      -0.00000011
Si       1.98134101       1.14392776       2.83107678       0.00000000      -0.00000000       0.00000011
Si       1.98134101      -1.14392776      -0.40443955      -0.00000000      -0.00000000       0.00000011
