2
Lattice="4.9587322446537225 -9.214555456585568e-17 2.755310919839295e-15 -9.214555456585096e-17 4.9587322446537225 -4.671973980040111e-15 2.4793661223268604 2.479366122326863 1.4351997085421309" Properties=species:S:1:pos:R:3 cutoff=-1.0 nneightol=1.2 n_minim_iter=1 energy=-325.58329249272884 free_energy=-325.58329249272884 pbc="T T T"
Si      -0.00000000      -1.23968306      -0.35879993
Si      -0.00000000       1.23968306       0.35879993
2
Lattice="4.893771643806091 -1.03173194323602e-16 2.6314291581162065e-15 -1.0317319432359723e-16 4.893771643806093 -4.589309121520501e-15 2.4468858219030447 2.4468858219030483 1.4735546730605518" Properties=species:S:1:pos:R:3 cutoff=-1.0 nneightol=1.2 n_minim_iter=2 stress="0.037475555409415315 -2.538792840943645e-16 4.520267175005782e-17 -2.538792840943645e-16 0.03747555540941482 4.771278304155285e-16 4.520267175005782e-17 4.771278304155285e-16 0.03557611803944482" pbc="T T T"
Si      -0.00000000      -1.22344291      -0.36838867
Si      -0.00000000       1.22344291       0.36838867
