2
Lattice="4.728084282436431 -7.452472412708114e-18 2.0945892221810832e-16 -7.452472412708106e-18 4.728084282436431 -2.6239667391133827e-16 2.3640421412182153 2.3640421412182153 1.3040943100981879" Properties=species:S:1:pos:R:3 cutoff=-1.0 nneightol=1.2 n_minim_iter=1 energy=-325.6825542716631 free_energy=-325.6825542716631 pbc="T T T"
Si      -0.00000000      -1.18202107      -0.32602358
Si      -0.00000000       1.18202107       0.32602358
