2
Lattice="4.577146032913616 4.707698412469915e-17 -9.77766663613949e-17 4.707698412469901e-17 4.577146032913616 2.5962822381704535e-16 2.288573016456808 2.288573016456808 1.2450454407914746" Properties=species:S:1:pos:R:3 cutoff=-1.0 nneightol=1.2 n_minim_iter=1 stress="-0.15693826631482574 -5.77306228377682e-18 2.3811962612424946e-17 -5.77306228377682e-18 -0.1569382663148254 -7.340481576815983e-16 2.3811962612424946e-17 -7.340481576815983e-16 -0.15320523398115313" pbc="T T T"
Si      -0.00000000      -1.14428651      -0.31126136
Si      -0.00000000       1.14428651       0.31126136
