2
Lattice="5.00220533834157 -7.884545845591747e-18 2.216027626188535e-16 -7.88454584559172e-18 5.00220533834157 -2.7760969656953555e-16 2.501102669170785 2.501102669170785 1.3797020378647886" Properties=species:S:1:pos:R:3 cutoff=-1.0 nneightol=1.2 n_minim_iter=1 stress="0.04962680030044535 2.0124863195343976e-16 -1.7621008803989834e-16 2.0124863195343976e-16 0.04962680030044472 1.3200477705260997e-16 -1.7621008803989834e-16 1.3200477705260997e-16 0.03582878668203878" pbc="T T T"
Si      -0.00000000      -1.25055133      -0.34492551
Si      -0.00000000       1.25055134       0.34492551
