2
Lattice="4.728084282436431 -7.452472412708113e-18 2.094589222181083e-16 -7.45247241270813e-18 4.728084282436431 -2.6239667391133827e-16 2.3640421412182153 2.3640421412182153 1.3040943100981879" Properties=species:S:1:pos:R:3 cutoff=-1.0 nneightol=1.2 n_minim_iter=1 stress="-0.019990339278880408 3.613669231159437e-16 5.187005141007904e-16 3.613669231159437e-16 -0.0199903392788792 -8.656824064874529e-16 5.187005141007904e-16 -8.656824064874529e-16 -0.01870537700532114" pbc="T T T"
Si      -0.00000000      -1.18202107      -0.32602358
Si      -0.00000000       1.18202107       0.32602358
