2
Lattice="4.4107969796745135 4.1166923327663116e-17 -2.7807010770938363e-16 4.1166923327662845e-17 4.410796979674516 5.2084338081293495e-16 2.2053984898372567 2.205398489837258 1.1829950853452653" Properties=species:S:1:pos:R:3 cutoff=-1.0 nneightol=1.2 n_minim_iter=2 stress="-0.4034350408864711 -6.252215306399061e-16 -3.518395988486299e-16 -6.252215306399061e-16 -0.4034350408864696 1.3192624315705706e-15 -3.518395988486299e-16 1.3192624315705706e-15 -0.40310486460051587" pbc="T T T"
Si      -0.00000000      -1.10269924      -0.29574877
Si      -0.00000000       1.10269925       0.29574877
