2
Lattice="4.621587123238986 4.7534070808997036e-17 -9.872601375608889e-17 4.7534070808996906e-17 4.621587123238987 2.621490438351746e-16 2.310793561619493 2.3107935616194935 1.2571340166191907" Properties=species:S:1:pos:R:3 cutoff=-1.0 nneightol=1.2 n_minim_iter=2 stress="-0.1199821055725165 -2.11141775860997e-16 1.0596279392175494e-15 -2.11141775860997e-16 -0.11998210557251414 1.0812743916822665e-16 1.0596279392175494e-15 1.0812743916822665e-16 -0.1200128868886078" pbc="T T T"
Si      -0.00000000      -1.15539678      -0.31428350
Si      -0.00000000       1.15539678       0.31428350
