2
Lattice="4.96487405649214 -7.825703758290685e-18 2.1994894902457208e-16 -7.825703758290681e-18 4.96487405649214 -2.755379052043678e-16 2.48243702824607 2.48243702824607 1.369405370263206" Properties=species:S:1:pos:R:3 cutoff=-1.0 nneightol=1.2 n_minim_iter=1 stress="0.039939229603571456 1.6834948583705452e-16 9.855921488382207e-17 1.6834948583705452e-16 0.03993922960357281 -9.185677274802353e-17 9.855921488382207e-17 -9.185677274802353e-17 0.03140363478502387" pbc="T T T"
Si      -0.00000000      -1.24121851      -0.34235134
Si      -0.00000000       1.24121852       0.34235134
