2
Lattice="4.809618999875035 -7.580988571915839e-18 2.1307099277731744e-16 -7.58098857191588e-18 4.809618999875035 -2.669216437270552e-16 2.4048094999375174 2.4048094999375174 1.3265831141751647" Properties=species:S:1:pos:R:3 cutoff=-1.0 nneightol=1.2 n_minim_iter=1 stress="-0.0019584542018649532 2.522528658472879e-16 3.0590315803421706e-17 2.522528658472879e-16 -0.0019584542018647308 1.2447163115749579e-16 3.0590315803421706e-17 1.2447163115749579e-16 -0.0020011437750961105" pbc="T T T"
Si      -0.00000000      -1.20240475      -0.33164578
Si      -0.00000000       1.20240475       0.33164578
