2
Lattice="4.922535828349616 -9.147293529764775e-17 2.735198444274743e-15 -9.147293529764782e-17 4.922535828349614 -4.637870764379329e-15 2.461267914174808 2.4612679141748055 1.4247234247730411" Properties=species:S:1:pos:R:3 cutoff=-1.0 nneightol=1.2 n_minim_iter=2 stress="0.0432965690615605 -1.4952501306238313e-16 -2.563439486244762e-16 -1.4952501306238313e-16 0.04329656906155952 -3.915029036650248e-16 -2.563439486244762e-16 -3.915029036650248e-16 0.03453199105385841" pbc="T T T"
Si      -0.00000000      -1.23063396      -0.35618086
Si      -0.00000000       1.23063396       0.35618086
