2
Lattice="4.5318247785692405 4.6610844754021623e-17 -9.68085169658448e-17 4.6610844754021457e-17 4.5318247785692405 2.570574784919065e-16 2.2659123892846202 2.2659123892846202 1.2327174484821497" Properties=species:S:1:pos:R:3 cutoff=-1.0 nneightol=1.2 n_minim_iter=1 stress="-0.19840000206682898 -2.8887262050316553e-16 3.163910386229197e-16 -2.8887262050316553e-16 -0.1984000020668294 9.451454486792581e-16 3.163910386229197e-16 9.451454486792581e-16 -0.19080123924999495" pbc="T T T"
Si      -0.00000000      -1.13295619      -0.30817936
Si      -0.00000000       1.13295620       0.30817936
