2
Lattice="5.075766107651896 4.057901526120929e-19 1.7228407603386174e-16 4.0579015261239985e-19 5.075766107651896 -2.665858868508898e-16 2.537883053825948 2.537883053825948 1.3998222599379604" Properties=species:S:1:pos:R:3:forces:R:3 cutoff=-1.0 nneightol=1.2 n_minim_iter=1 energy=-325.5033473490552 stress="0.0735376961584871 5.459378377334452e-18 1.8297203521682195e-17 5.459378377334452e-18 0.07353769615848722 8.605344291002376e-17 1.8297203521682195e-17 8.605344291002376e-17 0.06164608561649717" free_energy=-325.5033473490552 pbc="T T T"
Si      -0.00000000      -1.26894153      -0.34995556       0.00000000       0.00000000      -0.00000000
Si      -0.00000000       1.26894153       0.34995556      -0.00000000      -0.00000000       0.00000000
