2
Lattice="4.440082123231219 4.893824983843004e-17 -1.4917489968274593e-16 4.89382498384302e-17 4.440082123231219 2.8739995044876187e-16 2.2200410616156097 2.2200410616156097 1.2065850184016702" Properties=species:S:1:pos:R:3:forces:R:3 cutoff=-1.0 nneightol=1.2 n_minim_iter=1 energy=-325.0972352613028 stress="-0.24666324672015713 4.274224988080553e-18 1.7383103453134305e-16 4.274224988080553e-18 -0.246663246720157 -4.476921280133344e-17 1.7383103453134305e-16 -4.476921280133344e-17 -0.23717753671716296" free_energy=-325.0972352613028 pbc="T T T"
Si      -0.00000000      -1.11002053      -0.30164625      -0.00000000      -0.00000000      -0.00000000
Si      -0.00000000       1.11002053       0.30164625       0.00000000       0.00000000       0.00000000
