2
Lattice="5.002723346194274 3.999506334753963e-19 1.698048237590737e-16 3.999506334756157e-19 5.002723346194274 -2.6274958530975635e-16 2.501361673097137 2.501361673097137 1.3796781316926545" Properties=species:S:1:pos:R:3:forces:R:3 cutoff=-1.0 nneightol=1.2 n_minim_iter=1 energy=-325.6377646333335 stress="0.04896844614237658 3.799511359049303e-17 3.9375522131618866e-17 3.799511359049303e-17 0.04896844614237671 -3.143596397042639e-17 3.9375522131618866e-17 -3.143596397042639e-17 0.0393564776943174" free_energy=-325.6377646333335 pbc="T T T"
Si      -0.00000000      -1.25068084      -0.34491953       0.00000000      -0.00000000      -0.00000000
Si      -0.00000000       1.25068084       0.34491953      -0.00000000       0.00000000       0.00000000
