16
Lattice="5.89911713671824 -0.06598792217591071 -0.24193599243652017 0.37055454946099176 6.772699196823748 -2.0812454990274447 1.3829889457849929 -1.1952112695212644 10.79455291030198" Properties=species:S:1:pos:R:3 unique_starting_index=30 config_type=initial n_minim_iter=1 energy=-2604.67171058533 free_energy=-2604.67171058533 pbc="T T T"
Si       2.98246314       4.44573772       3.72268837
Si       4.67019749       1.06576229       4.74868305
Si       2.68135354       2.92649780       2.06260243
Si       4.97130710       2.58500221       6.40876899
Si       5.27763720       1.43678771       8.19011930
Si       2.37502343       4.07471229       0.28125212
Si       4.00633231       4.14105434      -1.11487754
Si       3.64632832       1.37044567       9.58624896
Si       1.85213468       2.64260332       4.00638224
Si       5.80052595       2.86889669       4.46498918
Si       6.78027730       4.41584928       3.36213487
Si       0.87238333       1.09565073       5.10923654
Si       2.76520199       0.80990903       3.48617661
Si       4.88745864       4.70159097       4.98519480
Si       3.63804065       5.82065444       0.13738403
Si       4.01461999      -0.30915444       8.33398739
16
Lattice="5.9501186869942835 -0.09204123234034141 -0.22320372848214176 0.33805776044825436 6.773176612591842 -2.0613850900562936 1.43289701883498 -1.185819237784956 10.752862560223166" Properties=species:S:1:pos:R:3 unique_starting_index=30 config_type=initial n_minim_iter=2 stress="-0.002083094960774109 -0.0024578495342280687 -0.000127866171632144 -0.0024578495342280687 0.012889833553637695 0.002540341377429947 -0.000127866171632144 0.002540341377429947 -0.004300098541483247" pbc="T T T"
Si       3.00278119       4.44199667       3.72417616
Si       4.71829228       1.05331947       4.74409758
Si       2.69762590       2.92000073       2.06750514
Si       5.02344756       2.57531542       6.40076860
Si       5.34134860       1.42784698       8.17461849
Si       2.37972487       4.06746916       0.29365525
Si       4.01948059       4.12457916      -1.09151911
Si       3.70159288       1.37073698       9.55979286
Si       1.87010711       2.64244644       3.99920868
Si       5.85096636       2.85286970       4.46906506
Si       6.82767958       4.39542789       3.37587563
Si       0.89339388       1.09988825       5.09239811
Si       2.79748642       0.80344664       3.48145681
Si       4.92358705       4.69186950       4.98681693
Si       3.64420886       5.80984698       0.15693102
Si       4.07686461      -0.31453084       8.31134273
16
Lattice="5.970451148358414 -0.09142256572417894 -0.21795866974297895 0.3374538959181707 6.73355208512444 -2.068641560690503 1.4476384605121921 -1.1874236122721347 10.765548413422636" Properties=species:S:1:pos:R:3 unique_starting_index=30 config_type=initial n_minim_iter=3 stress="-8.519587131644911e-05 0.0005540285889326619 0.0027745081811987988 0.0005540285889326619 -0.013270485760937055 -0.001243540175305834 0.0027745081811987988 -0.001243540175305834 -0.0091179971584121" pbc="T T T"
Si       3.01864536       4.41200617       3.72821499
Si       4.73689815       1.04269973       4.75073319
Si       2.70876213       2.90000939       2.06966142
Si       5.04678138       2.55469652       6.40928676
Si       5.36598833       1.41297108       8.18609703
Si       2.38955518       4.04173482       0.29285116
Si       4.03174803       4.09948570      -1.09162979
Si       3.72379547       1.35522021       9.57057798
Si       1.88177893       2.62248608       4.00252939
Si       5.87376457       2.83221983       4.47641880
Si       6.85273438       4.36613686       3.38211338
Si       0.90280912       1.08856905       5.09683481
Si       2.81130192       0.79668310       3.48698967
Si       4.94424158       4.65802281       4.99195851
Si       3.65595188       5.77466009       0.15589793
Si       4.09959162      -0.31995418       8.32305025
16
Lattice="5.981354521715034 -0.09103746083720905 -0.22082835213478538 0.3392179765658522 6.732755869096014 -2.0775775965388736 1.4463460250027662 -1.1898020394715845 10.802296539274513" Properties=species:S:1:pos:R:3 unique_starting_index=30 config_type=initial n_minim_iter=4 stress="0.011320546759485654 0.002210077069004756 -0.0019188896888094717 0.002210077069004756 -0.004265155465432491 -0.004019102127967514 -0.0019188896888094717 -0.004019102127967514 0.005775184833917626" pbc="T T T"
Si       3.02476117       4.41072573       3.74028709
Si       4.74215735       1.04119063       4.76360350
Si       2.71309512       2.89850033       2.07509312
Si       5.05382340       2.55341604       6.42879747
Si       5.37154887       1.41149053       8.21164859
Si       2.39536965       4.04042584       0.29224200
Si       4.03903095       4.09836489      -1.09708512
Si       3.72788757       1.35355148       9.60097571
Si       1.88508467       2.62125912       4.01502451
Si       5.88183385       2.83065725       4.48886608
Si       6.86320151       4.36550171       3.39045442
Si       0.90371701       1.08641466       5.11343617
Si       2.81661365       0.79629917       3.49789354
Si       4.95030488       4.65561720       5.00599705
Si       3.66171175       5.77440442       0.15406052
Si       4.10520678      -0.32248805       8.34983007
16
Lattice="5.940367758793482 -0.10141487608707062 -0.2141064301006259 0.32238494652290417 6.711706140407048 -2.0711712523312076 1.454813129667411 -1.155157306303841 10.882413604149535" Properties=species:S:1:pos:R:3 unique_starting_index=30 config_type=initial n_minim_iter=5 stress="-0.0036911042850778313 -0.0068183650842181635 0.0021660127399992183 -0.0068183650842181635 -0.012228900489038401 0.0061272932553547215 0.0021660127399992183 0.0061272932553547215 0.012725239053341952" pbc="T T T"
Si       3.01177069       4.41081630       3.79714264
Si       4.70579514       1.04431766       4.79999328
Si       2.69192148       2.89097533       2.10590341
Si       5.02564436       2.56415862       6.49123252
Si       5.33547826       1.43025638       8.28341033
Si       2.38208757       4.02487758       0.31372559
Si       3.99811156       4.07445843      -1.08075768
Si       3.71945427       1.38067553       9.67789360
Si       1.87961843       2.62895325       4.05626602
Si       5.83794740       2.82618071       4.54086990
Si       6.80909133       4.36015848       3.44274823
Si       0.90847451       1.09497548       5.15438769
Si       2.81147039       0.80350587       3.53187445
Si       4.90609545       4.65162808       5.06526147
Si       3.61914259       5.76192128       0.18193669
Si       4.09842324      -0.30678732       8.41519923
16
Lattice="5.867466756249179 -0.044315875956471774 -0.21298507933905603 0.3823154247980545 6.7522469677856565 -2.0980587006908964 1.4278735928975343 -1.1909409571232883 10.884083362790317" Properties=species:S:1:pos:R:3 unique_starting_index=30 config_type=initial n_minim_iter=6 stress="-0.0008828059940170086 0.007351861988368878 0.003910173051610879 0.007351861988368878 0.018425068166253746 0.0015728915806703673 0.003910173051610879 0.0015728915806703673 -0.002045096385184137" pbc="T T T"
Si       3.04548693       4.45111459       3.80662694
Si       4.63216884       1.06587554       4.76641265
Si       2.68403336       2.91020175       2.10031108
Si       4.99362241       2.60678838       6.47272850
Si       5.26063330       1.46893308       8.26626835
Si       2.41702248       4.04805705       0.30677123
Si       3.97591907       4.11880327      -1.08180383
Si       3.70173670       1.39818687       9.65484341
Si       1.89793451       2.65204961       4.04128079
Si       5.77972127       2.86494053       4.53175879
Si       6.75672928       4.44256031       3.43150795
Si       0.92092649       1.07442983       5.14153163
Si       2.81539411       0.82535250       3.53046189
Si       4.86226166       4.69163764       5.04257769
Si       3.60807682       5.83494437       0.16606459
Si       4.06957895      -0.31795423       8.40697499
16
Lattice="5.859396667989798 -0.056187975345174945 -0.2392533194233446 0.3765044479275598 6.741452362862929 -2.118069820858542 1.3793602164527057 -1.2238913303503731 10.869671780932727" Properties=species:S:1:pos:R:3 unique_starting_index=30 config_type=initial n_minim_iter=7 stress="-0.005772268590065379 0.003703045739834023 -0.0006760736590017443 0.003703045739834023 0.009180571380473942 0.0001518137374032789 -0.0006760736590017443 0.0001518137374032789 -0.008512875023603933" pbc="T T T"
Si       3.01869047       4.42350124       3.78286404
Si       4.59657086       1.03787182       4.72948460
Si       2.66378630       2.88913810       2.07742698
Si       4.95147503       2.57223495       6.43492166
Si       5.20746370       1.43427438       8.22392297
Si       2.40779763       4.02709868       0.28842567
Si       3.96486825       4.10014537      -1.10835000
Si       3.65039308       1.36122769       9.62069864
Si       1.87182120       2.63366692       4.02282277
Si       5.74344013       2.82770614       4.48952587
Si       6.71923739       4.40843292       3.38734224
Si       0.89602394       1.05294014       5.12500640
Si       2.80286085       0.80585968       3.51167149
Si       4.81240048       4.65551337       5.00067715
Si       3.58266241       5.81599176       0.13354346
Si       4.03259893      -0.35461870       8.37880518
16
Lattice="5.871507404616381 -0.04989597315772507 -0.22292940351873655 0.3769252838654672 6.725298764932254 -2.157662720038655 1.412070397670285 -1.2722408275413049 10.913954388172899" Properties=species:S:1:pos:R:3 unique_starting_index=30 config_type=initial n_minim_iter=8 stress="-0.007327138341252824 0.0031364954413421737 -0.009327238073907783 0.0031364954413421737 0.01001919509064681 0.0034100348198714404 -0.009327238073907783 0.0034100348198714404 0.0031330639601182364" pbc="T T T"
Si       3.04312137       4.39115565       3.79667406
Si       4.61738172       1.01200631       4.73668820
Si       2.67750505       2.86477072       2.07836699
Si       4.98299804       2.53839124       6.45499528
Si       5.23734238       1.40272545       8.24087003
Si       2.42316071       4.00043651       0.29249224
Si       3.97735079       4.08880059      -1.11453524
Si       3.68315230       1.31436138       9.64789751
Si       1.88080079       2.61038481       4.03972490
Si       5.77970229       2.79277715       4.49363737
Si       6.74538996       4.37719980       3.40833887
Si       0.91511312       1.02596216       5.12502340
Si       2.83917707       0.78397605       3.52615967
Si       4.82132601       4.61918591       5.00720259
Si       3.58147021       5.80162169       0.11773475
Si       4.07903288      -0.39845972       8.41562751
16
Lattice="5.882779090209688 -0.07783233574739251 -0.17753401729270513 0.3261511829839223 6.739757783322029 -2.2443374624976635 1.5049871231131322 -1.4056195493580674 10.988051100320368" Properties=species:S:1:pos:R:3 unique_starting_index=30 config_type=initial n_minim_iter=9 stress="-0.0042469974546850715 -0.011699378792415886 -0.002833342036780818 -0.011699378792415886 0.01176458721366797 -0.011024042387841874 -0.002833342036780818 -0.011024042387841874 0.012823939989032607" pbc="T T T"
Si       3.04810339       4.32338939       3.79781770
Si       4.66581401       0.93291651       4.76836193
Si       2.68375670       2.81692245       2.08078069
Si       5.03016069       2.43938345       6.48539893
Si       5.30247681       1.28647046       8.28155588
Si       2.41144058       3.96983544       0.28462374
Si       3.96467381       4.07385302      -1.13255931
Si       3.74924359       1.18245288       9.69873893
Si       1.90285342       2.54938214       4.04945235
Si       5.81106398       2.70692376       4.51672727
Si       6.76582451       4.29627772       3.43796191
Si       0.94809289       0.96002818       5.12821771
Si       2.88237764       0.72873073       3.55525460
Si       4.83153976       4.52757517       5.01092502
Si       3.54559271       5.77771630       0.07825619
Si       4.16832468      -0.52141040       8.48792343
16
Lattice="5.947592627878725 -0.07823128766117189 -0.1467772564187977 0.31792727529825593 6.714395685844468 -2.261461009984389 1.577895829484725 -1.4225513330559096 11.02564605155545" Properties=species:S:1:pos:R:3 unique_starting_index=30 config_type=initial n_minim_iter=10 stress="0.006008990898022891 -0.013558634968521482 -0.0017481808426265699 -0.013558634968521482 -0.009875087554087985 0.0005343385764741653 -0.0017481808426265699 0.0005343385764741653 0.013124239307874465" pbc="T T T"
Si       3.08595681       4.29360904       3.83480273
Si       4.75745892       0.92000402       4.78260505
Si       2.72339180       2.79083554       2.10481828
Si       5.12002394       2.42277753       6.51258950
Si       5.40273017       1.27889587       8.28952266
Si       2.44068556       3.93471720       0.32788512
Si       4.02034015       4.05405913      -1.11639451
Si       3.82307558       1.15955394       9.73380230
Si       1.94978808       2.52642108       4.07532874
Si       5.89362765       2.68719199       4.54207905
Si       6.86650141       4.26615394       3.49867756
Si       0.97691432       0.94745913       5.11873022
Si       2.95399794       0.72487519       3.58122085
Si       4.88941779       4.48873787       5.03618694
Si       3.56131808       5.75518250       0.08659397
Si       4.28209765      -0.54156943       8.53081381
16
Lattice="5.9632019153458105 -0.0622636630449691 -0.12217753222011056 0.3271078580411264 6.743900944375034 -2.3049419457749747 1.623442437136626 -1.491118356320796 11.046988711199198" Properties=species:S:1:pos:R:3 unique_starting_index=30 config_type=initial n_minim_iter=11 stress="-0.0029417256181584568 -0.004605718231907854 -0.004629198101803351 -0.004605718231907854 0.0010530668863173891 0.0024506467242405303 -0.004629198101803351 0.0024506467242405303 0.009032400569708951" pbc="T T T"
Si       3.11843496       4.29364679       3.85011919
Si       4.79531725       0.89687213       4.76975004
Si       2.75017691       2.77381455       2.11929640
Si       5.16357530       2.41670438       6.50057284
Si       5.44189208       1.25893367       8.27103183
Si       2.47186013       3.93158526       0.34883740
Si       4.05172531       4.06932169      -1.11279771
Si       3.86202690       1.12119724       9.73266694
Si       1.98375506       2.50349902       4.08391679
Si       5.92999715       2.68701991       4.53595244
Si       6.91610612       4.26685294       3.53538420
Si       0.99764609       0.92366598       5.08448503
Si       3.01262519       0.72677079       3.60060994
Si       4.90112702       4.46374813       5.01925929
Si       3.54744721       5.77156347       0.06292448
Si       4.36630500      -0.58104454       8.55694475
16
Lattice="6.10271283587058 -0.020497513274396827 -0.04139716452097708 0.353438035257079 6.773681993691299 -2.3590165314845373 1.7947714644753245 -1.5842399980646282 11.05452898483455" Properties=species:S:1:pos:R:3 unique_starting_index=30 config_type=initial n_minim_iter=12 stress="0.01913753756658912 0.006256987611188931 0.005117976249010739 0.006256987611188931 0.006285964487330321 9.703987838678432e-05 0.005117976249010739 9.703987838678432e-05 0.01638969986132749" pbc="T T T"
Si       3.23686047       4.29103066       3.86993599
Si       5.01406186       0.87791382       4.78417930
Si       2.87957051       2.74402300       2.16465572
Si       5.37135183       2.42492148       6.48945957
Si       5.65965497       1.24457739       8.26277245
Si       2.59126737       3.92436710       0.39134284
Si       4.18416944       4.08187732      -1.07204242
Si       4.06675289       1.08706716       9.72615771
Si       2.11015877       2.49587942       4.09734114
Si       6.14076357       2.67306506       4.55677414
Si       7.19211244       4.27773543       3.63981109
Si       1.05880990       0.89120905       5.01430420
Si       3.18018113       0.74213644       3.63766631
Si       5.07074120       4.42680804       5.01644898
Si       3.59705261       5.77070061       0.04632845
Si       4.65386973      -0.60175613       8.60778684
16
Lattice="6.1421762769851584 -0.02252292470963123 -0.027195389267675184 0.34866533395194704 6.807104088954573 -2.3660789494373233 1.8271068464763303 -1.625510747655718 10.984979454303803" Properties=species:S:1:pos:R:3 unique_starting_index=30 config_type=initial n_minim_iter=13 stress="0.018190153914232385 2.878205514428566e-05 0.005089710722821977 2.878205514428566e-05 0.015995073142651244 0.0008415680109714326 0.005089710722821977 0.0008415680109714326 0.007943203602542729" pbc="T T T"
Si       3.24313868       4.29664951       3.84207040
Si       5.07480977       0.86242091       4.74963471
Si       2.91442370       2.73605415       2.15624314
Si       5.40352476       2.42301627       6.43546197
Si       5.69589475       1.24530063       8.19345711
Si       2.62205371       3.91376979       0.39824801
Si       4.21251130       4.07397392      -1.06410279
Si       4.10543715       1.08509650       9.65580790
Si       2.13202207       2.48858002       4.08469335
Si       6.18592639       2.67049039       4.50701177
Si       7.25816667       4.28792389       3.64205049
Si       1.05978179       0.87114653       4.94965463
Si       3.22462322       0.75139487       3.62297419
Si       5.09332524       4.40767555       4.96873092
Si       3.57871422       5.77862450       0.02748017
Si       4.73923423      -0.61955408       8.56422494
16
Lattice="6.143158286101279 0.006437648449610018 -0.016157631797696446 0.3775158919354531 6.798592763744689 -2.3775629364586126 1.8409054265200122 -1.641538553009806 10.970782807676235" Properties=species:S:1:pos:R:3 unique_starting_index=30 config_type=initial n_minim_iter=14 stress="-0.0002619262836181905 0.004017704272688238 -0.0025204917367174715 0.004017704272688238 0.01253696124599778 -0.0012515866501678003 -0.0025204917367174715 -0.0012515866501678003 -0.0022526987506749775" pbc="T T T"
Si       3.26792366       4.28738351       3.84010222
Si       5.09365594       0.87610835       4.73696002
Si       2.94840659       2.72510905       2.16693929
Si       5.41317302       2.43838281       6.41012295
Si       5.70031553       1.27781319       8.16926302
Si       2.66126408       3.88567867       0.40779922
Si       4.23002755       4.05271040      -1.05513070
Si       4.13155206       1.11078146       9.63219294
Si       2.15536654       2.49044378       4.09451565
Si       6.20621307       2.67304807       4.48254659
Si       7.28810889       4.32203262       3.66045248
Si       1.07347072       0.84145924       4.91660976
Si       3.26011203       0.76700216       3.62270082
Si       5.10146758       4.39648970       4.95436142
Si       3.56607423       5.77920965       0.01715809
Si       4.79550537      -0.61571779       8.55990415
16
Lattice="6.164278319705666 0.026930184993106933 -0.0049180359002528665 0.39800219681451454 6.769947726495142 -2.37955608051212 1.8615958156050478 -1.6416629272196248 10.954336147778513" Properties=species:S:1:pos:R:3 unique_starting_index=30 config_type=initial n_minim_iter=15 stress="-0.0047749067915558805 0.003865733167224666 0.0036930170586842565 0.003865733167224666 0.0037891414796791794 0.0022058185047706307 0.0036930170586842565 0.0022058185047706307 -0.006589585990457609" pbc="T T T"
Si       3.29402371       4.27198551       3.82798144
Si       5.12985262       0.88322947       4.74188059
Si       2.99640877       2.70769548       2.18603325
Si       5.42746756       2.44751950       6.38382878
Si       5.71905359       1.30950931       8.15068625
Si       2.70482274       3.84570568       0.41917578
Si       4.25493625       4.01160181      -1.03733708
Si       4.16894008       1.14361317       9.60719911
Si       2.16938036       2.47901888       4.11295817
Si       6.25449597       2.67619611       4.45690386
Si       7.32913636       4.33980958       3.68379963
Si       1.09473997       0.81540541       4.88606240
Si       3.29332716       0.77675119       3.61667860
Si       5.13054917       4.37846379       4.95318344
Si       3.55705293       5.75596298       0.01244166
Si       4.86682341      -0.60074799       8.55742037
16
Lattice="6.222996753908831 0.05078384550386619 -0.004294496665659598 0.42686865333142876 6.7283109405592825 -2.416674074791263 1.8711865418407654 -1.6878545609046813 10.955151646962944" Properties=species:S:1:pos:R:3 unique_starting_index=30 config_type=initial n_minim_iter=16 stress="-0.005594878636876447 0.0012433386184370328 -0.0035883997824502595 0.0012433386184370328 -0.003809097303210078 0.0029091694871450254 -0.0035883997824502595 0.0029091694871450254 -0.0012107805462594214" pbc="T T T"
Si       3.32871306       4.22252324       3.80569139
Si       5.19233889       0.86871698       4.72849168
Si       3.07822371       2.65455350       2.21614212
Si       5.44282824       2.43668672       6.31804096
Si       5.73717357       1.32675916       8.09905828
Si       2.78387838       3.76448107       0.43512479
Si       4.31895145       3.94446547      -1.02473520
Si       4.20210050       1.14677476       9.55891827
Si       2.20297297       2.44709754       4.13980437
Si       6.31807898       2.64414268       4.39437870
Si       7.41111788       4.33357807       3.71046521
Si       1.10993407       0.75766215       4.82371787
Si       3.36629633       0.77361502       3.60511689
Si       5.15475561       4.31762520       4.92906619
Si       3.53072396       5.70708299      -0.03094348
Si       4.99032799      -0.61584276       8.56512656
16
Lattice="6.216837145227541 0.047959576675441117 -0.015189506636532039 0.4267176146528461 6.721465229124474 -2.4237174947663216 1.8498805308744852 -1.6994924444643351 10.94618704332438" Properties=species:S:1:pos:R:3 unique_starting_index=30 config_type=initial n_minim_iter=17 stress="-0.0018569268351266487 0.00023065963016637034 -0.0008462088252384421 0.00023065963016637034 -0.007878215562451886 -0.0010573806000954047 -0.0008462088252384421 -0.0010573806000954047 0.0032559916989774846" pbc="T T T"
Si       3.31644918       4.21232055       3.78034593
Si       5.17698611       0.85761181       4.72693411
Si       3.08081078       2.64460141       2.21184818
Si       5.41262451       2.42533095       6.29543186
Si       5.71683096       1.31903508       8.08678314
Si       2.77660433       3.75089728       0.42049691
Si       4.31977940       3.93681821      -1.03324126
Si       4.17365589       1.13311415       9.54052130
Si       2.18910965       2.43760295       4.13081778
Si       6.30432564       2.63232941       4.37646227
Si       7.39160161       4.32154289       3.69428915
Si       1.10183368       0.74838947       4.81299089
Si       3.34701042       0.75674688       3.58673530
Si       5.14642487       4.31318548       4.92054474
Si       3.52541621       5.69235058      -0.04656132
Si       4.96801908      -0.62241822       8.55384136
16
Lattice="6.202641624289901 0.050637934390953473 -0.000925402571205336 0.4232326903858901 6.7212007687579245 -2.4391468615806744 1.8721555768847291 -1.72361354442987 10.953848709120386" Properties=species:S:1:pos:R:3 unique_starting_index=30 config_type=initial n_minim_iter=18 stress="0.007872186646135744 0.0011230465141661232 0.0014529808987971753 0.0011230465141661232 -0.00035938895617642236 -0.0037359310162976356 0.0014529808987971753 -0.0037359310162976356 0.0031797647240375156" pbc="T T T"
Si       3.32825080       4.20621513       3.76768355
Si       5.16977909       0.84201003       4.74609290
Si       3.10108802       2.63325543       2.21570244
Si       5.39694187       2.41496973       6.29807401
Si       5.72030694       1.31982249       8.09304896
Si       2.77772295       3.72840267       0.42072748
Si       4.32456973       3.93666517      -1.01931687
Si       4.17346016       1.11155999       9.53309332
Si       2.19941343       2.43211859       4.12795845
Si       6.29861646       2.61610657       4.38581799
Si       7.38443758       4.31889028       3.71453547
Si       1.11359231       0.72933488       4.79924097
Si       3.34405829       0.73086735       3.57809597
Si       5.15397160       4.31735781       4.93568048
Si       3.51556417       5.67253582      -0.05935183
Si       4.98246572      -0.62431066       8.57312828
16
Lattice="6.1225457053744154 0.03118231338851685 0.00799229257962757 0.3923584268829162 6.734296945248001 -2.451498052406761 1.8754393562560316 -1.7374377983731173 11.001544356555282" Properties=species:S:1:pos:R:3 unique_starting_index=30 config_type=initial n_minim_iter=19 stress="0.0009064825085348281 -0.0055559898274123885 0.003806140162542829 -0.0055559898274123885 0.006053725995221202 -0.0006926785899098399 0.003806140162542829 -0.0006926785899098399 0.005758039752582865" pbc="T T T"
Si       3.30153679       4.21389726       3.77407558
Si       5.08880669       0.81414420       4.78396302
Si       3.09272659       2.61556026       2.22743421
Si       5.29761690       2.41248120       6.33060439
Si       5.66159419       1.33797637       8.13404536
Si       2.72874930       3.69006509       0.42399324
Si       4.28885072       3.92984596      -1.00392159
Si       4.10149277       1.09819550       9.56196019
Si       2.18154458       2.43123882       4.13122320
Si       6.20879891       2.59680264       4.42681539
Si       7.27510798       4.30482831       3.76277639
Si       1.11523551       0.72321315       4.79526220
Si       3.29134929       0.69434825       3.57681507
Si       5.09899420       4.33369321       4.98122353
Si       3.45093904       5.64319869      -0.07151040
Si       4.93940445      -0.61515723       8.62954900
16
Lattice="6.105895422188076 0.03804124417038005 0.008188509623711827 0.39980188601596256 6.733440656789478 -2.434588286273558 1.8693591538342398 -1.7186452649620425 10.968473821002203" Properties=species:S:1:pos:R:3 unique_starting_index=30 config_type=initial n_minim_iter=20 stress="0.001442931624545174 0.0024551354379719927 0.0008042981898526781 0.0024551354379719927 0.006015155227626698 0.003565952267718161 0.0008042981898526781 0.003565952267718161 -0.0010189172109722653" pbc="T T T"
Si       3.30413909       4.22937018       3.76932503
Si       5.07091737       0.82346645       4.77274901
Si       3.11067641       2.61232170       2.22206949
Si       5.26438006       2.44051494       6.32000455
Si       5.64390121       1.37495766       8.11219894
Si       2.73115525       3.67787897       0.42987510
Si       4.29830593       3.92240650      -0.98699248
Si       4.07675053       1.13043013       9.52906652
Si       2.18630488       2.44027600       4.12222433
Si       6.18875159       2.61256063       4.41984971
Si       7.26085729       4.32980460       3.77455323
Si       1.11419917       0.72303204       4.76752081
Si       3.27772125       0.69981744       3.56269286
Si       5.09733521       4.35301920       4.97938119
Si       3.43465109       5.63545128      -0.06660450
Si       4.94040537      -0.58261464       8.60867854
16
Lattice="6.07744452422336 0.004157642892288649 0.0243814670423725 0.3528637637079783 6.729706750864994 -2.4466556118799394 1.8979218134566949 -1.7548020107950038 10.947533832219637" Properties=species:S:1:pos:R:3 unique_starting_index=30 config_type=initial n_minim_iter=21 stress="-0.007912389812914231 0.001982008996450577 -0.006271032187368745 0.001982008996450577 0.002865731591537309 0.005233609631027569 -0.006271032187368745 0.005233609631027569 -0.004148750687504184" pbc="T T T"
Si       3.29206827       4.20635552       3.77105109
Si       5.03616183       0.77270687       4.75420860
Si       3.14426109       2.54939266       2.20114157
Si       5.18396901       2.42966972       6.32411812
Si       5.62629709       1.36220175       8.09888579
Si       2.70193301       3.61686064       0.42637390
Si       4.30045882       3.86198230      -0.96833359
Si       4.02777128       1.11708008       9.49359328
Si       2.17513849       2.41525398       4.08386562
Si       6.15309161       2.56380840       4.44139407
Si       7.21872383       4.29040865       3.81246852
Si       1.10950627       0.68865374       4.71279117
Si       3.25351523       0.66597927       3.56072965
Si       5.07471487       4.31308311       4.96453004
Si       3.35544236       5.59064780      -0.07960254
Si       4.97278774      -0.61158542       8.60486223
