18
Lattice="7.9026196764124705 -1.104360734563992 0.4083663476513185 -4.789939324805515 6.381809433597122 -0.40836634765220925 -2.276820144106437 -2.213779651999971 7.81143947212953" Properties=species:S:1:pos:R:3 unique_starting_index=64 config_type=initial n_minim_iter=1 energy=-2931.542980401199 free_energy=-2931.542980401199 pbc="T T T"
Si      -1.09919889       2.41765539       5.39968992
Si       2.44205178       0.34698542       1.69815335
Si      -1.53238329       0.26465905       1.39416670
Si       1.83988237      -0.44602440       5.50406961
Si       5.08483685      -2.36379403       5.32510625
Si       4.82863862       3.63008079       1.21520334
Si      -3.10273027       2.43027589       3.80509998
Si       1.46166004       2.09430603       0.10356341
Si      -2.71617835       2.59161095       1.55358840
Si      -0.76933420      -0.53582849       5.66349131
Si      -2.25666401       0.94217433       6.75512954
Si       3.17334196       2.07382778       3.05359298
Si       1.72596569       3.75090357       3.37215308
Si      -4.42465539       1.39747055       7.07368964
Si       3.41698412       2.07070023       0.94731713
Si      -2.13604815       0.73045967       4.64885369
Si      -3.13774436       2.67918452       5.91214799
Si       1.22688267       2.00452250       2.21061143
18
Lattice="7.913500608304167 -1.104409821007566 0.40829469600623375 -4.795246686036547 6.39130832853675 -0.408294696007126 -2.280905419384212 -2.2177386967623516 7.818019843873871" Properties=species:S:1:pos:R:3 unique_starting_index=64 config_type=initial n_minim_iter=2 stress="0.011522313202843873 -0.0026600697613839296 0.002155863941352118 -0.0026600697613839296 0.008581180962947386 -0.0012715453458117228 0.002155863941352118 -0.0012715453458117228 0.013377332574494522" pbc="T T T"
Si      -1.10031235       2.42170060       5.40432779
Si       2.44545594       0.34795771       1.69946521
Si      -1.53460473       0.26477822       1.39535437
Si       1.84210112      -0.44614199       5.50851164
Si       5.09121364      -2.36642442       5.32941411
Si       4.83620161       3.63722654       1.21625684
Si      -3.10660059       2.43357091       3.80852454
Si       1.46438691       2.09805400       0.10366197
Si      -2.71943845       2.59531938       1.55523678
Si      -0.77075918      -0.53677363       5.66839405
Si      -2.26001793       0.94336100       6.76078282
Si       3.17816383       2.07814387       3.05592024
Si       1.72923735       3.75767971       3.37497072
Si      -4.43091229       1.39882369       7.07983329
Si       3.42189568       2.07509151       0.94782465
Si      -2.13942449       0.73153147       4.65268723
Si      -3.14184303       2.68314607       5.91738505
Si       1.22891574       2.00814782       2.21252248
18
Lattice="7.912952294811431 -1.0982384574156707 0.40335981251555847 -4.789580421299735 6.393814285480135 -0.4033598125164523 -2.287169527294068 -2.2198920411453478 7.808622942753697" Properties=species:S:1:pos:R:3 unique_starting_index=64 config_type=initial n_minim_iter=3 stress="0.005639865103640485 0.008937301095050561 -0.00044394332153810823 0.008937301095050561 0.015521479777810123 0.00026184122914671 -0.00044394332153810823 0.00026184122914671 -0.008558116536802305" pbc="T T T"
Si      -1.10117525       2.42515954       5.39869050
Si       2.44486919       0.35120175       1.69605894
Si      -1.53545270       0.26399924       1.39418858
Si       1.83896639      -0.44301398       5.50017995
Si       5.08703350      -2.36233168       5.31980766
Si       4.83912151       3.64557303       1.21381628
Si      -3.10595695       2.43380697       3.80640162
Si       1.46734962       2.10153884       0.10377005
Si      -2.71806607       2.59612669       1.55596157
Si      -0.77420793      -0.53635628       5.66195294
Si      -2.26314442       0.94433797       6.75269104
Si       3.17865407       2.08456976       3.05005948
Si       1.73159691       3.76473712       3.37100173
Si      -4.43368706       1.39785914       7.07363329
Si       3.42218436       2.08130439       0.94534650
Si      -2.14246208       0.73278789       4.64797807
Si      -3.14188891       2.68475151       5.91243022
Si       1.23034641       2.01157359       2.20979865
18
Lattice="7.9147893533178 -1.1016289064944973 0.3966867993283473 -4.79343643793082 6.393781656463839 -0.3966867993292405 -2.2929685160115225 -2.2141648147663955 7.8168247523592225" Properties=species:S:1:pos:R:3 unique_starting_index=64 config_type=initial n_minim_iter=4 stress="-0.001678846159262466 0.005384069271659471 -0.007354069624254244 0.005384069271659471 0.004274102874882006 0.004337487549224144 -0.007354069624254244 0.004337487549224144 0.005792607709875455" pbc="T T T"
Si      -1.10784577       2.42744696       5.40535326
Si       2.44345801       0.35137404       1.69528429
Si      -1.53770458       0.26511568       1.39614549
Si       1.83491885      -0.44041498       5.50290126
Si       5.08591758      -2.35983089       5.32074116
Si       4.83635500       3.64074825       1.21398539
Si      -3.10929706       2.43450443       3.81419806
Si       1.46894124       2.09956572       0.10412908
Si      -2.72112561       2.59727518       1.56231446
Si      -0.77867428      -0.53306594       5.66907023
Si      -2.27048348       0.94817853       6.75943229
Si       3.17556018       2.08457569       3.04936331
Si       1.72860821       3.76495789       3.37474708
Si      -4.44116324       1.40150370       7.08481606
Si       3.41761795       2.08061548       0.94383359
Si      -2.14990546       0.73825333       4.65390257
Si      -3.14674687       2.68776558       5.92258621
Si       1.22917625       2.00980802       2.21251724
18
Lattice="7.919680011031663 -1.1054570865468312 0.40086691928999507 -4.799152932249938 6.39620965730543 -0.40086691929088847 -2.289140183570418 -2.2154791630244173 7.812629948540015" Properties=species:S:1:pos:R:3 unique_starting_index=64 config_type=initial n_minim_iter=5 stress="0.0038305970716837677 0.00010374336724194688 -0.0006909594862316728 0.00010374336724194688 0.003945301943913108 0.0004075332872290931 -0.0006909594862316728 0.0004075332872290931 -0.0034926595298961586" pbc="T T T"
Si      -1.10702766       2.42633786       5.40126060
Si       2.44535564       0.34993775       1.69537909
Si      -1.53819153       0.26531963       1.39432184
Si       1.83886425      -0.44265875       5.50107027
Si       5.09303838      -2.36316972       5.32183693
Si       4.83753688       3.63730283       1.21508850
Si      -3.10971286       2.43445749       3.81016482
Si       1.46931231       2.09869541       0.10428330
Si      -2.72312221       2.59813467       1.55986501
Si      -0.77603299      -0.53430568       5.66661344
Si      -2.26881153       0.94680389       6.75422550
Si       3.17810330       2.08252061       3.04834399
Si       1.72983936       3.76347649       3.37312628
Si      -4.44062811       1.40099971       7.07900780
Si       3.41813084       2.07924657       0.94448139
Si      -2.14981630       0.73832350       4.65036291
Si      -3.14603166       2.68749349       5.91744485
Si       1.23029156       2.00805682       2.21156333
18
Lattice="7.91577173581583 -1.1005125715483295 0.40661817158999597 -4.79293475264402 6.395181510369601 -0.40661817159089014 -2.284695825272916 -2.220739864000328 7.8173956383772945" Properties=species:S:1:pos:R:3 unique_starting_index=64 config_type=initial n_minim_iter=6 stress="-0.005078524520303501 0.007237560450664702 0.005317638663068935 0.007237560450664702 0.0029237552276593 -0.0031363847054667994 0.005317638663068935 -0.0031363847054667994 0.0047837051652453895" pbc="T T T"
Si      -1.10189134       2.42459200       5.40240839
Si       2.44519230       0.35138989       1.69701966
Si      -1.53753639       0.26343850       1.39299146
Si       1.84109557      -0.44248007       5.50499837
Si       5.09544450      -2.35999519       5.33050547
Si       4.83796463       3.63773563       1.21849857
Si      -3.10384785       2.43151809       3.80923921
Si       1.47054607       2.10008728       0.10385047
Si      -2.72113630       2.59712446       1.55929805
Si      -0.77392001      -0.53571301       5.67130496
Si      -2.26289176       0.94079686       6.75664680
Si       3.18204825       2.08534875       3.05125806
Si       1.73481704       3.76579911       3.37638171
Si      -4.43376628       1.39433344       7.08177045
Si       3.41819498       2.08361080       0.94625620
Si      -2.14711848       0.73496963       4.65164494
Si      -3.13710079       2.68424280       5.91887777
Si       1.23328107       2.00691616       2.21348904
18
Lattice="7.924534044822282 -1.1056836696832917 0.3944103219554281 -4.801699704682969 6.400348127328587 -0.39441032195632214 -2.2965768369039172 -2.2137293307641412 7.811934526270461" Properties=species:S:1:pos:R:3 unique_starting_index=64 config_type=initial n_minim_iter=7 stress="-0.0018132928531198373 -0.0008336979414268646 -0.002924127339151935 -0.0008336979414268646 -0.002735079164677831 0.0017246730822428943 -0.002924127339151935 0.0017246730822428943 -0.001331642366499957" pbc="T T T"
Si      -1.11175321       2.43044908       5.39887248
Si       2.44561666       0.35109610       1.69011037
Si      -1.54323393       0.26497996       1.39196740
Si       1.83543061      -0.43731984       5.49513982
Si       5.09977913      -2.35597743       5.31867812
Si       4.83810230       3.63107403       1.21550570
Si      -3.11382750       2.43786465       3.81117432
Si       1.47048507       2.09965975       0.10241222
Si      -2.73199057       2.60236527       1.56543605
Si      -0.78531746      -0.52782960       5.66860847
Si      -2.27530842       0.94427030       6.75417333
Si       3.18332265       2.08844408       3.04541123
Si       1.73146021       3.77067415       3.37604821
Si      -4.44998115       1.40099892       7.08481032
Si       3.41878723       2.08484550       0.94231074
Si      -2.15823681       0.73994028       4.65107284
Si      -3.14838873       2.69229904       5.92100607
Si       1.23109084       2.00680643       2.21224396
18
Lattice="7.937486872730194 -1.1090336322050278 0.3953088490908338 -4.810898309982684 6.410063252662266 -0.39530884909172886 -2.2985454934111265 -2.2168579180962253 7.804700982964723" Properties=species:S:1:pos:R:3 unique_starting_index=64 config_type=initial n_minim_iter=8 stress="-0.0037150409835264697 -0.0018216269827904185 -0.001959995029324905 -0.0018216269827904185 -0.005729140736054355 0.0011560203357600606 -0.001959995029324905 0.0011560203357600606 -0.0006645941189496046" pbc="T T T"
Si      -1.11300600       2.42999678       5.38443360
Si       2.45286712       0.35230065       1.67973754
Si      -1.55149591       0.26342262       1.38382071
Si       1.83828833      -0.43257501       5.48382563
Si       5.12107123      -2.35790502       5.32109848
Si       4.84835292       3.62297691       1.22109357
Si      -3.11914034       2.44513424       3.80548113
Si       1.46901325       2.10068153       0.10078506
Si      -2.75006317       2.61039982       1.56796575
Si      -0.79560083      -0.51913957       5.66797067
Si      -2.28057236       0.93672934       6.74915906
Si       3.19483621       2.09658868       3.04446299
Si       1.73866612       3.77901269       3.37850840
Si      -4.45749894       1.39713404       7.08320447
Si       3.41826580       2.08222746       0.93867663
Si      -2.15990437       0.74813913       4.64337270
Si      -3.14690291       2.69261704       5.91741359
Si       1.23899216       2.00524154       2.21271753
18
Lattice="7.973454609309966 -1.1320729725893277 0.42685148833476844 -4.84846348132426 6.430394194157764 -0.426851488335663 -2.271593860713688 -2.2309289118248015 7.7728115216742" Properties=species:S:1:pos:R:3 unique_starting_index=64 config_type=initial n_minim_iter=9 stress="-0.0057251263677197545 -0.006477658301184138 0.004284908374859817 -0.006477658301184138 -0.01288721284576811 -0.002527272336973713 0.004284908374859817 -0.002527272336973713 -0.002267509004431941" pbc="T T T"
Si      -1.09268044       2.42531930       5.33384670
Si       2.47130265       0.33229124       1.66086669
Si      -1.56932007       0.25871811       1.35418211
Si       1.86524158      -0.43325491       5.45401361
Si       5.19685171      -2.37951446       5.34815594
Si       4.87087173       3.58295808       1.24832444
Si      -3.12440680       2.46091263       3.77536582
Si       1.45716455       2.09317251       0.10238580
Si      -2.79845726       2.62803239       1.55821712
Si      -0.80298658      -0.50387276       5.65804862
Si      -2.28054665       0.91402892       6.71519897
Si       3.21922338       2.10306490       3.04221895
Si       1.76413497       3.77642012       3.37402556
Si      -4.44901318       1.37787463       7.04700558
Si       3.42364732       2.07107867       0.92880956
Si      -2.15364911       0.75059916       4.60178958
Si      -3.12574709       2.66860856       5.88698205
Si       1.27474725       1.99385823       2.21400204
18
Lattice="8.026277807277001 -1.1861880606308097 0.5357463985025055 -4.921380147651988 6.450441457533458 -0.5357463985033944 -2.1647162566868197 -2.271006600795697 7.678001252311917" Properties=species:S:1:pos:R:3 unique_starting_index=64 config_type=initial n_minim_iter=10 stress="-0.0014999703507699545 -0.004305383029988749 -0.0011747829381442802 -0.004305383029988749 -0.006260259354620378 0.0006928961279341822 -0.0011747829381442802 0.0006928961279341822 0.011603278736721867" pbc="T T T"
Si      -1.01368048       2.40329927       5.18728072
Si       2.50176836       0.26678801       1.61615329
Si      -1.60902489       0.24151151       1.26413784
Si       1.94094069      -0.43727804       5.37101167
Si       5.37952672      -2.43832054       5.45873565
Si       4.91077472       3.46456682       1.35186182
Si      -3.11082023       2.48174203       3.67647550
Si       1.41848156       2.06418562       0.10534807
Si      -2.91957591       2.66321907       1.51864793
Si      -0.81252996      -0.46199396       5.62552176
Si      -2.23725136       0.80516419       6.61085474
Si       3.30841819       2.11082639       3.03972731
Si       1.85040712       3.73583326       3.34232463
Si      -4.36481901       1.29495957       6.91345205
Si       3.40654834       2.03351499       0.90444087
Si      -2.12211366       0.75668855       4.47556830
Si      -3.03245539       2.58782488       5.78704310
Si       1.36355564       1.94427830       2.21591568
18
Lattice="8.019955557622302 -1.1847915026961684 0.5496721352615838 -4.917099099828204 6.4455841080204355 -0.5496721352624722 -2.150264551978641 -2.277197974645624 7.675648383292956" Properties=species:S:1:pos:R:3 unique_starting_index=64 config_type=initial n_minim_iter=11 stress="-0.014965098533887175 0.002520570443415396 0.006495881877962102 0.002520570443415396 -0.01217820508406166 -0.00383132173158088 0.006495881877962102 -0.00383132173158088 0.012966900713279522" pbc="T T T"
Si      -0.99938249       2.39756169       5.17913905
Si       2.50332037       0.26084479       1.61615093
Si      -1.60827152       0.23903266       1.25784742
Si       1.94753933      -0.43913545       5.37050768
Si       5.38616914      -2.44121805       5.47311170
Si       4.91041832       3.45909207       1.36045144
Si      -3.10147236       2.47716186       3.66814831
Si       1.41662568       2.06201459       0.10516019
Si      -2.92197061       2.65973520       1.51359674
Si      -0.80657486      -0.46061004       5.62625700
Si      -2.22539366       0.79233086       6.60335152
Si       3.31499952       2.11045188       3.04036340
Si       1.85811925       3.73024684       3.34239306
Si      -4.34785291       1.28365822       6.90538119
Si       3.40250170       2.03196184       0.90574044
Si      -2.11436646       0.75372672       4.46872857
Si      -3.01864607       2.57701713       5.78308572
Si       1.36930848       1.94121579       2.22009760
18
Lattice="7.983960925133091 -1.168147038753002 0.5532468660375323 -4.885117507249076 6.422135664914525 -0.5532468660384194 -2.1420891658874117 -2.277434430364024 7.695634903901573" Properties=species:S:1:pos:R:3 unique_starting_index=64 config_type=initial n_minim_iter=12 stress="0.002564457309769414 -0.0007438297296942849 0.01112839220317545 -0.0007438297296942849 0.0017420346685549273 -0.006563612406534354 0.01112839220317545 -0.006563612406534354 0.031690781562422124" pbc="T T T"
Si      -0.98518130       2.39013721       5.20113661
Si       2.49460383       0.26044893       1.62994259
Si      -1.59372958       0.23823721       1.26710453
Si       1.94136153      -0.44327324       5.39154541
Si       5.34172090      -2.43325493       5.47775670
Si       4.89184093       3.47913106       1.35331581
Si      -3.08065314       2.45746492       3.67801719
Si       1.42185154       2.06176449       0.10682317
Si      -2.89242435       2.63348854       1.51053482
Si      -0.78321920      -0.46556535       5.63497571
Si      -2.20796856       0.78686118       6.61280962
Si       3.30613199       2.10628878       3.04161560
Si       1.85100227       3.72074558       3.34935205
Si      -4.32490907       1.27923923       6.92054607
Si       3.39310686       2.03652598       0.91494541
Si      -2.10483429       0.74449612       4.48613942
Si      -3.00986116       2.57326274       5.80057111
Si       1.35475950       1.94378442       2.22937709
18
Lattice="7.978276679929022 -1.167540922972895 0.547826670493003 -4.88183690786047 6.417454245521823 -0.5478266704938897 -2.145736651292338 -2.272536618741021 7.704191702406019" Properties=species:S:1:pos:R:3 unique_starting_index=64 config_type=initial n_minim_iter=13 stress="-0.007235024728278923 0.00918895756754137 0.007501718160103871 0.00918895756754137 0.0029248363946851774 -0.0044245718058134546 0.007501718160103871 -0.0044245718058134546 0.013873045435911342" pbc="T T T"
Si      -0.98366710       2.38931628       5.20994114
Si       2.49503651       0.25737508       1.63175862
Si      -1.59428021       0.23979676       1.26656551
Si       1.93506439      -0.44079392       5.39257469
Si       5.33664523      -2.42611822       5.48293650
Si       4.88540163       3.47329298       1.35692731
Si      -3.07884202       2.45672269       3.69503693
Si       1.42235899       2.05839271       0.11685442
Si      -2.89877560       2.62769747       1.51135482
Si      -0.78588976      -0.45445314       5.63736401
Si      -2.21352172       0.77820316       6.61209484
Si       3.31000411       2.11319180       3.03391233
Si       1.84947550       3.72148886       3.35831920
Si      -4.32768351       1.27828634       6.93650171
Si       3.38503333       2.03897722       0.90800576
Si      -2.11227092       0.74844641       4.48618827
Si      -3.01007343       2.57651359       5.81121680
Si       1.35079338       1.94025152       2.23303429
18
Lattice="7.997846033305588 -1.1766646901263451 0.5297498711664299 -4.899289763671111 6.430166465733106 -0.5297498711673169 -2.1657873916768917 -2.2631289257804754 7.712221625847454" Properties=species:S:1:pos:R:3 unique_starting_index=64 config_type=initial n_minim_iter=14 stress="-0.002540093087746051 0.011449137339391251 0.0023739293336613263 0.011449137339391251 0.01011875798332848 -0.0014001620128386845 0.0023739293336613263 -0.0014001620128386845 0.012311496332471155" pbc="T T T"
Si      -1.00127704       2.39680499       5.22427056
Si       2.49977265       0.25989783       1.63303468
Si      -1.60206476       0.24531598       1.26704699
Si       1.92622713      -0.43650947       5.38803274
Si       5.34378895      -2.42238970       5.48248610
Si       4.88795201       3.46868358       1.36150036
Si      -3.10085037       2.47506937       3.71075340
Si       1.41546455       2.05951152       0.11951752
Si      -2.91768285       2.62956272       1.51617386
Si      -0.79691055      -0.43866660       5.63715961
Si      -2.23980321       0.77717207       6.60396962
Si       3.31800104       2.12742565       3.01273374
Si       1.84765868       3.73175606       3.36767250
Si      -4.35524160       1.28776307       6.95890837
Si       3.38490468       2.04240012       0.90222537
Si      -2.13302233       0.75975713       4.49346124
Si      -3.02232121       2.59117212       5.83360956
Si       1.35184903       1.93461258       2.24237368
18
Lattice="8.01488758639081 -1.1938990289478884 0.4995200236565339 -4.922617734651485 6.436742386665638 -0.4995200236574188 -2.1905494374011205 -2.2413409802613455 7.670495940959065" Properties=species:S:1:pos:R:3 unique_starting_index=64 config_type=initial n_minim_iter=15 stress="0.004068761001995954 0.006580167672454446 -0.015240741130106846 0.006580167672454446 0.011344187972541064 0.008989107836932382 -0.015240741130106846 0.008989107836932382 -0.0011988400611974085" pbc="T T T"
Si      -1.02374063       2.40537855       5.20984427
Si       2.50230282       0.25589805       1.62435632
Si      -1.61077500       0.25360034       1.26085188
Si       1.91090250      -0.43061787       5.34585987
Si       5.35245103      -2.41855090       5.43741942
Si       4.88635712       3.44631030       1.35241144
Si      -3.13642888       2.50010172       3.70228396
Si       1.39724528       2.05902643       0.11679601
Si      -2.93114580       2.62690754       1.51614288
Si      -0.80496070      -0.42332283       5.60115086
Si      -2.27615702       0.77790044       6.56643941
Si       3.32067673       2.13937780       2.98095145
Si       1.83337485       3.73270049       3.35946030
Si      -4.39016714       1.30865962       6.94494826
Si       3.37242456       2.04089341       0.87371144
Si      -2.16493004       0.78026103       4.45919940
Si      -3.04546482       2.60800726       5.82420519
Si       1.34681994       1.92721083       2.23871723
18
Lattice="8.03112849596835 -1.219999796422542 0.5001276401442548 -4.953317954069984 6.438327862722828 -0.5001276401451359 -2.184309756723354 -2.2284994400328184 7.647041380401358" Properties=species:S:1:pos:R:3 unique_starting_index=64 config_type=initial n_minim_iter=16 stress="0.00483556537865035 -0.0015156817846783792 -0.0012887651673821993 -0.0015156817846783792 0.0031597369372446016 0.0007601237345836481 -0.0012887651673821993 0.0007601237345836481 -0.02706859919618315" pbc="T T T"
Si      -1.02918746       2.39501485       5.20164753
Si       2.51373814       0.24620795       1.62819066
Si      -1.61740693       0.26012972       1.24751910
Si       1.91321984      -0.43460248       5.32110361
Si       5.37681172      -2.42708013       5.43896334
Si       4.87990819       3.41123153       1.36537883
Si      -3.16671305       2.52785813       3.70221454
Si       1.36330231       2.05262993       0.12875767
Si      -2.95759504       2.60965007       1.50035147
Si      -0.79141386      -0.39845541       5.57393598
Si      -2.29961584       0.75123517       6.53247103
Si       3.33766412       2.15333822       2.95901416
Si       1.83653755       3.71366800       3.35879560
Si      -4.39144025       1.31005587       6.93225247
Si       3.36221338       2.02555678       0.84830676
Si      -2.17590820       0.79157354       4.42176363
Si      -3.04391179       2.60673186       5.81489094
Si       1.35368812       1.90699757       2.24143407
18
Lattice="8.032136294290284 -1.2301181094912883 0.5096760332207223 -4.962660770388768 6.4343144227957385 -0.5096760332216012 -2.1722016882482706 -2.2261169673675667 7.651051220423614" Properties=species:S:1:pos:R:3 unique_starting_index=64 config_type=initial n_minim_iter=17 stress="0.014390388357201809 -0.01410132912902184 -6.389483515014038e-05 -0.01410132912902184 -0.0012008845969191894 3.7685671457644507e-05 -6.389483515014038e-05 3.7685671457644507e-05 0.005297587412396912" pbc="T T T"
Si      -1.01866149       2.37977564       5.21208743
Si       2.52661754       0.23811858       1.64139984
Si      -1.61820051       0.26205905       1.24053201
Si       1.91770533      -0.43870932       5.32089564
Si       5.40006049      -2.43039985       5.46057485
Si       4.87916875       3.38222727       1.38021123
Si      -3.17886628       2.54048056       3.71200954
Si       1.34082546       2.05090868       0.14132195
Si      -2.97111668       2.59069995       1.47492891
Si      -0.77481342      -0.38132120       5.55529254
Si      -2.31811615       0.72227875       6.51880873
Si       3.34850491       2.17728837       2.94812114
Si       1.84239940       3.69707416       3.37088419
Si      -4.37686668       1.30507282       6.94157178
Si       3.34958413       2.01665899       0.83585602
Si      -2.17701630       0.79904981       4.40654361
Si      -3.03455189       2.59967039       5.82843149
Si       1.35884646       1.89597216       2.25774390
18
Lattice="8.021686537954073 -1.2294434896672966 0.516984155130521 -4.957014573287877 6.425495523902391 -0.5169841551313984 -2.162180774415808 -2.226538652542358 7.650386485590218" Properties=species:S:1:pos:R:3 unique_starting_index=64 config_type=initial n_minim_iter=18 stress="0.02342329910673739 -0.0015296683250243502 0.008938989115601623 -0.0015296683250243502 0.02173200630970826 -0.005272285411049506 0.008938989115601623 -0.005272285411049506 0.02957344385188837" pbc="T T T"
Si      -1.00293853       2.35803158       5.22353788
Si       2.54301899       0.23542669       1.65683671
Si      -1.61496678       0.26140705       1.23574801
Si       1.91962606      -0.44109747       5.31943333
Si       5.40056782      -2.42632040       5.46968872
Si       4.87125487       3.37153880       1.38600340
Si      -3.18807371       2.54958472       3.72032571
Si       1.31816772       2.05511011       0.15362454
Si      -2.98090592       2.55459200       1.45347825
Si      -0.74816354      -0.35515778       5.53716357
Si      -2.32625633       0.69248762       6.50165698
Si       3.36040344       2.19937407       2.93495581
Si       1.84761460       3.68687721       3.38082438
Si      -4.35998763       1.29674970       6.94752555
Si       3.33565421       2.01725065       0.82019823
Si      -2.17884188       0.80226215       4.38689940
Si      -3.01993389       2.58650348       5.83885112
Si       1.36720686       1.89009752       2.27214995
18
Lattice="8.030708162615388 -1.2445928649644247 0.499319723510413 -4.974637656507354 6.426061404863476 -0.49931972351128806 -2.175832994574777 -2.208658115950487 7.656868385474937" Properties=species:S:1:pos:R:3 unique_starting_index=64 config_type=initial n_minim_iter=19 stress="0.014220742501010953 -0.0025175575911527233 0.005618594055001768 -0.0025175575911527233 0.0114371802408976 -0.0033138905399490936 0.005618594055001768 -0.0033138905399490936 0.011094993476781332" pbc="T T T"
Si      -1.01661054       2.35767297       5.24005603
Si       2.54805497       0.23105055       1.66128170
Si      -1.61854488       0.26437085       1.24025408
Si       1.91298578      -0.43803439       5.31834813
Si       5.40183198      -2.43031567       5.45645986
Si       4.86907686       3.35641636       1.37836581
Si      -3.21221866       2.56154401       3.73807733
Si       1.30735647       2.05393992       0.15930300
Si      -3.00395896       2.54830139       1.45382932
Si      -0.75612699      -0.33057340       5.53192337
Si      -2.34311176       0.69513183       6.50207646
Si       3.36127126       2.19633114       2.92330213
Si       1.83006855       3.68744995       3.39067867
Si      -4.38891637       1.31375980       6.96945300
Si       3.32671919       2.01072607       0.81172076
Si      -2.19739309       0.81516997       4.39049509
Si      -3.03374286       2.59302867       5.85660168
Si       1.36615210       1.88251072       2.27782735
18
Lattice="8.035833127775243 -1.2758692809661785 0.4636569431507247 -5.004489332245792 6.4154144841156215 -0.46365694315159267 -2.198925997853618 -2.1667840111033443 7.675802753015761" Properties=species:S:1:pos:R:3 unique_starting_index=64 config_type=initial n_minim_iter=20 stress="-0.008339261946207177 -0.006345821469684784 -0.008282050630791992 -0.006345821469684784 -0.01535558173750958 0.004884817975405515 -0.008282050630791992 0.004884817975405515 -0.009737270191847421" pbc="T T T"
Si      -1.03708744       2.34418421       5.28756372
Si       2.56406177       0.21892213       1.68149081
Si      -1.62269427       0.26455277       1.25239995
Si       1.90183500      -0.42919215       5.32212980
Si       5.40100916      -2.43601035       5.43422605
Si       4.85791987       3.31266948       1.36449620
Si      -3.27127554       2.59032293       3.78689861
Si       1.26770622       2.05512556       0.18082571
Si      -3.06282817       2.51898121       1.43897232
Si      -0.76793297      -0.25956844       5.50870217
Si      -2.39414889       0.68215341       6.50740779
Si       3.36204581       2.21070114       2.90133488
Si       1.80336399       3.66961848       3.40806405
Si      -4.42506671       1.34040991       7.01413696
Si       3.29618261       1.99652517       0.79367715
Si      -2.23857479       0.84341720       4.39975005
Si      -3.04998536       2.60223169       5.89838133
Si       1.36434846       1.85569778       2.29230842
18
Lattice="8.039402073724716 -1.2822783148954024 0.46535313152426133 -5.011825038051996 6.415437098734152 -0.4653531315251281 -2.1964649003076673 -2.1639315437990034 7.683181051194149" Properties=species:S:1:pos:R:3 unique_starting_index=64 config_type=initial n_minim_iter=21 stress="-0.01725256347256511 0.005884775182581717 -0.0005898218138554441 0.005884775182581717 -0.010746004033635029 0.0003478815002269904 -0.0005898218138554441 0.0003478815002269904 -0.005492145449770859" pbc="T T T"
Si      -1.03070105       2.33669248       5.29596250
Si       2.57426208       0.21232685       1.68704854
Si      -1.62377174       0.25895142       1.25613095
Si       1.90923085      -0.42731742       5.33039804
Si       5.41090620      -2.44259355       5.43799211
Si       4.86168787       3.30258485       1.36372501