14
Lattice="5.403035101464578 0.24267353790971805 0.726892235245721 2.89384802402042 6.3038612912328835 -0.6227823376864601 0.8826019567986778 1.1369352770058454 8.805189467910036" Properties=species:S:1:pos:R:3 unique_starting_index=86 config_type=initial n_minim_iter=1 energy=-2283.9876684379337 free_energy=-2283.9876684379337 pbc="T T T"
Si       5.64701272       3.47557157       6.80323710
Si       5.43428062       1.28469717       4.13068660
Si       4.38757548       3.65406043       3.19443518
Si       6.27960913       2.74652055       2.83366965
Si       4.59802627       4.14223546       8.62403627
Si       1.87316139       2.04064961       0.26898227
Si       3.26742696       5.29727340       2.31158542
Si       7.62086596       2.79829912       7.38870032
Si       2.82590295       3.29171081       1.74206822
Si       5.08290211       5.51988626       7.06169450
Si       2.46884208       1.22061220       8.31166054
Si       6.76886448       4.70248361       3.50890526
Si       4.21693130       2.66890596       5.27364826
Si       3.81345834       6.77249593       0.87101328
14
Lattice="5.4030134316624885 0.2427330280159771 0.7268915367952572 2.8939097620980205 6.3037510036139475 -0.622774173982488 0.8826263135407862 1.1369128622719444 8.80507418222711" Properties=species:S:1:pos:R:3 unique_starting_index=86 config_type=initial n_minim_iter=2 stress="-7.945679141646214e-05 -8.152393407304803e-05 2.5710780759267567e-05 -8.152393407304803e-05 -0.0001234017919956311 -5.231451296218098e-05 2.5710780759267567e-05 -5.231451296218098e-05 -5.746220884003438e-05" pbc="T T T"
Si       5.64704265       3.47555437       6.80315235
Si       5.43427734       1.28473178       4.13063783
Si       4.38760417       3.65402593       3.19439853
Si       6.27961780       2.74652851       2.83364167
Si       4.59807207       4.14219009       8.62392863
Si       1.87317349       2.04061869       0.26897652
Si       3.26748010       5.29718981       2.31155563
Si       7.62087331       2.79832177       7.38861041
Si       2.82593228       3.29167016       1.74205163
Si       5.08295604       5.51982240       7.06160540
Si       2.46885715       1.22060577       8.31155912
Si       6.76889271       4.70245497       3.50887162
Si       4.21695401       2.66889077       5.27358461
Si       3.81352675       6.77238147       0.87099793
14
Lattice="5.403090437335834 0.24294950597190437 0.7268691276292143 2.894193209289656 6.303836744105754 -0.6227065385358908 0.8826461518282311 1.1370501514679572 8.805041531460954" Properties=species:S:1:pos:R:3 unique_starting_index=86 config_type=initial n_minim_iter=3 stress="4.3324622155732187e-05 0.00014436830704278155 1.726147845929258e-05 0.00014436830704278155 -7.984691450283273e-05 -5.2222216357404515e-05 1.726147845929258e-05 -5.2222216357404515e-05 -1.965346861543638e-05" pbc="T T T"
Si       5.64723560       3.47584105       6.80313001
Si       5.43437977       1.28499711       4.13060524
Si       4.38778443       3.65422239       3.19441509
Si       6.27980098       2.74678944       2.83363890
Si       4.59826700       4.14246283       8.62392372
Si       1.87326292       2.04067194       0.26897849
Si       3.26772017       5.29732875       2.31159351
Si       7.62104187       2.79869965       7.38856467
Si       2.82608879       3.29179651       1.74208586
Si       5.08320356       5.52011582       7.06161344
Si       2.46889707       1.22078720       8.31153696
Si       6.76913859       4.70275121       3.50890414
Si       4.21709672       2.66910761       5.27357747
Si       3.81384419       6.77250427       0.87104207
14
Lattice="5.403025091573693 0.24297618556090939 0.7268165612024909 2.8941714575321336 6.303784663279268 -0.6225112065363799 0.8825586191396545 1.1373388661750057 8.80492140373797" Properties=species:S:1:pos:R:3 unique_starting_index=86 config_type=initial n_minim_iter=4 stress="4.4543999112508604e-05 -1.4093347612051384e-05 -1.3740403891763766e-05 -1.4093347612051384e-05 4.2730513455346124e-05 0.00011859778241642064 -1.3740403891763766e-05 0.00011859778241642064 -0.00011520461467506355" pbc="T T T"
Si       5.64714469       3.47604532       6.80305792
Si       5.43428196       1.28515975       4.13051285
Si       4.38769242       3.65431217       3.19446013
Si       6.27974604       2.74686187       2.83363166
Si       4.59815123       4.14273300       8.62389191
Si       1.87322823       2.04064313       0.26899381
Si       3.26766119       5.29737209       2.31169814
Si       7.62087423       2.79894339       7.38843161
Si       2.82602886       3.29184576       1.74217024
Si       5.08307894       5.52039331       7.06162262
Si       2.46877881       1.22104212       8.31144672
Si       6.76902186       4.70286129       3.50898515
Si       4.21702664       2.66926093       5.27354485
Si       3.81382136       6.77246550       0.87118162
14
Lattice="5.402931765295475 0.2429901504787856 0.726816879968628 2.8941513788168196 6.303749008102201 -0.6226007646685441 0.8825233232622368 1.1372412172539936 8.805128746332471" Properties=species:S:1:pos:R:3 unique_starting_index=86 config_type=initial n_minim_iter=5 stress="-0.00012490283905945934 3.582023422273258e-05 -1.8906982877470932e-05 3.582023422273258e-05 -7.318632548052963e-05 -5.363770770989619e-06 -1.8906982877470932e-05 -5.363770770989619e-06 2.7409375022868623e-06" pbc="T T T"
Si       5.64706608       3.47596596       6.80315753
Si       5.43417703       1.28514568       4.13057843
Si       4.38761502       3.65426168       3.19450830
Si       6.27967837       2.74683548       2.83365555
Si       4.59806673       4.14262374       8.62407237
Si       1.87320226       2.04061519       0.26894873
Si       3.26760960       5.29730750       2.31169295
Si       7.62071976       2.79888200       7.38853567
Si       2.82597126       3.29181266       1.74218966
Si       5.08298714       5.52034823       7.06171622
Si       2.46870816       1.22093744       8.31165814
Si       6.76890588       4.70282059       3.50904345
Si       4.21696918       2.66919197       5.27364431
Si       3.81380046       6.77239290       0.87109693
14
Lattice="5.403048869038263 0.24296824991394156 0.7268501584439213 2.894189508032643 6.303715210011191 -0.622625134889097 0.8825975546847082 1.1371706484116084 8.805111591048545" Properties=species:S:1:pos:R:3 unique_starting_index=86 config_type=initial n_minim_iter=6 stress="3.686117599048644e-05 1.575936984013169e-05 -5.632776184996323e-06 1.575936984013169e-05 -9.774295139910453e-05 -4.954035516904852e-05 -5.632776184996323e-06 -4.954035516904852e-05 7.388401138974516e-06" pbc="T T T"
Si       5.64722684       3.47589073       6.80314900
Si       5.43431117       1.28509894       4.13059243
Si       4.38771881       3.65420219       3.19451921
Si       6.27983431       2.74678298       2.83366985
Si       4.59820720       4.14252900       8.62406942
Si       1.87324051       2.04059850       0.26893739
Si       3.26766920       5.29725788       2.31167370
Si       7.62091525       2.79879465       7.38853928
Si       2.82602633       3.29177394       1.74218147
Si       5.08311804       5.52027339       7.06169179
Si       2.46880532       1.22086267       8.31165769
Si       6.76905025       4.70275555       3.50907292
Si       4.21709897       2.66912065       5.27364767
Si       3.81387333       6.77233606       0.87106860
14
Lattice="5.403054786181584 0.24301055737072258 0.7269448733238207 2.894219566809253 6.303799009515395 -0.6225672276106791 0.8827731211427184 1.1371815698920091 8.805023632612382" Properties=species:S:1:pos:R:3 unique_starting_index=86 config_type=initial n_minim_iter=7 stress="-5.532942698621723e-05 3.1436134588782504e-05 9.127111327648573e-05 3.1436134588782504e-05 1.0063199185951746e-05 -3.731766309634386e-05 9.127111327648573e-05 -3.731766309634386e-05 -5.87490378241284e-05" pbc="T T T"
Si       5.64738634       3.47598726       6.80314916
Si       5.43437935       1.28515795       4.13063032
Si       4.38782337       3.65423830       3.19459381
Si       6.27991099       2.74686122       2.83374524
Si       4.59838910       4.14259705       8.62407535
Si       1.87327566       2.04065186       0.26895062
Si       3.26771758       5.29733654       2.31170800
Si       7.62105256       2.79886975       7.38856030
Si       2.82606661       3.29181607       1.74220436
Si       5.08326374       5.52037802       7.06168127
Si       2.46895281       1.22088702       8.31160402
Si       6.76912593       4.70285406       3.50922144
Si       4.21725288       2.66914677       5.27367250
Si       3.81394734       6.77241393       0.87113092
14
Lattice="5.403135312147396 0.24308653584451176 0.7268119237366867 2.894372003836995 6.303641319987746 -0.6225542534928084 0.8825681065962825 1.1372957863515682 8.805115519900188" Properties=species:S:1:pos:R:3 unique_starting_index=86 config_type=initial n_minim_iter=8 stress="7.395672245127402e-05 -2.517005771658764e-05 -2.2099627086917152e-05 -2.517005771658764e-05 6.327775634412062e-05 1.9499144583415536e-05 -2.2099627086917152e-05 1.9499144583415536e-05 0.00014010211143291202" pbc="T T T"
Si       5.64738492       3.47615805       6.80305167
Si       5.43434869       1.28527932       4.13049878
Si       4.38792599       3.65414391       3.19465540
Si       6.28001298       2.74692734       2.83362696
Si       4.59829568       4.14267648       8.62415473
Si       1.87338555       2.04067685       0.26887012
Si       3.26768471       5.29725464       2.31174309
Si       7.62099797       2.79898191       7.38837844
Si       2.82609651       3.29177147       1.74219671
Si       5.08316539       5.52041654       7.06164827
Si       2.46874597       1.22103934       8.31161134
Si       6.76917041       4.70286091       3.50935108
Si       4.21735507       2.66911443       5.27368729
Si       3.81411618       6.77224531       0.87119116
14
Lattice="5.403165169329544 0.24322565034913488 0.7266551797356249 2.894576978299741 6.303799127732509 -0.6226709171370267 0.8824155754338678 1.1372122733226597 8.804632302734896" Properties=species:S:1:pos:R:3 unique_starting_index=86 config_type=initial n_minim_iter=9 stress="6.672634837258925e-05 -6.851492520771057e-06 -7.544807559210378e-05 -6.851492520771057e-06 0.0001721010995892297 -4.8372016760162564e-05 -7.544807559210378e-05 -4.8372016760162564e-05 4.233006709382172e-05" pbc="T T T"
Si       5.64739434       3.47636497       6.80245296
Si       5.43428606       1.28543492       4.13010370
Si       4.38798569       3.65417355       3.19443663
Si       6.28015967       2.74710045       2.83325496
Si       4.59829188       4.14275747       8.62356066
Si       1.87348642       2.04080710       0.26873677
Si       3.26766621       5.29729653       2.31151987
Si       7.62094869       2.79909125       7.38768326
Si       2.82615673       3.29187814       1.74204174
Si       5.08309553       5.52051055       7.06104361
Si       2.46858575       1.22105439       8.31107375
Si       6.76925569       4.70302624       3.50917122
Si       4.21748305       2.66909630       5.27333340
Si       3.81435460       6.77240291       0.87101452
14
Lattice="5.4032322283542715 0.24330949526612572 0.7268199824119675 2.894669997882974 6.303720541165719 -0.6224831974763488 0.8826864722231983 1.1373632855044291 8.804777193453484" Properties=species:S:1:pos:R:3 unique_starting_index=86 config_type=initial n_minim_iter=10 stress="7.338094551478977e-05 -3.866448285763688e-05 8.624050147286249e-06 -3.866448285763688e-05 9.835774359158927e-05 3.140948989956565e-05 8.624050147286249e-06 3.140948989956565e-05 8.771916081890608e-05" pbc="T T T"
Si       5.64768504       3.47656247       6.80269967
Si       5.43444393       1.28559741       4.13028035
Si       4.38814624       3.65417725       3.19471199
Si       6.28037428       2.74719751       2.83349713
Si       4.59865831       4.14292671       8.62384262
Si       1.87355984       2.04083325       0.26879096
Si       3.26774509       5.29726297       2.31175998
Si       7.62125225       2.79926542       7.38795774
Si       2.82627225       3.29191000       1.74224090
Si       5.08333594       5.52061313       7.06133615
Si       2.46884941       1.22124096       8.31122866
Si       6.76947848       4.70306732       3.50960371
Si       4.21777868       2.66915942       5.27359436
Si       3.81452866       6.77234562       0.87129015
14
Lattice="5.403224219282339 0.24355455238854604 0.7268147302412323 2.8949379626296685 6.303946864574722 -0.6224527192367102 0.8828217245776617 1.1373537199084716 8.804084995943157" Properties=species:S:1:pos:R:3 unique_starting_index=86 config_type=initial n_minim_iter=11 stress="-8.14565213762042e-06 -6.252099569770406e-05 -1.4837971449834081e-06 -6.252099569770406e-05 -9.531521308500293e-07 3.2714822032160215e-05 -1.4837971449834081e-06 3.2714822032160215e-05 -0.00011844361757379547" pbc="T T T"
Si       5.64789241       3.47691765       6.80196009
Si       5.43447084       1.28593119       4.12976857
Si       4.38818657       3.65418103       3.19460389
Si       6.28056547       2.74760569       2.83333183
Si       4.59900862       4.14321324       8.62311454
Si       1.87377634       2.04104040       0.26862212
Si       3.26773072       5.29752947       2.31171563
Si       7.62144336       2.79953708       7.38710991
Si       2.82655111       3.29207491       1.74222313
Si       5.08325502       5.52102971       7.06069461
Si       2.46898329       1.22141624       8.31051839
Si       6.76968314       4.70312080       3.50980284
Si       4.21820128       2.66921886       5.27338875
Si       3.81493551       6.77251840       0.87134602
14
Lattice="5.40315651659466 0.24365199606862345 0.726827856169057 2.8950036669597354 6.303911959689346 -0.6223651639633648 0.8828312495301467 1.1374858399972076 8.804199295158611" Properties=species:S:1:pos:R:3 unique_starting_index=86 config_type=initial n_minim_iter=12 stress="-3.306304518253473e-05 -7.313524900814789e-05 -1.6908849588113562e-06 -7.313524900814789e-05 -3.4859825686298765e-05 5.2493485384290195e-05 -1.6908849588113562e-06 5.2493485384290195e-05 -0.00013121885778848838" pbc="T T T"
Si       5.64786104       3.47708636       6.80204531
Si       5.43440177       1.28610537       4.12980183
Si       4.38814738       3.65421422       3.19470956
Si       6.28052780       2.74763854       2.83334836
Si       4.59903290       4.14338329       8.62327136
Si       1.87382336       2.04106275       0.26866344
Si       3.26774581       5.29755838       2.31187110
Si       7.62141573       2.79971853       7.38716597
Si       2.82658639       3.29206900       1.74226304
Si       5.08317264       5.52123887       7.06083458
Si       2.46897938       1.22160839       8.31062548
Si       6.76968966       4.70318531       3.51003028
Si       4.21824279       2.66931766       5.27353882
Si       3.81504030       6.77255915       0.87147371
14
Lattice="5.403168708746651 0.24377832717308348 0.7268812220170388 2.8951311332453287 6.303760402630082 -0.6221636282307054 0.8828771477343272 1.1377782841884547 8.804619342889758" Properties=species:S:1:pos:R:3 unique_starting_index=86 config_type=initial n_minim_iter=13 stress="-8.918397606662825e-05 5.06124199751397e-05 4.380554797984969e-06 5.06124199751397e-05 -0.00012038979318034605 7.923939165623738e-05 4.380554797984969e-06 7.923939165623738e-05 -0.0001573712455054882" pbc="T T T"
Si       5.64789596       3.47737424       6.80247445
Si       5.43438680       1.28634129       4.13009194
Si       4.38821394       3.65426209       3.19497403
Si       6.28059730       2.74779517       2.83347258
Si       4.59917290       4.14367179       8.62378407
Si       1.87390309       2.04102991       0.26880160
Si       3.26789476       5.29751361       2.31219032
Si       7.62155262       2.80001631       7.38755233
Si       2.82661019       3.29204178       1.74239134
Si       5.08318626       5.52152336       7.06132880
Si       2.46902700       1.22198627       8.31107610
Si       6.76984978       4.70322321       3.51044899
Si       4.21834444       2.66950488       5.27391431
Si       3.81524731       6.77245565       0.87171881
14
Lattice="5.403171623833844 0.24372572762543934 0.7269310306534877 2.8950696565693765 6.303714976470204 -0.6221787336431611 0.882910131630318 1.137753663522066 8.804907015102678" Properties=species:S:1:pos:R:3 unique_starting_index=86 config_type=initial n_minim_iter=14 stress="1.532963339505073e-05 -1.6532289790345614e-05 4.862674699719418e-06 -1.6532289790345614e-05 6.0077199804157216e-05 -5.254088918790939e-06 4.862674699719418e-06 -5.254088918790939e-06 7.292765592009501e-05" pbc="T T T"
Si       5.64786385       3.47731159       6.80275746
Si       5.43438644       1.28627545       4.13029371
Si       4.38819316       3.65420775       3.19505215
Si       6.28053627       2.74771173       2.83355607
Si       4.59918851       4.14360582       8.62407574
Si       1.87388726       2.04099589       0.26886040
Si       3.26791155       5.29743987       2.31225856
Si       7.62158911       2.79992171       7.38784042
Si       2.82658468       3.29201602       1.74242433
Si       5.08315485       5.52147682       7.06158236
Si       2.46905178       1.22194476       8.31140434
Si       6.76986580       4.70313503       3.51054707
Si       4.21832585       2.66946318       5.27409759
Si       3.81520323       6.77238784       0.87173102
14
Lattice="5.403182613693587 0.24374726609468364 0.7269268259808479 2.8950997667545972 6.303655531281436 -0.6221485551821953 0.8828965466521659 1.1378034944457187 8.804987456249806" Properties=species:S:1:pos:R:3 unique_starting_index=86 config_type=initial n_minim_iter=15 stress="-3.449379622558156e-05 4.28828063157483e-05 2.4260692219431316e-05 4.28828063157483e-05 -2.283776832993243e-05 -2.9259036434569567e-05 2.4260692219431316e-05 -2.9259036434569567e-05 6.949744980222089e-05" pbc="T T T"
Si       5.64784412       3.47736873       6.80285046
Si       5.43438537       1.28630182       4.13034444
Si       4.38816610       3.65419849       3.19507293
Si       6.28054095       2.74771584       2.83355190
Si       4.59919758       4.14363527       8.62417749
Si       1.87393074       2.04101650       0.26890003
Si       3.26795991       5.29739732       2.31229414
Si       7.62161777       2.79996554       7.38788913
Si       2.82659927       3.29202245       1.74242667
Si       5.08312721       5.52152365       7.06165573
Si       2.46904689       1.22196089       8.31149005
Si       6.76993458       4.70310772       3.51059492
Si       4.21832335       2.66949863       5.27416079
Si       3.81524639       6.77230733       0.87178936
14
Lattice="5.403188949251193 0.24379730433872054 0.7269019774556186 2.8951624252203216 6.303732815997861 -0.6221596398129724 0.8828731115142566 1.1378170000359877 8.804942098042169" Properties=species:S:1:pos:R:3 unique_starting_index=86 config_type=initial n_minim_iter=16 stress="-5.764550778781714e-06 4.080098555524721e-05 1.5771065606161652e-05 4.080098555524721e-05 9.282047017002835e-06 -5.669176046651399e-05 1.5771065606161652e-05 -5.669176046651399e-05 8.526868253382138e-05" pbc="T T T"
Si       5.64782124       3.47752707       6.80280597
Si       5.43438541       1.28634678       4.13026897
Si       4.38811742       3.65418665       3.19504271
Si       6.28054826       2.74777886       2.83347742
Si       4.59924323       4.14371867       8.62414224
Si       1.87401152       2.04106251       0.26886014
Si       3.26798161       5.29747596       2.31228593
Si       7.62163802       2.80004690       7.38772994
Si       2.82662099       3.29210927       1.74238252
Si       5.08300913       5.52166799       7.06152661
Si       2.46903643       1.22203392       8.31147299
Si       6.77006473       4.70312217       3.51064967
Si       4.21837253       2.66954259       5.27415704
Si       3.81535152       6.77235308       0.87182865
