12
Lattice="5.381903511985098 0.1711991554442992 0.8417734189770792 -1.167751639923743 7.23285018594918 -2.810710513412546 0.9481967772611344 -3.7398339245114913 8.133909653644201" Properties=species:S:1:pos:R:3 unique_starting_index=44 config_type=initial n_minim_iter=1 energy=-1958.5107958237597 free_energy=-1958.5107958237597 pbc="T T T"
Si       1.00975827       0.22140242       5.64646910
Si      -0.47740087       2.48670285       1.77102978
Si       0.64345431       3.26780014       3.43399153
Si       2.64566529       2.71432038       2.93640274
Si       5.64664095       2.34685189       6.09640413
Si       4.88086084      -1.05653795       6.13265726
Si       3.51330449       4.41969082      -0.81020376
Si      -0.31880769       3.33374028      -0.49869843
Si       2.84959474      -0.45618599       6.46193935
Si       5.54169209       0.39941383       2.52541720
Si       1.28297051      -1.87198243       6.24643082
Si       3.28718009      -2.45718645       5.79884019
12
Lattice="5.375803677461437 0.17247700961343002 0.840732654907872 -1.1641706165090582 7.229595358474457 -2.8100269479135753 0.9449160816350257 -3.7382045763077776 8.131948505422592" Properties=species:S:1:pos:R:3 unique_starting_index=44 config_type=initial n_minim_iter=2 stress="-0.008127059800892544 -0.0004969340104897153 -0.0003321837798781648 -0.0004969340104897153 -0.005380034702451756 -0.0003395270343539305 -0.0003321837798781648 -0.0003395270343539305 -0.0026776901564643254" pbc="T T T"
Si       1.00770549       0.22132749       5.64495719
Si      -0.47650462       2.48550120       1.77051198
Si       0.64291781       3.26659391       3.43303424
Si       2.64310235       2.71364944       2.93524894
Si       5.63999433       2.34722484       6.09399611
Si       4.87427505      -1.05487522       6.13056263
Si       3.51091075       4.41859197      -0.81058866
Si      -0.31763802       3.33228933      -0.49847559
Si       2.84516307      -0.45535181       6.45997139
Si       5.53518651       0.40057467       2.52398470
Si       1.28018117      -1.87110463       6.24477887
Si       3.28178420      -2.45517763       5.79700839
12
Lattice="5.374985453016373 0.17635653554538938 0.8396252660024692 -1.1583029872116795 7.233075334157435 -2.810082451193504 0.9401885898269959 -3.7394320775005347 8.133565365874684" Properties=species:S:1:pos:R:3 unique_starting_index=44 config_type=initial n_minim_iter=3 stress="-0.008045141735423733 0.002771210438001895 -0.00229090600972218 0.002771210438001895 0.0023475077385597095 0.001575337128192176 -0.00229090600972218 0.001575337128192176 0.002848633403161491" pbc="T T T"
Si       1.00608840       0.22200343       5.64559227
Si      -0.47510971       2.48674034       1.77049173
Si       0.64352539       3.26945673       3.43403157
Si       2.64487159       2.71642438       2.93543917
Si       5.63938787       2.35328499       6.09391458
Si       4.87144358      -1.05134355       6.13087231
Si       3.51468319       4.42309611      -0.81092522
Si      -0.31567925       3.33417908      -0.49736041
Si       2.84255560      -0.45294408       6.46095347
Si       5.53396701       0.40463737       2.52342937
Si       1.27778066      -1.87187781       6.24585804
Si       3.27741108      -2.45280080       5.79729378
12
Lattice="5.378753098877258 0.17657678353833203 0.8400396038761148 -1.1587838236742418 7.229077369937598 -2.8109128102346856 0.9421978510524452 -3.7401480328278147 8.128133840695067" Properties=species:S:1:pos:R:3 unique_starting_index=44 config_type=initial n_minim_iter=4 stress="-0.004729086174740506 0.001481033184792323 0.0008645531584711201 0.001481033184792323 -0.002173612822382424 -0.0014228739471091564 0.0008645531584711201 -0.0014228739471091564 0.0006002514168068974" pbc="T T T"
Si       1.00740785       0.21874973       5.64005955
Si      -0.47459834       2.48414195       1.76662993
Si       0.64411691       3.26615643       3.42989997
Si       2.64905210       2.71246953       2.93227871
Si       5.64490117       2.35038230       6.08826956
Si       4.87596692      -1.05171683       6.12695940
Si       3.51855758       4.41993163      -0.81049622
Si      -0.31598537       3.33183875      -0.49750977
Si       2.84547736      -0.45456068       6.45634377
Si       5.53805669       0.40376475       2.52254590
Si       1.28074716      -1.87374213       6.24177347
Si       3.27958399      -2.45127122       5.79351864
12
Lattice="5.379934606023901 0.17548665769490174 0.8371847390374858 -1.159795791113852 7.2276922512075155 -2.8056344099279857 0.9400295127330887 -3.7371490523983484 8.119975282897276" Properties=species:S:1:pos:R:3 unique_starting_index=44 config_type=initial n_minim_iter=5 stress="-0.003682258196380132 -0.0003380449741100757 -0.0019120577492289287 -0.0003380449741100757 -0.001180297765213529 0.0006508123007638237 -0.0019120577492289287 0.0006508123007638237 -0.0018757869911207327" pbc="T T T"
Si       1.00537333       0.21996887       5.63499027
Si      -0.47602773       2.48462495       1.76546479
Si       0.64177635       3.26693465       3.42796917
Si       2.64847983       2.71220427       2.92993222
Si       5.64347990       2.35115980       6.08163480
Si       4.87527987      -1.05063445       6.11976370
Si       3.51896732       4.41794979      -0.80913212
Si      -0.31677421       3.33129121      -0.49526946
Si       2.84331173      -0.45246056       6.45018356
Si       5.53838214       0.40302744       2.51857138
Si       1.27897251      -1.87153407       6.23573071
Si       3.27847769      -2.44920169       5.78623174
12
Lattice="5.384403020020969 0.17782935367881259 0.8386025854792694 -1.1593333237574734 7.218611418435969 -2.7975480395724146 0.9432644800603769 -3.728280041718569 8.105814260236201" Properties=species:S:1:pos:R:3 unique_starting_index=44 config_type=initial n_minim_iter=6 stress="0.0035061007258171345 0.0038545332133662186 -0.0016644328689542566 0.0038545332133662186 -0.002379677412326066 -0.001598607054915975 -0.0016644328689542566 -0.001598607054915975 -0.001139429599957396" pbc="T T T"
Si       1.00945365       0.22259481       5.62463333
Si      -0.47413583       2.48284008       1.75750811
Si       0.64570622       3.26641179       3.42312919
Si       2.65500295       2.71162779       2.92982385
Si       5.65204873       2.35553026       6.07539597
Si       4.88068406      -1.04533995       6.11248886
Si       3.52344613       4.41243748      -0.80000935
Si      -0.31514242       3.32517889      -0.48784653
Si       2.84686321      -0.44366532       6.44412356
Si       5.54285327       0.40491968       2.51912473
Si       1.28119102      -1.86309626       6.22700342
Si       3.28138419      -2.43990444       5.77400810
12
Lattice="5.383546753222117 0.17255116951287014 0.8440178167190716 -1.1704720972241187 7.21624511322441 -2.7880967340691774 0.9565115494470484 -3.72022659959676 8.094292671309718" Properties=species:S:1:pos:R:3 unique_starting_index=44 config_type=initial n_minim_iter=7 stress="0.0033069148794737787 -0.003757152388370964 0.0014826359587984236 -0.003757152388370964 0.002540718599424745 -0.0007583266904005485 0.0014826359587984236 -0.0007583266904005485 0.0025609181218915864" pbc="T T T"
Si       1.01472300       0.22631677       5.61846965
Si      -0.47425820       2.48488683       1.75127060
Si       0.64650798       3.26948530       3.42128282
Si       2.65627435       2.71113616       2.93420654
Si       5.65503079       2.35620675       6.07712765
Si       4.88609185      -1.04523680       6.11066732
Si       3.51731527       4.40502717      -0.78713316
Si      -0.31863610       3.32314691      -0.47907243
Si       2.85296124      -0.43693285       6.44287230
Si       5.54259888       0.39993826       2.52467022
Si       1.28990028      -1.85603485       6.22054925
Si       3.28834891      -2.43515392       5.76546471
12
Lattice="5.38898906153176 0.17595070591195394 0.8464296736232902 -1.1709674569112654 7.204883530015886 -2.769011891767523 0.9625165434648778 -3.702718813742343 8.066671090230772" Properties=species:S:1:pos:R:3 unique_starting_index=44 config_type=initial n_minim_iter=8 stress="0.009156524745133227 0.0003145790149688448 0.005986635199718648 0.0003145790149688448 0.004082239787168101 0.004900317164246001 0.005986635199718648 0.004900317164246001 -0.0032882498620863416" pbc="T T T"
Si       1.01896711       0.23489354       5.60450490
Si      -0.47095438       2.48583142       1.74214634
Si       0.65211928       3.27381891       3.41320403
Si       2.66395243       2.71545096       2.93516586
Si       5.66633047       2.36709132       6.06935618
Si       4.89235263      -1.03332040       6.09665607
Si       3.52280263       4.39843378      -0.77011648
Si      -0.31703093       3.31870005      -0.46684387
Si       2.86047355      -0.42116277       6.43050731
Si       5.54834522       0.40442386       2.52487867
Si       1.29542201      -1.84231065       6.20168750
Si       3.29315740      -2.41966221       5.74360684
12
Lattice="5.399542234905215 0.1748007702255286 0.837729216586336 -1.1724619099856448 7.182822603910686 -2.7504398130784593 0.9569213931678251 -3.6850832720261364 8.031782475121267" Properties=species:S:1:pos:R:3 unique_starting_index=44 config_type=initial n_minim_iter=9 stress="0.019269771839598673 -0.0031091524049506832 0.0012570835142033166 -0.0031091524049506832 -0.000964514193969605 0.0034158811092933404 0.0012570835142033166 0.0034158811092933404 0.00490273914834079" pbc="T T T"
Si       1.01187005       0.23487135       5.58284541
Si      -0.47049579       2.48190658       1.71764270
Si       0.65103013       3.27043392       3.38829206
Si       2.67044571       2.71208039       2.92915602
Si       5.67211466       2.36517044       6.04412143
Si       4.89021582      -1.02889694       6.06904934
Si       3.53231060       4.37746803      -0.75553253
Si      -0.31532489       3.30729537      -0.44704919
Si       2.85973935      -0.40807691       6.41153781
Si       5.55410541       0.40000252       2.51447159
Si       1.29243835      -1.82894282       6.17558270
Si       3.29033758      -2.40261313       5.70421574
12
Lattice="5.403658845280236 0.1764068892292478 0.833538669686435 -1.1707613322890429 7.190274493108676 -2.740746050543378 0.9555881756869937 -3.6909571020591976 7.998509924201298" Properties=species:S:1:pos:R:3 unique_starting_index=44 config_type=initial n_minim_iter=10 stress="0.02169064504620847 -0.0033356085744591832 0.003316534365455574 -0.0033356085744591832 0.010352160270361377 -0.0004430676894709372 0.003316534365455574 -0.0004430676894709372 -0.001903516825801529" pbc="T T T"
Si       1.00963479       0.22925113       5.56075512
Si      -0.46710466       2.48475887       1.69391141
Si       0.65335883       3.27366619       3.36176151
Si       2.67656906       2.71633746       2.91942482
Si       5.67692246       2.36826323       6.01784057
Si       4.88893125      -1.03233164       6.04435665
Si       3.53836011       4.37836559      -0.74586743
Si      -0.31128253       3.30825937      -0.43623860
Si       2.86024946      -0.40604882       6.38980406
Si       5.55575941       0.39825956       2.50629972
Si       1.29229096      -1.82901731       6.15035966
Si       3.28795170      -2.40117104       5.67114498
12
Lattice="5.410484643070314 0.1817821459381422 0.8330488965566758 -1.166570672282013 7.172979248298045 -2.7256690670968227 0.9540437523498262 -3.6706577794637534 7.983330747087393" Properties=species:S:1:pos:R:3 unique_starting_index=44 config_type=initial n_minim_iter=11 stress="0.025213621718678265 -0.0025492094243826737 0.004405970095971638 -0.0025492094243826737 0.00700934092642416 0.002945927143817479 0.004405970095971638 0.002945927143817479 0.000777194921994836" pbc="T T T"
Si       1.00766116       0.23505947       5.55891748
Si      -0.46238773       2.48486330       1.67858892
Si       0.65719173       3.27455294       3.35286801
Si       2.68571286       2.72229841       2.92502714
Si       5.68698066       2.37956559       6.01516104
Si       4.89225257      -1.01788240       6.03819620
Si       3.54731782       4.37025133      -0.72884685
Si      -0.30383010       3.29896173      -0.41963560
Si       2.86054246      -0.39251392       6.38663858
Si       5.56018568       0.40355204       2.50735692
Si       1.29392593      -1.81113209       6.14080593
Si       3.28576553      -2.38057780       5.65089372
12
Lattice="5.396379585630442 0.1896494037719527 0.8125051303323293 -1.143558909543676 7.171788509266808 -2.7167910868658103 0.9153130630714955 -3.664455403676827 7.980343298264719" Properties=species:S:1:pos:R:3 unique_starting_index=44 config_type=initial n_minim_iter=12 stress="0.0023053606235488543 0.00031504990894821647 -0.0006823402821689591 0.00031504990894821647 0.002404010694830483 0.002184768229140346 -0.0006823402821689591 0.002184768229140346 0.0003033581718850304" pbc="T T T"
Si       0.97343122       0.24316818       5.57300998
Si      -0.45877651       2.49213848       1.64819511
Si       0.64226046       3.27304923       3.33825489
Si       2.67944422       2.74121260       2.92701585
Si       5.65930681       2.39446042       5.99178246
Si       4.85105681      -1.00780479       6.02885444
Si       3.54385112       4.37466923      -0.72268240
Si      -0.28016772       3.29132179      -0.40289107
Si       2.83252510      -0.39452960       6.38517651
Si       5.53289565       0.41087039       2.49096193
Si       1.26347981      -1.80757452       6.14152181
Si       3.24831537      -2.36362633       5.61792088
12
Lattice="5.387783672884321 0.19053372944842611 0.8081579560115885 -1.1359749418938478 7.1778646747735415 -2.732476639923747 0.9022385082352427 -3.6746746235609895 8.010396686423372" Properties=species:S:1:pos:R:3 unique_starting_index=44 config_type=initial n_minim_iter=13 stress="-0.008959448096172346 0.0016838699784613852 -0.0011298376417059712 0.0016838699784613852 0.000971720460459066 0.00025825269300794855 -0.0011298376417059712 0.00025825269300794855 0.0030943069539349903" pbc="T T T"
Si       0.96586219       0.23882964       5.59796401
Si      -0.45958866       2.49299218       1.64813035
Si       0.63731715       3.26956994       3.34411519
Si       2.67221458       2.74607595       2.93211656
Si       5.64496779       2.39381515       5.99903004
Si       4.83559222      -1.01092804       6.04595284
Si       3.53980453       4.38014450      -0.73110626
Si      -0.27415702       3.29148971      -0.41155151
Si       2.81790981      -0.40557363       6.40243749
Si       5.52040753       0.41166450       2.49091268
Si       1.25479126      -1.82055611       6.16663021
Si       3.23454224      -2.37337196       5.63184167
12
Lattice="5.388205823693014 0.18886367552418745 0.8052993602246724 -1.1361261072014848 7.180613797124167 -2.7374597174761575 0.8981770564859666 -3.67956411978594 8.017631252651116" Properties=species:S:1:pos:R:3 unique_starting_index=44 config_type=initial n_minim_iter=14 stress="-0.008996337379343113 0.0015409451039065417 -0.001262689794711937 0.0015409451039065417 0.0006322688713380993 -0.00020453692480224415 -0.001262689794711937 -0.00020453692480224415 0.003260367008551053" pbc="T T T"
Si       0.96045752       0.23767792       5.60338546
Si      -0.46191985       2.49336837       1.64758037
Si       0.63491099       3.26690927       3.34397806
Si       2.67021706       2.74642410       2.93168491
Si       5.64223049       2.39078887       5.99702637
Si       4.83537863      -1.01408170       6.04922961
Si       3.54170501       4.38021242      -0.73463041
Si      -0.27433025       3.29093454      -0.41438941
Si       2.81405728      -0.41038691       6.40564379
Si       5.51877258       0.41013994       2.48823289
Si       1.24997519      -1.82681195       6.17295184
Si       3.23190925      -2.37946419       5.63319648
12
Lattice="5.390804901781184 0.17501809212216235 0.7929957879266502 -1.149369429719737 7.178295986223885 -2.733806996925077 0.8926688638024789 -3.6840050481828706 7.999304847440524" Properties=species:S:1:pos:R:3 unique_starting_index=44 config_type=initial n_minim_iter=15 stress="0.0004068791493218127 -0.001735274825274701 -0.0026510286243126915 -0.001735274825274701 -0.0029193404795531995 -0.0009612315741323829 -0.0026510286243126915 -0.0009612315741323829 -0.0034652038796696427" pbc="T T T"
Si       0.95087956       0.24178555       5.59494659
Si      -0.47439652       2.49433254       1.63357037
Si       0.62410727       3.25303804       3.32648485
Si       2.66400807       2.74030617       2.92059759
Si       5.63335002       2.37429453       5.96251346
Si       4.82922568      -1.02995874       6.03018226
Si       3.53984597       4.36502637      -0.73156441
Si      -0.28072284       3.28129271      -0.41091097
Si       2.80270982      -0.42379659       6.38612404
Si       5.51199498       0.39789871       2.46845636
Si       1.24339873      -1.84104371       6.16342672
Si       3.22605228      -2.38767507       5.60462040
12
Lattice="5.391804295213592 0.17101667340148827 0.7981955259583907 -1.1568839045758532 7.170326534469411 -2.7372724446524064 0.9018892378622556 -3.6796590083215386 8.008617639241395" Properties=species:S:1:pos:R:3 unique_starting_index=44 config_type=initial n_minim_iter=16 stress="0.006718570790977716 -0.0011821679839368454 -9.196442254085623e-05 -0.0011821679839368454 -0.0026861875001237523 -0.001683717295893614 -9.196442254085623e-05 -0.001683717295893614 -0.004388478445022935" pbc="T T T"
Si       0.95793017       0.24295152       5.60591867
Si      -0.47863093       2.49244219       1.63558641
Si       0.62660123       3.24624391       3.32969699
Si       2.66690023       2.73567786       2.92629811
Si       5.63787954       2.37065706       5.97017459
Si       4.83753532      -1.03074131       6.04426693
Si       3.53432090       4.35684112      -0.72627519
Si      -0.28272087       3.27455672      -0.41215167
Si       2.81164926      -0.42475982       6.39480875
Si       5.51131418       0.39626796       2.47275294
Si       1.24733541      -1.84442147       6.17148539
Si       3.22967120      -2.38473039       5.61067806
12
Lattice="5.39003714789673 0.17023093590349642 0.8031351151141667 -1.1594736105986048 7.166957715839077 -2.740823282315688 0.9062155799117826 -3.673644458844159 8.028964510064021" Properties=species:S:1:pos:R:3 unique_starting_index=44 config_type=initial n_minim_iter=17 stress="0.005201597657436648 -0.0005678578753300701 0.0005499497429310523 -0.0005678578753300701 -0.0006587192834108906 -0.0009498226687098515 0.0005499497429310523 -0.0009498226687098515 -0.001078460712421542" pbc="T T T"
Si       0.96097745       0.24764305       5.62482431
Si      -0.48110228       2.49282163       1.64574039
Si       0.62721140       3.24554162       3.34066259
Si       2.66839872       2.73490333       2.93648967
Si       5.63812905       2.37251553       5.99064054
Si       4.83938442      -1.02713521       6.06434140
Si       3.53200135       4.35431365      -0.72400075
Si      -0.28430592       3.27268149      -0.41446311
Si       2.81466590      -0.42169972       6.41260387
Si       5.50873798       0.39798288       2.48038043
Si       1.24957757      -1.83960946       6.18847025
Si       3.23227513      -2.37982651       5.62615018
12
Lattice="5.388001082519048 0.17260174119523308 0.8077640143667465 -1.1591653703341416 7.154981676144968 -2.732618971336175 0.9102118435967189 -3.6564322258550526 8.031815413005976" Properties=species:S:1:pos:R:3 unique_starting_index=44 config_type=initial n_minim_iter=18 stress="-0.001420620247463178 0.000899024255164671 0.0009930830741665224 0.000899024255164671 0.002836739322235222 0.001561370660215084 0.0009930830741665224 0.001561370660215084 0.002085235267535977" pbc="T T T"
Si       0.96421772       0.25643692       5.63729108
Si      -0.48236608       2.49450634       1.64670614
Si       0.63008310       3.24518198       3.34011026
Si       2.67478601       2.73904786       2.94668595
Si       5.64046157       2.38374972       6.00269251
Si       4.84028789      -1.01327254       6.07681307
Si       3.53135918       4.34631291      -0.70972428
Si      -0.28210990       3.26343616      -0.40342486
Si       2.81850484      -0.40781735       6.42294180
Si       5.50222377       0.40334946       2.48494404
Si       1.25386836      -1.82688230       6.19408319
Si       3.23227412      -2.36553695       5.62136961
12
Lattice="5.38914409199005 0.17093292562561693 0.8071938761083022 -1.1612323016226813 7.152380345808038 -2.7328959820700534 0.9111684209984037 -3.656635191523249 8.028933376369467" Properties=species:S:1:pos:R:3 unique_starting_index=44 config_type=initial n_minim_iter=19 stress="-0.0025881060843286974 0.0004535892095378861 0.0005138352402429286 0.0004535892095378861 0.0011131766221335257 0.0003057552969414403 0.0005138352402429286 0.0003057552969414403 0.0013436089058492312" pbc="T T T"
Si       0.96474657       0.25691095       5.63620692
Si      -0.48682212       2.49360444       1.64920649
Si       0.63094190       3.24187870       3.33458078
Si       2.67489396       2.73689837       2.94406927
Si       5.64072277       2.38196911       5.99798735
Si       4.84362280      -1.01721215       6.07584614
Si       3.53169616       4.34421552      -0.70818660
Si      -0.28396717       3.25929280      -0.40290503
Si       2.81971604      -0.41111737       6.41974988
Si       5.50027162       0.40165537       2.48132425
Si       1.25612346      -1.82897201       6.19096912
Si       3.23373611      -2.36503585       5.61721363
12
Lattice="5.391171241155128 0.16982717866196095 0.8030276163233812 -1.1614456836226483 7.145941913262019 -2.7286241712077426 0.9063627604905581 -3.6506843366126702 8.025386442627967" Properties=species:S:1:pos:R:3 unique_starting_index=44 config_type=initial n_minim_iter=20 stress="-0.0003214250690763043 -0.000239566849559578 -0.0003378715088739503 -0.000239566849559578 -0.0013606938639520434 -0.00012225347141247975 -0.0003378715088739503 -0.00012225347141247975 -0.0009560960943967744" pbc="T T T"
Si       0.96072840       0.26015272       5.63830462
Si      -0.49439369       2.49267185       1.65114482
Si       0.63058181       3.24006472       3.33082914
Si       2.67403902       2.73634530       2.94231692
Si       5.63869229       2.38309221       5.99162458
Si       4.84188139      -1.01539752       6.07301626
Si       3.53396352       4.33925573      -0.70564859
Si      -0.28474843       3.25160522      -0.39980135
Si       2.81759019      -0.40795664       6.41668043
Si       5.49610059       0.40067313       2.47528940
Si       1.25478812      -1.82642640       6.18946951
Si       3.23371428      -2.35922370       5.60763803
12
Lattice="5.392421164398456 0.1704027741351082 0.7991108246236618 -1.1593933297541996 7.146462302115801 -2.7255617047122915 0.9008373883942985 -3.6496410581613983 8.021504308873217" Properties=species:S:1:pos:R:3 unique_starting_index=44 config_type=initial n_minim_iter=21 stress="0.00105460186058576 -0.0007198750511869046 -0.0003589399905533248 -0.0007198750511869046 -0.0013305703671757125 -0.0003517379739257022 -0.0003589399905533248 -0.0003517379739257022 -0.0009425631449716222" pbc="T T T"
Si       0.95679774       0.26356624       5.63873425
Si      -0.50120529       2.49297663       1.65386669
Si       0.63059716       3.24147695       3.32728514
Si       2.67341782       2.73832863       2.93877835
Si       5.63706658       2.38529278       5.98505670
Si       4.84085664      -1.01331581       6.07032701
Si       3.53558537       4.33953097      -0.70583710
Si      -0.28416067       3.24737180      -0.39804821
Si       2.81548792      -0.40528614       6.41291074
Si       5.49109844       0.40010513       2.47035206
Si       1.25544768      -1.82524453       6.18588380
Si       3.23183177      -2.35682590       5.59909079
