16
Lattice="6.238328028162376 -0.264991387155371 -0.8349388970746424 0.5006604161161621 6.8623324567884785 -0.9137191879808552 0.4418203146891084 0.391831089521323 10.076123153139354" Properties=species:S:1:pos:R:3 unique_starting_index=30 config_type=initial n_minim_iter=1 energy=-2597.7818752642 free_energy=-2597.7818752642 pbc="T T T"
Si       3.01861905       5.19739689       4.39429566
Si       4.16218971       1.79177527       3.93316941
Si       2.50719360       3.07891202       2.45908432
Si       4.67361516       3.91026014       5.86838075
Si       4.44394284       2.02143691       7.07448344
Si       2.73686592       4.96773525       1.25298163
Si       4.01468513       4.12273680      -0.72631221
Si       3.16612363       2.86643536       9.05377728
Si       1.64712786       3.55822027       4.37393323
Si       5.53368089       3.43095189       3.95353184
Si       6.64407076       4.85175608       2.80849766
Si       0.53673800       2.13741608       5.51896741
Si       2.05365218       1.48312518       4.08814739
Si       5.12715658       5.50604698       4.23931768
Si       4.33249596       5.96732356       0.25421822
Si       2.84831280       1.02184859       8.07324685
16
Lattice="6.222981574262806 -0.2666463747859655 -0.8268284232420392 0.49994475008469125 6.890532447806786 -0.8963360971427534 0.45629930433965116 0.41926028639240054 10.086618416433247" Properties=species:S:1:pos:R:3 unique_starting_index=30 config_type=initial n_minim_iter=2 stress="-0.0012883631104839259 0.001549586662511189 0.0014353411591149778 0.001549586662511189 0.015230806623301703 0.0072493268304482114 0.0014353411591149778 0.0072493268304482114 0.0026994783415926838" pbc="T T T"
Si       3.01480973       5.23139477       4.41706247
Si       4.16441590       1.81175159       3.94639142
Si       2.50845105       3.09787908       2.47248255
Si       4.67077458       3.94526728       5.89097134
Si       4.44509181       2.05189118       7.09494531
Si       2.73413382       4.99125518       1.26850859
Si       4.00638926       4.14270821      -0.71228357
Si       3.17283637       2.90043815       9.07573746
Si       1.64493850       3.58442434       4.38683435
Si       5.53428713       3.45872202       3.97661954
Si       6.63433065       4.88325703       2.83411349
Si       0.54489497       2.15988933       5.52934040
Si       2.05759429       1.50332465       4.09320723
Si       5.12163134       5.53982171       4.27024667
Si       4.32526695       6.00074576       0.28068255
Si       2.85395868       1.04240060       8.08277135
16
Lattice="6.18835178661034 -0.2710871946225202 -0.8081470712590965 0.4878076419923257 6.860804718131398 -0.8998764921592532 0.4827665113471946 0.40911064164081423 10.08255258531453" Properties=species:S:1:pos:R:3 unique_starting_index=30 config_type=initial n_minim_iter=3 stress="-0.02763431537000401 -0.0021507150172594665 0.008274126461347188 -0.0021507150172594665 -0.02641402603834366 0.019327978437868987 0.008274126461347188 0.019327978437868987 -0.012127835863009095" pbc="T T T"
Si       2.98825128       5.19817898       4.42320005
Si       4.17067466       1.80064918       3.95132897
Si       2.50727312       3.07471655       2.47486756
Si       4.65165282       3.92411161       5.89966147
Si       4.44013402       2.04148502       7.11047033
Si       2.71879192       4.95734315       1.26405869
Si       3.98203086       4.13226468      -0.70884365
Si       3.17689508       2.86656348       9.08337267
Si       1.62660702       3.55958683       4.37759641
Si       5.53231892       3.43924133       3.99693261
Si       6.60164633       4.85838833       2.84996943
Si       0.55727961       2.14043983       5.52455959
Si       2.06302779       1.50207894       4.07768420
Si       5.09589815       5.49674923       4.29684482
Si       4.29928591       5.98549725       0.30200782
Si       2.85964003       1.01333092       8.07252120
16
Lattice="6.182157436761284 -0.27260572958945745 -0.7782236038557553 0.46681447580576446 6.880979971863546 -1.0141901526292374 0.531417575692512 0.2452837462050236 10.140920054881523" Properties=species:S:1:pos:R:3 unique_starting_index=30 config_type=initial n_minim_iter=4 stress="0.015812405104227427 0.010123279410398077 0.0004549966176363959 0.010123279410398077 -0.01278945467105933 0.011565043832237153 0.0004549966176363959 0.011565043832237153 0.001549112497828904" pbc="T T T"
Si       2.92865875       5.11043073       4.39498293
Si       4.25173074       1.74322726       3.95352336
Si       2.53994313       3.01278979       2.44846970
Si       4.64044636       3.84086820       5.90003660
Si       4.46874328       1.95000243       7.17113594
Si       2.71164621       4.90365556       1.17737036
Si       3.97709854       4.18084537      -0.77992423
Si       3.20329095       2.67281262       9.12843052
Si       1.57133012       3.47459145       4.32122670
Si       5.60905937       3.37906654       4.02727959
Si       6.59627058       4.82499413       2.82551299
Si       0.58411891       2.02866386       5.52299331
Si       2.09950932       1.47081526       4.02060641
Si       5.08088017       5.38284272       4.32789989
Si       4.29235437       6.03150009       0.27615521
Si       2.88803512       0.82215790       8.07235108
16
Lattice="6.118499900335346 -0.30385519968847136 -0.7582698774605059 0.41458321052056507 6.923592960566962 -1.1011194802049025 0.553340793669044 0.1167317536165507 10.153068127288929" Properties=species:S:1:pos:R:3 unique_starting_index=30 config_type=initial n_minim_iter=5 stress="0.001616285077392449 -0.007889574134178241 0.00860532518000396 -0.007889574134178241 0.0011586620158160023 0.0022124677499979948 0.00860532518000396 0.0022124677499979948 0.0032743394660363495" pbc="T T T"
Si       2.84590745       5.05501126       4.35135489
Si       4.24051646       1.68145826       3.94232388
Si       2.51606698       2.97147718       2.41868055
Si       4.57035692       3.76499234       5.87499822
Si       4.43037387       1.85701362       7.18286201
Si       2.65605003       4.87945590       1.11081676
Si       3.91171005       4.20706945      -0.83220274
Si       3.17471386       2.52940006       9.12588151
Si       1.51028166       3.42242856       4.26990161
Si       5.57614224       3.31404096       4.02377716
Si       6.50315892       4.78400820       2.78805203
Si       0.58326498       1.95246131       5.50562674
Si       2.09259656       1.43127691       3.97880883
Si       4.99382734       5.30519260       4.31486994
Si       4.21290390       6.05509276       0.23637163
Si       2.87352000       0.68137676       8.05730714
16
Lattice="6.090226583613169 -0.27850127344007797 -0.7837153095890179 0.4405104083652109 6.932174102881111 -1.1294009316386537 0.5070631148719941 0.07764881297951273 10.129844725942228" Properties=species:S:1:pos:R:3 unique_starting_index=30 config_type=initial n_minim_iter=6 stress="-0.008698324779776938 0.006883682133301256 0.00263688458007094 0.006883682133301256 -0.009467775552546348 0.005401571800664836 0.00263688458007094 0.005401571800664836 0.0011046007905124405" pbc="T T T"
Si       2.82221806       5.05077750       4.31041451
Si       4.21558205       1.68054415       3.90631397
Si       2.50816931       2.97045938       2.38853195
Si       4.52963080       3.76086226       5.82819653
Si       4.38264687       1.84967592       7.14520505
Si       2.65515323       4.88164572       1.07152344
Si       3.91101071       4.23412232      -0.86892613
Si       3.12678940       2.49719933       9.08565462
Si       1.48267544       3.41289489       4.23135177
Si       5.55512467       3.31842676       3.98537671
Si       6.47578339       4.80164426       2.73356408
Si       0.56201672       1.92967738       5.48316441
Si       2.07677841       1.42510662       3.94423004
Si       4.96102170       5.30621502       4.27249845
Si       4.21092260       6.07829887       0.19913559
Si       2.82687750       0.65302277       8.01759290
16
Lattice="6.185696986830155 -0.3543737391086602 -0.8679076192870779 0.3773095714091101 6.931061894717017 -1.127050009809839 0.339267642136569 0.056474876432533225 9.883992266431063" Properties=species:S:1:pos:R:3 unique_starting_index=30 config_type=initial n_minim_iter=7 stress="0.008602551572799074 -0.001737633020989413 -0.0019113256227488691 -0.001737633020989413 0.02285606491390654 0.002446602608270508 -0.0019113256227488691 0.002446602608270508 -0.010463456782205985" pbc="T T T"
Si       2.72303504       5.03384893       4.14839424
Si       4.17923916       1.59931411       3.74064040
Si       2.47393044       2.94432889       2.27481057
Si       4.42834376       3.68883414       5.61422406
Si       4.28423872       1.78836842       6.91099325
Si       2.61803548       4.84479461       0.97804138
Si       3.92137895       4.20361087      -0.92912481
Si       2.98089525       2.42955216       8.81815945
Si       1.36847797       3.38414488       4.07172405
Si       5.53379623       3.24901815       3.81731059
Si       6.45051222       4.72376043       2.55357926
Si       0.45176198       1.90940260       5.33545537
Si       2.04646423       1.37087893       3.79717598
Si       4.85580997       5.26228410       4.09185866
Si       4.17288566       6.02401008       0.12440414
Si       2.72938854       0.60915295       7.76463049
16
Lattice="6.161583480393959 -0.35139484997106024 -0.8943971554351423 0.37602235486434227 6.889846277595281 -1.1625996081180834 0.31842318109377077 0.02790928412367652 10.068357248153585" Properties=species:S:1:pos:R:3 unique_starting_index=30 config_type=initial n_minim_iter=8 stress="0.005632474601694358 -0.0038826260605587144 -0.0067198861867814085 -0.0038826260605587144 0.015387001491264084 0.00011117234431010339 -0.0067198861867814085 0.00011117234431010339 0.005671376312276005" pbc="T T T"
Si       2.70345954       4.99579992       4.20926907
Si       4.15256947       1.57056079       3.80209142
Si       2.46180762       2.92527471       2.30256881
Si       4.39422139       3.64108600       5.70879167
Si       4.25024754       1.75694486       7.03137478
Si       2.60578148       4.80941586       0.97998570
Si       3.90289709       4.17563157      -0.96491425
Si       2.95313193       2.39072914       8.97627473
Si       1.35784563       3.34478797       4.12923868
Si       5.49818339       3.22157274       3.88212181
Si       6.41376621       4.68701684       2.58287809
Si       0.44226281       1.87934387       5.42848240
Si       2.03549672       1.34367620       3.86101497
Si       4.82053230       5.22268452       4.15034551
Si       4.14980883       5.98481644       0.11249167
Si       2.70622019       0.58154427       7.89886882
16
Lattice="6.138312635648485 -0.31505464148284895 -0.8478918953990771 0.40124094470676464 6.879354888569296 -1.204678243442972 0.3972828272112936 -0.03293910845427779 10.110906735088246" Properties=species:S:1:pos:R:3 unique_starting_index=30 config_type=initial n_minim_iter=9 stress="0.004175033416685634 0.007275062905492437 0.0005804724614627068 0.007275062905492437 0.005918188342434484 -0.005999042315442157 0.0005804724614627068 -0.005999042315442157 0.002625160307934853" pbc="T T T"
Si       2.74973002       4.97388262       4.21657236
Si       4.18710639       1.55747852       3.84176423
Si       2.49294008       2.92178808       2.31121931
Si       4.44389633       3.60957306       5.74711729
Si       4.30452084       1.73271962       7.08428529
Si       2.63231557       4.79864151       0.97405131
Si       3.90455548       4.18672930      -0.96684907
Si       3.03228093       2.34463184       9.02518567
Si       1.40359010       3.30956819       4.12505708
Si       5.53324631       3.22179294       3.93327952
Si       6.43788940       4.69099564       2.61986152
Si       0.49894701       1.84036550       5.43847508
Si       2.06943140       1.32039527       3.88106458
Si       4.86740501       5.21096587       4.17727202
Si       4.16979173       5.99185225       0.11651398
Si       2.76704468       0.53950888       7.94182262
16
Lattice="6.135301990337812 -0.3197882193440983 -0.8035145387886461 0.3781780345288178 6.8147430172622645 -1.2672136835545706 0.4800538662706325 -0.12072110064442326 10.22546311988316" Properties=species:S:1:pos:R:3 unique_starting_index=30 config_type=initial n_minim_iter=10 stress="-0.0005623727946993006 0.002603648835382492 0.00046745097149932175 0.002603648835382492 -0.020757370819331437 -0.0023262801578884085 0.00046745097149932175 -0.0023262801578884085 0.003543229867497991" pbc="T T T"
Si       2.74014027       4.88288586       4.24482314
Si       4.25339362       1.49134783       3.90991176
Si       2.52177765       2.88462193       2.32590031
Si       4.47175624       3.48961177       5.82883459
Si       4.36345496       1.65864768       7.19057346
Si       2.63007894       4.71558602       0.96416144
Si       3.88131129       4.13713715      -0.98995990
Si       3.11222260       2.23709654       9.14469480
Si       1.42282274       3.23661842       4.11700244
Si       5.57071115       3.13761528       4.03773246
Si       6.44007690       4.60272034       2.68371225
Si       0.55345699       1.77151336       5.47102264
Si       2.10384813       1.24474521       3.91469308
Si       4.88968576       5.12948848       4.24004181
Si       4.15896039       5.93520338       0.12704900
Si       2.83457351       0.43903032       8.02768590
16
Lattice="6.1336684789677935 -0.34258938334983596 -0.8391930402832491 0.35099718342732716 6.802112882696058 -1.3169530329191317 0.4190716127855486 -0.1906200521690474 10.23414904580599" Properties=species:S:1:pos:R:3 unique_starting_index=30 config_type=initial n_minim_iter=11 stress="0.009116293747376398 0.0018219832353518254 -0.003104529474351846 0.0018219832353518254 0.003403854293123803 -0.0024868969368863894 -0.003104529474351846 -0.0024868969368863894 0.013657265779888197" pbc="T T T"
Si       2.66596899       4.84099273       4.19658254
Si       4.23776828       1.42791071       3.88142043
Si       2.50928744       2.86370886       2.28059655
Si       4.39444983       3.40519459       5.79740642
Si       4.30914651       1.60486373       7.16735819
Si       2.59459076       4.66403972       0.91064478
Si       3.85544055       4.12263187      -1.04992275
Si       3.04829673       2.14627158       9.12792572
Si       1.35619258       3.17816686       4.06526858
Si       5.54754470       3.09073659       4.01273439
Si       6.37561151       4.54193020       2.63488630
Si       0.52812577       1.72697325       5.44311667
Si       2.08914088       1.19386403       3.87542882
Si       4.81459639       5.07503942       4.20257415
Si       4.12118104       5.91373674       0.07865405
Si       2.78255624       0.35516671       7.99934892
16
Lattice="6.114047712127068 -0.36315915189341397 -0.8897266753494636 0.329055700507684 6.812983223413494 -1.3588151800381942 0.3204594251150908 -0.2571099516895613 10.14834149113863" Properties=species:S:1:pos:R:3 unique_starting_index=30 config_type=initial n_minim_iter=12 stress="0.015480945642172674 -0.005217412231907269 -0.002765802762898898 -0.005217412231907269 0.02313887873011398 -0.006181575872247583 -0.002765802762898898 -0.006181575872247583 0.00741684131373674" pbc="T T T"
Si       2.57324026       4.81999896       4.09513606
Si       4.19032257       1.37271516       3.80466357
Si       2.47873796       2.85907190       2.20772643
Si       4.28482488       3.33364222       5.69207320
Si       4.21573119       1.56214898       7.06139395
Si       2.54783165       4.63056514       0.83840568
Si       3.81984399       4.12095998      -1.11397239
Si       2.94371885       2.07175414       9.01377202
Si       1.28675234       3.13075180       3.96428924
Si       5.47681050       3.06196232       3.93551039
Si       6.27983550       4.49809545       2.53968945
Si       0.48372734       1.69461867       5.36011018
Si       2.05551056       1.15099518       3.79343839
Si       4.70805228       5.04171894       4.10636125
Si       4.06985362       5.91301823       0.00990091
Si       2.69370922       0.27969589       7.88989873
16
Lattice="6.085820921467386 -0.374753656485111 -0.9367124226001831 0.3154003499782395 6.8174690263560525 -1.4014645907896899 0.23933072468965647 -0.31450873021827036 10.147803929442171" Properties=species:S:1:pos:R:3 unique_starting_index=30 config_type=initial n_minim_iter=13 stress="0.01426086492632733 -0.004631188679273109 -0.003516613698584732 -0.004631188679273109 0.016675201713560336 -0.0017749737364307738 -0.003516613698584732 -0.0017749737364307738 0.0071344663793487416" pbc="T T T"
Si       2.48748037       4.79936214       4.03613809
Si       4.15307162       1.32884450       3.77348883
Si       2.45586764       2.86095976       2.16372309
Si       4.18468436       3.26724688       5.64590383
Si       4.13343374       1.53318142       7.02908345
Si       2.50711826       4.59502522       0.78054347
Si       3.78603647       4.12333185      -1.17107137
Si       2.85451552       2.00487479       8.98069829
Si       1.22158512       3.08398682       3.90961466
Si       5.41896687       3.04421982       3.90001226
Si       6.18700325       4.45483754       2.49108901
Si       0.45354874       1.67336910       5.31853791
Si       2.02474721       1.12010216       3.74151878
Si       4.61580479       5.00810448       4.06810814
Si       4.02294841       5.90811238      -0.04223853
Si       2.61760359       0.22009426       7.85186545
16
Lattice="6.021861384951254 -0.364437126611939 -0.9636050601333589 0.31781871947265916 6.857085470585747 -1.4718376481112647 0.18791195742786654 -0.4116440364707619 10.147998788815807" Properties=species:S:1:pos:R:3 unique_starting_index=30 config_type=initial n_minim_iter=14 stress="-0.0012937971639504077 -0.0014741390887550118 0.0017297552700313154 -0.0014741390887550118 0.007945754023514969 -0.0016488611204672644 0.0017297552700313154 -0.0016488611204672644 -0.0003764762329027045" pbc="T T T"
Si       2.41370471       4.78769838       3.95672246
Si       4.11388735       1.29330592       3.75583362
Si       2.43547828       2.87976411       2.12137033
Si       4.09211378       3.20124019       5.59118575
Si       4.05718291       1.49951466       7.00871025
Si       2.47040915       4.58148964       0.70384583
Si       3.74322498       4.15732731      -1.23238819
Si       2.78436708       1.92367699       8.94494427
Si       1.17649177       3.04491599       3.83976106
Si       5.35110029       3.03608832       3.87279502
Si       6.08326457       4.43669016       2.44578839
Si       0.44432749       1.64431415       5.26676769
Si       1.99748950       1.09008704       3.68474571
Si       4.53010257       4.99091727       4.02781037
Si       3.97183584       5.93802621      -0.10433339
Si       2.55575623       0.14297809       7.81688947
16
Lattice="5.947938991788891 -0.36309342081219953 -1.0503405984827539 0.3144399791335016 6.9031504246102 -1.5733389344823825 0.03278672175602858 -0.5508942184569645 10.118379697762604" Properties=species:S:1:pos:R:3 unique_starting_index=30 config_type=initial n_minim_iter=15 stress="0.0008206438726952667 0.0027969948122913177 -0.006158618000959878 0.0027969948122913177 0.005406730594009228 0.00317765551842306 -0.006158618000959878 0.00317765551842306 0.007510012878617976" pbc="T T T"
Si       2.24630819       4.76166045       3.79997101
Si       4.04885750       1.22750234       3.69472916
Si       2.39476949       2.90936443       2.03000983
Si       3.90039621       3.07979836       5.46469033
Si       3.88918056       1.45054995       6.93939982
Si       2.40598514       4.53861283       0.55530034
Si       3.68457080       4.18596874      -1.35337530
Si       2.61059489       1.80319405       8.84807547
Si       1.06205057       2.97640555       3.70370411
Si       5.23311512       3.01275724       3.79099606
Si       5.90576843       4.39901652       2.32569216
Si       0.38939726       1.59014627       5.16900800
Si       1.92831329       1.04798987       3.55590982
Si       4.36685241       4.94117292       3.93879034
Si       3.88178984       5.96861676      -0.21110473
Si       2.41337586       0.02054602       7.70580489
16
Lattice="5.945740734386648 -0.35646689913787916 -1.0199900426691442 0.31116227555138953 6.908446805574173 -1.6194402895401672 0.0745270721057227 -0.6258746016325977 10.08582398927836" Properties=species:S:1:pos:R:3 unique_starting_index=30 config_type=initial n_minim_iter=16 stress="-0.0035202028710087383 0.00767751171689654 0.0012060775794910808 0.00767751171689654 -0.006972425966078501 0.0021201391921217847 0.0012060775794910808 0.0021201391921217847 -0.002672183660867235" pbc="T T T"
Si       2.24618908       4.73008758       3.73107504
Si       4.08524100       1.19601772       3.71531862
Si       2.41916181       2.91823406       2.01440806
Si       3.91226828       3.00787124       5.43198559
Si       3.92266470       1.41821370       6.94681401
Si       2.40876539       4.50789160       0.49957965
Si       3.68061020       4.18231723      -1.36199737
Si       2.65081988       1.74378808       8.80839102
Si       1.06273079       2.94723942       3.65390411
Si       5.26869930       2.97886589       3.79248955
Si       5.91236580       4.37312117       2.32623032
Si       0.41906429       1.55298413       5.12016334
Si       1.94861911       1.02429416       3.51292027
Si       4.38281098       4.90181114       3.93347339
Si       3.87683755       5.96388532      -0.22224441
Si       2.45459253      -0.03778001       7.66863806
16
Lattice="5.934021770920076 -0.3697467144495436 -0.9827881259753829 0.27914269058248287 6.902448005279194 -1.6998883442584665 0.10945203724378075 -0.7663905646235188 9.954843069549261" Properties=species:S:1:pos:R:3 unique_starting_index=30 config_type=initial n_minim_iter=17 stress="-0.02125491495194412 -0.004112597965511147 0.0027484196510271404 -0.004112597965511147 -0.006466829109730035 -0.015154063675385862 0.0027484196510271404 -0.015154063675385862 -0.0027164959649718864" pbc="T T T"
Si       2.18646396       4.65175287       3.52504335
Si       4.13615254       1.11455786       3.74712325
Si       2.45795192       2.95770526       1.95669205
Si       3.86466458       2.80860547       5.31547454
Si       3.93830106       1.38137632       6.95084082
Si       2.38431544       4.38493440       0.32132578
Si       3.65790217       4.15420059      -1.38175772
Si       2.66471433       1.61211014       8.65392432
Si       1.01065577       2.87822876       3.49324391
Si       5.31196072       2.88808196       3.77892269
Si       5.87884029       4.31918697       2.29223358
Si       0.44377621       1.44712376       4.97993302
Si       1.98172775       0.98737486       3.34660139
Si       4.34088875       4.77893586       3.92556521
Si       3.82108860       5.93615398      -0.23214453
Si       2.50152789      -0.16984326       7.50431113
16
Lattice="5.937198560652796 -0.37101418240131595 -0.9754440574902121 0.2768350587271835 6.899004628299457 -1.6994878231561574 0.11840295438117593 -0.7697015868823743 9.933056414478951" Properties=species:S:1:pos:R:3 unique_starting_index=30 config_type=initial n_minim_iter=18 stress="-0.03044182956090889 -0.00408913375149414 0.011711160083894662 -0.00408913375149414 -0.009834239468431746 -0.01594087380892383 0.011711160083894662 -0.01594087380892383 -0.01643989183058747" pbc="T T T"
Si       2.18575979       4.64700487       3.50586560
Si       4.14667678       1.11128399       3.75225893
Si       2.46591923       2.96550223       1.95301049
Si       3.86651735       2.79278662       5.30511404
Si       3.94754296       1.38788577       6.95054980
Si       2.38489362       4.37040309       0.30757473
Si       3.65893728       4.14961127      -1.37519784
Si       2.67349930       1.60867759       8.63332238
Si       1.00893317       2.87489116       3.47855500
Si       5.32350341       2.88339770       3.77956953
Si       5.88314302       4.31759249       2.29463278
Si       0.44929355       1.44069637       4.96349175
Si       1.98913681       0.98838102       3.32808714
Si       4.34329977       4.76990784       3.93003739
Si       3.81975299       5.93273617      -0.22508888
Si       2.51268358      -0.17444731       7.48321341
16
Lattice="6.0256378232448915 -0.3987259462119853 -0.937182792785343 0.26265198533959055 6.8288931354342095 -1.5666042937877886 0.18606602299154285 -0.5906705192536658 9.88625248536237" Properties=species:S:1:pos:R:3 unique_starting_index=30 config_type=initial n_minim_iter=19 stress="-0.028873125717675335 -0.012550548054608451 0.011267627051730332 -0.012550548054608451 -0.037337225616547676 0.0207584271165932 0.011267627051730332 0.0207584271165932 -0.03847696448950852" pbc="T T T"
Si       2.26680227       4.66540372       3.57421249
Si       4.20755357       1.17409295       3.80825291
Si       2.50255539       2.98627576       2.02626038
Si       3.97180045       2.85322091       5.35620502
Si       4.06454353       1.51243469       6.99181759
Si       2.40981230       4.32706198       0.39064781
Si       3.72424969       4.08866853      -1.26603898
Si       2.75010614       1.75082814       8.64850437
Si       1.04826716       2.92882575       3.54666288
Si       5.42608868       2.91067092       3.83580252
Si       6.01065852       4.34843105       2.38966801
Si       0.46369731       1.49106562       4.99279739
Si       2.03926646       1.05206838       3.34734039
Si       4.43508937       4.78742829       4.03512501
Si       3.86914547       5.87948627      -0.09707866
Si       2.60521037      -0.03998960       7.47954406
16
Lattice="6.113946999311687 -0.41424308459225556 -0.9048654232867849 0.25188447750977166 6.784430166920235 -1.5229952200391474 0.26208637395787215 -0.5199586968828214 10.002346461592557" Properties=species:S:1:pos:R:3 unique_starting_index=30 config_type=initial n_minim_iter=20 stress="-0.009625419605982706 -0.002807307156543158 0.010659446754291056 -0.002807307156543158 -0.007765562340271214 0.010044538384767852 0.010659446754291056 0.010044538384767852 -0.004598261565186454" pbc="T T T"
Si       2.34910900       4.65797814       3.66148812
Si       4.27880885       1.19225024       3.91299770
Si       2.55025877       2.97609072       2.10931372
Si       4.07765908       2.87413766       5.46517210
Si       4.18262805       1.55964256       7.15585289
Si       2.44528980       4.29058583       0.41863293
Si       3.79078575       4.05932593      -1.21255887
Si       2.83713210       1.79090245       8.78704469
Si       1.08544362       2.94229924       3.63353998
Si       5.54247423       2.90792915       3.94094584
Si       6.14507440       4.34891354       2.49916961
Si       0.48284345       1.50131484       5.07531621
Si       2.10161966       1.08107209       3.40213482
Si       4.52629819       4.76915629       4.17235100
Si       3.91702380       5.84008892      -0.01614668
Si       2.71089405       0.01013946       7.59063250
16
Lattice="6.1243697559498935 -0.41383277778940714 -0.9394826326216894 0.252811972730927 6.782675792987031 -1.5630142183999038 0.20418091518340242 -0.5749529490935961 9.999210022040407" Properties=species:S:1:pos:R:3 unique_starting_index=30 config_type=initial n_minim_iter=21 stress="0.008667054856691066 0.0019078135019159647 -0.0031249596642542845 0.0019078135019159647 -0.00401356498161514 0.0030299677586851843 -0.0031249596642542845 0.0030299677586851843 0.008634943548133706" pbc="T T T"
Si       2.32298425       4.63095354       3.60068437
Si       4.25837839       1.16293652       3.89602880
Si       2.54391986       2.97450143       2.07195178
Si       4.03744279       2.81938864       5.42476139
Si       4.14829072       1.53978935       7.14118135
Si       2.43307192       4.25410071       0.35553182
Si       3.80140651       4.05304449      -1.26079823
Si       2.77995613       1.74084557       8.75751140
Si       1.05374143       2.90958457       3.60035848
Si       5.52762121       2.88430549       3.89635469
Si       6.12850714       4.32315369       2.45161780
Si       0.45285550       1.47073638       5.04509537
Si       2.08962641       1.06085239       3.36230979
Si       4.49173624       4.73303767       4.13440338
Si       3.90334808       5.82976263      -0.06444129
Si       2.67801457      -0.03587257       7.56115446
