20
Lattice="7.6936031912135885 0.503121672442391 0.523436865228362 0.20995396095190078 7.707177227455861 0.5234368652282203 0.20995396095245286 0.21810239888833852 7.721852000064017" Properties=species:S:1:pos:R:3 unique_starting_index=58 config_type=initial n_minim_iter=18 energy=-3276.2820063004788 free_energy=-3276.2820063004788 pbc="T T T"
Si       5.04444715       6.91186362       5.83179719
Si       6.71487458       5.61739134       5.53041935
Si       5.35776696       5.25215812       7.13717959
Si       2.75574415       1.50460471       3.23830638
Si       3.06906396       2.87462919       1.63154614
Si       1.39863653       3.12455693       2.93692854
Si       4.55363727       7.23621389       0.16713082
Si       7.05766911      -0.02392406       4.82856821
Si      -0.29250756       4.54579831       7.23716061
Si       8.40601867       1.37675575       3.94015752
Si       3.55987383       8.54769291       1.53156512
Si       1.05584200       3.60266710       8.60159491
Si       5.62429304       1.05029489       5.99792001
Si       0.83548459       5.76928571       5.89305896
Si       5.73330916       5.84672714       1.28677262
Si       2.38020195       7.37395447       2.87566677
Si       2.48921807       2.47673094       7.48195311
Si       7.27802652       2.76821075       2.77080572
Si       1.44165871       1.49761034       1.55808128
Si       6.67185240       6.93079096       7.21064445
