24
Lattice="9.147777867686019 0.9431787849517526 -1.5691487187574902 -3.391724002018582 6.177761448402373 1.2555846422145012 -1.9846163157120882 0.73675013907456 8.772062431365322" Properties=species:S:1:pos:R:3 unique_starting_index=90 config_type=initial n_minim_iter=1 energy=-3912.412105252891 free_energy=-3912.412105252891 pbc="T T T"
Si       5.03331437       1.25601712       5.58278879
Si       0.71538580       3.05868426       0.81992287
Si       5.39828728       5.74696964       1.27409579
Si       0.57591892       0.67737566       1.06569176
Si       2.67174409       3.81752694       7.09058358
Si      -2.62740221       4.23921758       7.73289977
Si       0.19231945       2.14585844       2.65982539
Si       1.32455865       5.35784340       6.48814044
Si      -2.58994065       6.55315773       7.50842783
Si       5.31808294       2.63493586       3.98307272
Si       1.94061747       3.26716504       3.08060217
Si       3.29115373       6.92040471       1.84955958
Si       4.39154407       7.12069142       0.01567494
Si       4.88721768       3.32159000       6.15672715
Si       0.46173086       4.56587733       2.29362611
Si      -2.54604508       6.92981871      10.00361535
Si      -1.87377422       1.66191315       3.38930556
Si       2.81400847       5.96895556       7.87838938
Si       1.30470229       2.18488864       7.24382843
Si      -1.96392923       3.39042044       5.63137917
Si       1.55407431       6.69525190       4.84321918
Si       4.54444352       1.69284313       0.16699632
Si       5.82706660       4.02621380       2.46064131
Si       2.18225973       5.48455935       3.18249739
24
Lattice="9.147175852102768 0.9433000419334522 -1.56898025272578 -3.391368528112349 6.17734976583481 1.2554960688992016 -1.9843887654055827 0.7366824001905395 8.771588154576593" Properties=species:S:1:pos:R:3 unique_starting_index=90 config_type=initial n_minim_iter=2 stress="-0.00019826452744254474 -2.8157671328836656e-05 -0.0002807519215433541 -2.8157671328836656e-05 -0.00046194135101056464 0.00017284191114941044 -0.0002807519215433541 0.00017284191114941044 -0.0004553256373591804" pbc="T T T"
Si       5.03305481       1.25602352       5.58254859
Si       0.71540757       3.05850190       0.81989989
Si       5.39805324       5.74675922       1.27408165
Si       0.57590737       0.67734949       1.06563866
Si       2.67170439       3.81739698       7.09024192
Si      -2.62707360       4.23894341       7.73247569
Si       0.19237734       2.14577084       2.65967035
Si       1.32463911       5.35757216       6.48782390
Si      -2.58957160       6.55274607       7.50801752
Si       5.31782265       2.63490252       3.98291627
Si       1.94055759       3.26702306       3.08045320
Si       3.29108884       6.92007993       1.84949234
Si       4.39139175       7.12038349       0.01573664
Si       4.88701672       3.32150981       6.15646010
Si       0.46181756       4.56561751       2.29355100
Si      -2.54565871       6.92940101      10.00307484
Si      -1.87358752       1.66178124       3.38910797
Si       2.81401718       5.96868610       7.87802402
Si       1.30472583       2.18479947       7.24346923
Si      -1.96368671       3.39019248       5.63105867
Si       1.55414915       6.69489752       4.84297759
Si       4.54417636       1.69283570       0.16703616
Si       5.82678302       4.02609806       2.46058695
Si       2.18225327       5.48431540       3.18237176
24
Lattice="9.14577098172277 0.9442388095303949 -1.5674914236989683 -3.3901809455732432 6.177222469542306 1.2544189959660241 -1.9824796856271951 0.7357933810149406 8.771642621504743" Properties=species:S:1:pos:R:3 unique_starting_index=90 config_type=initial n_minim_iter=3 stress="-0.0003034171372043421 0.0002843655282679619 0.00042551844349495745 0.0002843655282679619 -5.093849634972178e-05 -5.713837129202333e-05 0.00042551844349495745 -5.713837129202333e-05 0.00014168357766928624" pbc="T T T"
Si       5.03347997       1.25579858       5.58367528
Si       0.71575582       3.05842057       0.81981567
Si       5.39808751       5.74737270       1.27461381
Si       0.57611143       0.67732945       1.06570884
Si       2.67294948       3.81736421       7.09076387
Si      -2.62497092       4.23827799       7.73203270
Si       0.19299335       2.14581555       2.65953091
Si       1.32609848       5.35730925       6.48795810
Si      -2.58732159       6.55212715       7.50735023
Si       5.31809624       2.63517224       3.98385090
Si       1.94104184       3.26703362       3.08064098
Si       3.29158271       6.92048049       1.84950815
Si       4.39139764       7.12117416       0.01598634
Si       4.88777400       3.32156920       6.15742263
Si       0.46254631       4.56559985       2.29363104
Si      -2.54301980       6.92867662      10.00253128
Si      -1.87258287       1.66133267       3.38875570
Si       2.81563938       5.96849748       7.87854069
Si       1.30603760       2.18438693       7.24391067
Si      -1.96215956       3.38963470       5.63061911
Si       1.55540539       6.69478339       4.84282607
Si       4.54375918       1.69327527       0.16776987
Si       5.82678790       4.02652184       2.46152900
Si       2.18302842       5.48461116       3.18256610
24
Lattice="9.146049066615525 0.9436303021279503 -1.568104547142419 -3.3908669580040787 6.177791278975744 1.2542489858314736 -1.9832038086409833 0.7355091614780073 8.771315297868938" Properties=species:S:1:pos:R:3 unique_starting_index=90 config_type=initial n_minim_iter=4 stress="-0.0005743588791206255 -0.0003567712931953789 -4.81839008364795e-05 -0.0003567712931953789 0.0004672260240609218 -1.9175418224295587e-05 -4.81839008364795e-05 -1.9175418224295587e-05 -0.00012786981315060291" pbc="T T T"
Si       5.03309744       1.25481016       5.58301268
Si       0.71555775       3.05819528       0.81948912
Si       5.39768382       5.74729722       1.27376695
Si       0.57604774       0.67724797       1.06551595
Si       2.67220478       3.81726645       7.09000124
Si      -2.62591736       4.23837677       7.73156648
Si       0.19253501       2.14600414       2.65911028
Si       1.32527815       5.35710383       6.48726085
Si      -2.58843786       6.55225532       7.50673288
Si       5.31779615       2.63472442       3.98314721
Si       1.94057352       3.26680610       3.08014139
Si       3.29097173       6.92048952       1.84869044
Si       4.39096818       7.12137260       0.01540176
Si       4.88722044       3.32107733       6.15664797
Si       0.46193445       4.56567846       2.29364974
Si      -2.54449362       6.92883320      10.00177499
Si      -1.87294704       1.66121443       3.38851165
Si       2.81476852       5.96816009       7.87775929
Si       1.30542745       2.18401723       7.24342224
Si      -1.96295315       3.38957787       5.63009884
Si       1.55459284       6.69459707       4.84195199
Si       4.54369273       1.69298709       0.16736378
Si       5.82637492       4.02617826       2.46098536
Si       2.18246520       5.48481477       3.18208759
24
Lattice="9.147880139620593 0.944206822811596 -1.568344757469103 -3.3910926836726136 6.176715767866377 1.2541669055733224 -1.9837284272947873 0.7350392444274465 8.77136249221432" Properties=species:S:1:pos:R:3 unique_starting_index=90 config_type=initial n_minim_iter=5 stress="0.0001241579382225169 0.0003250012287423853 -7.80641596934593e-05 0.0003250012287423853 0.00018761988668375271 0.00021881882783797424 -7.80641596934593e-05 0.00021881882783797424 -0.0001366776789307894" pbc="T T T"
Si       5.03400186       1.25465547       5.58288462
Si       0.71597440       3.05768319       0.81932977
Si       5.39907987       5.74699922       1.27340979
Si       0.57622168       0.67716354       1.06543757
Si       2.67280832       3.81698444       7.08984624
Si      -2.62627840       4.23748928       7.73150288
Si       0.19249885       2.14577671       2.65897942
Si       1.32578384       5.35629329       6.48709809
Si      -2.58861701       6.55099054       7.50658523
Si       5.31892885       2.63467065       3.98300606
Si       1.94114562       3.26641085       3.08001151
Si       3.29203470       6.91976317       1.84835946
Si       4.39236195       7.12084376       0.01520384
Si       4.88825483       3.32086594       6.15649435
Si       0.46222542       4.56500047       2.29379187
Si      -2.54481512       6.92756939      10.00162427
Si      -1.87323176       1.66065145       3.38843554
Si       2.81561238       5.96738041       7.87765644
Si       1.30569355       2.18364997       7.24339913
Si      -1.96323142       3.38877631       5.62995455
Si       1.55527289       6.69358884       4.84165752
Si       4.54464732       1.69309036       0.16723373
Si       5.82763176       4.02603889       2.46084674
Si       2.18324447       5.48435203       3.18198206
24
Lattice="9.148190069507102 0.9437424465605807 -1.5683126098598714 -3.391521427451139 6.176001989437792 1.2537108396702645 -1.9837027702305348 0.7344165660146513 8.771568099492745" Properties=species:S:1:pos:R:3 unique_starting_index=90 config_type=initial n_minim_iter=6 stress="0.00015662357907695324 6.615627324021753e-06 -3.530574606172975e-06 6.615627324021753e-06 -0.0002828197072484482 -0.00031250675104928146 -3.530574606172975e-06 -0.00031250675104928146 -4.700887496766744e-05" pbc="T T T"
Si       5.03425203       1.25378859       5.58306327
Si       0.71592170       3.05717764       0.81911304
Si       5.39905048       5.74593199       1.27310069
Si       0.57625399       0.67696437       1.06540104
Si       2.67283905       3.81593830       7.08986034
Si      -2.62646477       4.23655670       7.73139371
Si       0.19235286       2.14536596       2.65892298
Si       1.32568266       5.35503950       6.48694144
Si      -2.58891885       6.54971939       7.50628896
Si       5.31909834       2.63375978       3.98309760
Si       1.94113234       3.26562458       3.07991202
Si       3.29184434       6.91856461       1.84793948
Si       4.39221166       7.11977405       0.01479390
Si       4.88840792       3.31976349       6.15655975
Si       0.46200935       4.56416712       2.29366155
Si      -2.54516533       6.92613654      10.00139142
Si      -1.87333836       1.66023217       3.38835529
Si       2.81559467       5.96590214       7.87759121
Si       1.30579734       2.18282056       7.24352907
Si      -1.96337748       3.38799483       5.62982476
Si       1.55508780       6.69224547       4.84133711
Si       4.54474603       1.69263760       0.16720671
Si       5.82766008       4.02506483       2.46074608
Si       2.18314596       5.48339660       3.18175280
24
Lattice="9.1478582825591 0.9428013818889284 -1.5679623006465568 -3.3918768195371247 6.1756120271573005 1.2541121071917418 -1.9833170570090737 0.7351167254560773 8.772301439701945" Properties=species:S:1:pos:R:3 unique_starting_index=90 config_type=initial n_minim_iter=7 stress="4.2392782966762466e-05 -0.00017648988779140576 0.00017854355008995108 -0.00017648988779140576 -0.00039681995118976294 0.000371054152861847 0.00017854355008995108 0.000371054152861847 0.0003477602070913403" pbc="T T T"
Si       5.03437261       1.25363879       5.58388690
Si       0.71586997       3.05681210       0.81934952
Si       5.39857118       5.74499018       1.27378965
Si       0.57630846       0.67689161       1.06546903
Si       2.67280586       3.81596661       7.09092488
Si      -2.62636749       4.23690445       7.73220191
Si       0.19202602       2.14546989       2.65936046
Si       1.32551898       5.35459058       6.48790711
Si      -2.58902115       6.54955868       7.50717485
Si       5.31899288       2.63321054       3.98410382
Si       1.94100872       3.26517878       3.08049682
Si       3.29127076       6.91755866       1.84863862
Si       4.39162193       7.11876130       0.01557750
Si       4.88836836       3.31944277       6.15761620
Si       0.46165204       4.56352796       2.29451156
Si      -2.54537803       6.92633832      10.00258425
Si      -1.87331150       1.66029676       3.38858136
Si       2.81550475       5.96547305       7.87896897
Si       1.30607665       2.18315022       7.24447779
Si      -1.96327821       3.38802825       5.63038879
Si       1.55474571       6.69151997       4.84228678
Si       4.54450334       1.69210408       0.16758767
Si       5.82717191       4.02430746       2.46147608
Si       2.18291784       5.48299601       3.18253018
24
Lattice="9.147481841307652 0.9431240036405638 -1.5681917709118778 -3.3916561157043925 6.175656303516893 1.2535251420837508 -1.9834606611680419 0.7342782224413339 8.771615480005936" Properties=species:S:1:pos:R:3 unique_starting_index=90 config_type=initial n_minim_iter=8 stress="-0.0001960965732985946 0.0001442951425217599 -0.00014020351756371296 0.0001442951425217599 -5.248350156210093e-06 -8.423911904394926e-05 -0.00014020351756371296 -8.423911904394926e-05 0.00019991782104157889" pbc="T T T"
Si       5.03411774       1.25326577       5.58325751
Si       0.71608299       3.05691893       0.81891351
Si       5.39839740       5.74525381       1.27287686
Si       0.57636591       0.67680204       1.06516819
Si       2.67258256       3.81571382       7.09001606
Si      -2.62636782       4.23640943       7.73119705
Si       0.19155010       2.14554011       2.65898950
Si       1.32532145       5.35392219       6.48679733
Si      -2.58898834       6.54889017       7.50587315
Si       5.31870204       2.63286094       3.98371192
Si       1.94095818       3.26487269       3.07989084
Si       3.29108824       6.91760500       1.84758528
Si       4.39157404       7.11933504       0.01480891
Si       4.88806380       3.31907483       6.15676332
Si       0.46151084       4.56312314       2.29424643
Si      -2.54570109       6.92571465      10.00116642
Si      -1.87339012       1.65986672       3.38808588
Si       2.81529791       5.96488651       7.87786286
Si       1.30603856       2.18279760       7.24378012
Si      -1.96321324       3.38740832       5.62955174
Si       1.55461234       6.69113728       4.84123465
Si       4.54427256       1.69223868       0.16733116
Si       5.82669998       4.02427901       2.46066414
Si       2.18294157       5.48317281       3.18166864
24
Lattice="9.147831442857294 0.9428032360996248 -1.5676775959622264 -3.391995254505229 6.175817170011788 1.2532518388583438 -1.9832404532565902 0.7343350484688469 8.770651763750841" Properties=species:S:1:pos:R:3 unique_starting_index=90 config_type=initial n_minim_iter=9 stress="0.00014471606011177182 -4.297043205428547e-05 0.0002109704969722804 -4.297043205428547e-05 7.926151105622232e-05 -9.691551252420766e-07 0.0002109704969722804 -9.691551252420766e-07 -0.0003691865762801286" pbc="T T T"
Si       5.03460411       1.25308411       5.58294279
Si       0.71612478       3.05692965       0.81888812
Si       5.39851254       5.74513280       1.27289581
Si       0.57646168       0.67678455       1.06502435
Si       2.67291899       3.81571409       7.08944452
Si      -2.62633187       4.23657263       7.73026523
Si       0.19141710       2.14568131       2.65868645
Si       1.32542040       5.35380797       6.48615404
Si      -2.58903447       6.54898867       7.50493946
Si       5.31904835       2.63264395       3.98361948
Si       1.94111540       3.26472054       3.07966310
Si       3.29102850       6.91749461       1.84744431
Si       4.39155426       7.11932407       0.01495970
Si       4.88844534       3.31892460       6.15636342
Si       0.46138084       4.56300391       2.29415601
Si      -2.54579897       6.92587326      10.00002104
Si      -1.87348188       1.65990209       3.38762191
Si       2.81552524       5.96477247       7.87721112
Si       1.30634041       2.18279973       7.24307616
Si      -1.96317355       3.38740840       5.62883577
Si       1.55461424       6.69105283       4.84082847
Si       4.54445786       1.69210378       0.16755344
Si       5.82686170       4.02404094       2.46060546
Si       2.18303171       5.48320687       3.18137135
24
Lattice="9.148051261303523 0.9417761902156924 -1.5692318713671538 -3.39284811044282 6.175372193332617 1.253774735797473 -1.9847105264321032 0.7343151334991015 8.77151876004526" Properties=species:S:1:pos:R:3 unique_starting_index=90 config_type=initial n_minim_iter=10 stress="1.8087453699403813e-05 -3.044500221762867e-05 -7.733927149359848e-05 -3.044500221762867e-05 4.9104153388781965e-05 -1.933802747382034e-05 -7.733927149359848e-05 -1.933802747382034e-05 9.96904569466786e-05" pbc="T T T"
Si       5.03415138       1.25221304       5.58304248
Si       0.71632685       3.05661010       0.81893375
Si       5.39779083       5.74413357       1.27164223
Si       0.57659361       0.67667789       1.06460447
Si       2.67207455       3.81540447       7.08980942
Si      -2.62789447       4.23659620       7.73082384
Si       0.18970622       2.14639521       2.65861571
Si       1.32367797       5.35240431       6.48614590
Si      -2.59068270       6.54835854       7.50538342
Si       5.31842950       2.63163440       3.98358031
Si       1.94054040       3.26337132       3.07955160
Si       3.28970976       6.91602339       1.84651315
Si       4.39110695       7.11858227       0.01411338
Si       4.88733481       3.31808556       6.15622708
Si       0.46011605       4.56151035       2.29517704
Si      -2.54890292       6.92532451      10.00089210
Si      -1.87485971       1.65970441       3.38785392
Si       2.81352692       5.96341780       7.87741195
Si       1.30503122       2.18245009       7.24286099
Si      -1.96415934       3.38651125       5.62898377
Si       1.55298569       6.68963845       4.84114464
Si       4.54455777       1.69158840       0.16745148
Si       5.82567244       4.02242589       2.45956930
Si       2.18236058       5.48268437       3.18064161
24
Lattice="9.147543640170353 0.9414526049068077 -1.569354262850669 -3.392836864373122 6.174958170086738 1.253866106064665 -1.9847783010194446 0.7343867746645908 8.771360825767292" Properties=species:S:1:pos:R:3 unique_starting_index=90 config_type=initial n_minim_iter=11 stress="-2.6731267541703187e-05 -6.776262024152697e-05 -4.303744388417507e-05 -6.776262024152697e-05 7.097798306368236e-05 1.6130862224410476e-06 -4.303744388417507e-05 1.6130862224410476e-06 3.749034349104671e-05" pbc="T T T"
Si       5.03397323       1.25164834       5.58299792
Si       0.71672132       3.05649251       0.81879211
Si       5.39745336       5.74337691       1.27153269
Si       0.57681937       0.67682695       1.06440465
Si       2.67231787       3.81519255       7.09002212
Si      -2.62790068       4.23664932       7.73049856
Si       0.18873038       2.14676956       2.65851832
Si       1.32314613       5.35187483       6.48603455
Si      -2.59066167       6.54803342       7.50504196
Si       5.31822181       2.63149775       3.98357541
Si       1.94051752       3.26267392       3.07954329
Si       3.28913769       6.91523177       1.84607238
Si       4.39075153       7.11831986       0.01411982
Si       4.88696094       3.31791765       6.15624762
Si       0.45969557       4.56081356       2.29590698
Si      -2.54955376       6.92506120      10.00065370
Si      -1.87542841       1.65962829       3.38768642
Si       2.81281198       5.96286527       7.87740647
Si       1.30503610       2.18236472       7.24281429
Si      -1.96403843       3.38589611       5.62858586
Si       1.55249509       6.68897604       4.84142968
Si       4.54422043       1.69142849       0.16750279
Si       5.82484039       4.02158511       2.45927041
Si       2.18216487       5.48233343       3.18011355
24
Lattice="9.148311297996393 0.9419938307629205 -1.5695240969057518 -3.392745759539013 6.17426351982335 1.2536440669897642 -1.9849273300322403 0.7337885711403437 8.771798678323645" Properties=species:S:1:pos:R:3 unique_starting_index=90 config_type=initial n_minim_iter=12 stress="1.1788352365358974e-05 -4.219346103432935e-05 -5.110462517408425e-06 -4.219346103432935e-05 0.00011821217887474789 -4.057403174514207e-05 -5.110462517408425e-06 -4.057403174514207e-05 2.3751315247982202e-05" pbc="T T T"
Si       5.03449066       1.25141549       5.58312366
Si       0.71753146       3.05660849       0.81883430
Si       5.39818440       5.74306363       1.27112531
Si       0.57727699       0.67724456       1.06437684
Si       2.67351016       3.81468194       7.09074282
Si      -2.62774166       4.23610552       7.73037431
Si       0.18828961       2.14733381       2.65832031
Si       1.32321981       5.35085760       6.48634519
Si      -2.59025980       6.54726210       7.50475376
Si       5.31902644       2.63163562       3.98386440
Si       1.94073755       3.26168438       3.07957700
Si       3.28963443       6.91469975       1.84526326
Si       4.39183306       7.11816689       0.01419479
Si       4.88760997       3.31782596       6.15661949
Si       0.45972814       4.56010472       2.29639108
Si      -2.54976921       6.92392869      10.00081059
Si      -1.87605920       1.65903816       3.38756143
Si       2.81299799       5.96217962       7.87789579
Si       1.30565591       2.18202564       7.24329132
Si      -1.96382933       3.38470154       5.62823014
Si       1.55285707       6.68830502       4.84150904
Si       4.54457934       1.69168451       0.16747302
Si       5.82490824       4.02141295       2.45899640
Si       2.18260267       5.48197381       3.17948997
24
Lattice="9.149474047564249 0.9422350022050887 -1.5698007244642633 -3.392889649198582 6.173141261183636 1.253915802935056 -1.9853363393239474 0.7337601604963446 8.772300989169597" Properties=species:S:1:pos:R:3 unique_starting_index=90 config_type=initial n_minim_iter=13 stress="0.00014988161971249116 -3.9407022089857264e-05 -4.0757473071787604e-05 -3.9407022089857264e-05 2.1419162390671337e-05 5.860482443963867e-06 -4.0757473071787604e-05 5.860482443963867e-06 6.271560907810027e-07" pbc="T T T"
Si       5.03507443       1.25171272       5.58333420
Si       0.71833292       3.05650926       0.81900812
Si       5.39922847       5.74194847       1.27126541
Si       0.57769802       0.67777314       1.06447576
Si       2.67446440       3.81428224       7.09165003
Si      -2.62785980       4.23572721       7.73054230
Si       0.18767026       2.14771602       2.65819335
Si       1.32335015       5.34964155       6.48718079
Si      -2.59014678       6.54659074       7.50495595
Si       5.31991607       2.63171049       3.98429664
Si       1.94088215       3.26083384       3.07977394
Si       3.29013381       6.91366460       1.84492672
Si       4.39282657       7.11747868       0.01424861
Si       4.88830817       3.31771493       6.15708060
Si       0.45985137       4.55923502       2.29719088
Si      -2.55020860       6.92285694      10.00145565
Si      -1.87675427       1.65844339       3.38752013
Si       2.81299746       5.96140891       7.87871587
Si       1.30607870       2.18189014       7.24375976
Si      -1.96403419       3.38356391       5.62790614
Si       1.55315861       6.68728099       4.84180137
Si       4.54523319       1.69176700       0.16763314
Si       5.82516759       4.02118349       2.45912802
Si       2.18286112       5.48128871       3.17928454
24
Lattice="9.148441878797241 0.9425433825783868 -1.5690569067939666 -3.3921910064137997 6.172674105742414 1.2536676173430936 -1.9843739391798565 0.7336669326559859 8.772247086641363" Properties=species:S:1:pos:R:3 unique_starting_index=90 config_type=initial n_minim_iter=14 stress="-2.5692166951613715e-05 -1.2677639182993361e-05 4.019000285740834e-05 -1.2677639182993361e-05 7.666986318438863e-06 2.4264168532472453e-06 4.019000285740834e-05 2.4264168532472453e-06 -2.0592987848727937e-05" pbc="T T T"
Si       5.03507813       1.25193272       5.58387745
Si       0.71889033       3.05665444       0.81897831
Si       5.39900262       5.74178772       1.27160158
Si       0.57791634       0.67818084       1.06461713
Si       2.67523162       3.81412454       7.09232621
Si      -2.62663192       4.23557288       7.73015183
Si       0.18741639       2.14792057       2.65812230
Si       1.32403675       5.34914380       6.48775312
Si      -2.58879607       6.54639251       7.50454969
Si       5.31993640       2.63188448       3.98502949
Si       1.94109279       3.26035845       3.08009904
Si       3.29010435       6.91336119       1.84495197
Si       4.39286243       7.11728699       0.01462508
Si       4.88852050       3.31777351       6.15770386
Si       0.45998044       4.55913665       2.29755755
Si      -2.54887265       6.92232114      10.00135306
Si      -1.87656670       1.65811350       3.38721122
Si       2.81327863       5.96106128       7.87930084
Si       1.30687623       2.18192545       7.24401517
Si      -1.96327874       3.38288043       5.62727124
Si       1.55365251       6.68681804       4.84198323
Si       4.54494502       1.69195218       0.16825169
Si       5.82467264       4.02115380       2.45979113
Si       2.18292880       5.48112657       3.17932867
24
Lattice="9.149707208816743 0.9430949751850296 -1.5671609126394102 -3.392084949447757 6.172354800540026 1.253140251898732 -1.982856551423399 0.7337523066533522 8.771886559091362" Properties=species:S:1:pos:R:3 unique_starting_index=90 config_type=initial n_minim_iter=15 stress="2.072328135742749e-05 2.901442854539239e-05 4.986641407267715e-05 2.901442854539239e-05 -6.748464798351711e-05 1.951172744598053e-06 4.986641407267715e-05 1.951172744598053e-06 -6.815328792371213e-05" pbc="T T T"
Si       5.03700571       1.25191008       5.58517424
Si       0.72069882       3.05783214       0.81918110
Si       5.40053011       5.74225889       1.27214363
Si       0.57844230       0.67955161       1.06515722
Si       2.67817853       3.81408593       7.09410410
Si      -2.62460591       4.23593733       7.72870420
Si       0.18674312       2.14904683       2.65760910
Si       1.32649784       5.34928373       6.48924380
Si      -2.58657842       6.54715776       7.50304062
Si       5.32207514       2.63236248       3.98710537
Si       1.94121103       3.25977234       3.08067440
Si       3.29095402       6.91332166       1.84528407
Si       4.39480933       7.11770545       0.01484001
Si       4.89101495       3.31829757       6.15926342
Si       0.46078677       4.55911229       2.29847861
Si      -2.54643015       6.92183740      10.00091110
Si      -1.87720278       1.65742957       3.38614004
Si       2.81489392       5.96041550       7.88090270
Si       1.30958802       2.18250762       7.24490798
Si      -1.96204327       3.38146259       5.62556178
Si       1.55541172       6.68603513       4.84302630
Si       4.54614188       1.69245649       0.16993741
Si       5.82535506       4.02123349       2.46115442
Si       2.18354037       5.48143296       3.17962465
24
Lattice="9.149854916535645 0.9439328022191567 -1.5662903132703012 -3.3914150807680996 6.171956776817538 1.2531302970853058 -1.981947698780715 0.7339095658515865 8.77220598552282" Properties=species:S:1:pos:R:3 unique_starting_index=90 config_type=initial n_minim_iter=16 stress="-2.2139560745369377e-05 0.00010075518016640922 2.9134462562756967e-05 0.00010075518016640922 -8.662177435331103e-05 2.901935259901539e-07 2.9134462562756967e-05 2.901935259901539e-07 -6.153961644854162e-05" pbc="T T T"
Si       5.03773038       1.25241631       5.58638422
Si       0.72192226       3.05856699       0.81933443
Si       5.40142656       5.74290479       1.27256390
Si       0.57849465       0.68033605       1.06554178
Si       2.67975451       3.81475949       7.09550273
Si      -2.62298600       4.23618044       7.72828919
Si       0.18635221       2.14990094       2.65736335
Si       1.32803941       5.34911533       6.49044029
Si      -2.58462040       6.54821341       7.50286475
Si       5.32291913       2.63289179       3.98859646
Si       1.94116564       3.25945225       3.08138266
Si       3.29166021       6.91353854       1.84559477
Si       4.39608819       7.11838079       0.01497662
Si       4.89222577       3.31896736       6.16051389
Si       0.46122455       4.55953557       2.29918520
Si      -2.54436786       6.92152807      10.00142463
Si      -1.87765053       1.65711362       3.38571624
Si       2.81617540       5.96029659       7.88272250
Si       1.31108882       2.18256142       7.24613645
Si      -1.96100164       3.38052209       5.62494876
Si       1.55670947       6.68576339       4.84433000
Si       4.54638087       1.69292189       0.17063825
Si       5.82554371       4.02167968       2.46176668
Si       2.18393987       5.48177964       3.18010623
24
Lattice="9.149426237261027 0.9434112503661429 -1.5657042197840343 -3.3914315344249957 6.171791242886508 1.2535926679662206 -1.9812217766653197 0.7347176975130869 8.773349935578956" Properties=species:S:1:pos:R:3 unique_starting_index=90 config_type=initial n_minim_iter=17 stress="-7.4813272086885e-05 4.799293864206111e-05 -2.318890973089111e-07 4.799293864206111e-05 -8.50903663863944e-05 5.771314122911986e-06 -2.318890973089111e-07 5.771314122911986e-06 3.724456713869809e-05" pbc="T T T"
Si       5.03792966       1.25218317       5.58818292
Si       0.72246456       3.05925520       0.81989500
Si       5.40130292       5.74263438       1.27336534
Si       0.57810860       0.68070014       1.06591788
Si       2.68037075       3.81509355       7.09750834
Si      -2.62189447       4.23693438       7.72876802
Si       0.18533398       2.15052768       2.65732609
Si       1.32848698       5.34877029       6.49222770
Si      -2.58356838       6.54969841       7.50367187
Si       5.32298854       2.63284002       3.99002974
Si       1.94058843       3.25926122       3.08258690
Si       3.29152079       6.91315978       1.84606581
Si       4.39610881       7.11824032       0.01580309
Si       4.89261696       3.31902350       6.16228482
Si       0.46108572       4.55956350       2.30000973
Si      -2.54334493       6.92133661      10.00359566
Si      -1.87817833       1.65716162       3.38561310