24
Lattice="6.795248058631698 -2.1068974864531116 0.051580304193725834 0.4880477603225364 8.677317512713447 -0.11056746696381671 1.600648909562685 2.6405611646579725 9.250521859009433" Properties=species:S:1:pos:R:3 unique_starting_index=94 config_type=initial n_minim_iter=1 energy=-3916.9361447962874 free_energy=-3916.9361447962874 pbc="T T T"
Si       7.12153594       5.63696406       7.26117226
Si       0.03839974       3.17512976       3.82951774
Si       2.82137423       7.20820103       0.45928360
Si       5.38271530       9.68527082       6.95017237
Si       5.10019551       1.65661934       1.30196279
Si       4.98617755       4.49425456       9.28420917
Si       4.60200201       0.58437214       3.10704899
Si       3.54964937       0.15698514       1.30682448
Si       6.67624568       0.42129165       5.92059135
Si       7.00921088       6.96373416       5.53470730
Si       3.91340725       6.26304744       8.75387350
Si       5.04789520       1.46681969       4.99337354
Si       1.51087582       6.61827095       2.27363544
Si       1.84505362       5.85336027       7.58975060
Si       5.68253889       3.49927531       5.07187984
Si       5.27205225       4.51677557       7.16721515
Si       4.51901297       2.63291491       8.38076915
Si       1.71857444       5.39465384       0.55124591
Si       7.46226202       2.56616110       2.43906198
Si       3.29710561       4.36808739       7.98330163
Si       6.32426265       4.48201168       3.14432666
Si       1.60978096       0.72640880       0.62510161
Si       4.92670306       8.22202527       8.42503213
Si       5.47282725       2.53241032       3.19342926
24
Lattice="6.7956882916965275 -2.1090688666176867 0.0489198728299129 0.4892943755765591 8.690107832441475 -0.1077739706320157 1.5984947642242862 2.647892281742381 9.259139141270119" Properties=species:S:1:pos:R:3 unique_starting_index=94 config_type=initial n_minim_iter=2 stress="0.004506280808717477 0.0017040994398827521 0.0017594117883515514 0.0017040994398827521 0.0032909804736619805 0.0008507675617858117 0.0017594117883515514 0.0008507675617858117 0.006806805613113604" pbc="T T T"
Si       7.12103443       5.64875734       7.26742866
Si       0.03771900       3.18102650       3.83395497
Si       2.82255215       7.21970981       0.46150819
Si       5.38263814       9.70256251       6.95812432
Si       5.10057435       1.66029819       1.30204700
Si       4.98471088       4.50501558       9.29259044
Si       4.60169223       0.58703066       3.10868843
Si       3.54947067       0.15798767       1.30698687
Si       6.67515714       0.42490258       5.92402553
Si       7.00937475       6.97690484       5.53999849
Si       3.91223513       6.27576628       8.76248177
Si       5.04719196       1.47122328       4.99670728
Si       1.51116212       6.62903965       2.27760569
Si       1.84362460       5.86504765       7.59790178
Si       5.68222182       3.50699572       5.07612360
Si       5.27112835       4.52657977       7.17365087
Si       4.51745254       2.64019860       8.38773798
Si       1.71914134       5.40288023       0.55326885
Si       7.46244722       2.57177713       2.43974938
Si       3.29600079       4.37762714       7.99098222
Si       6.32475215       4.49043088       3.14689681
Si       1.60995572       0.72788005       0.62553814
Si       4.92592319       8.23761685       8.43380498
Si       5.47296369       2.53814697       3.19553935
24
Lattice="6.783713727201533 -2.115902754105363 0.03830096819623257 0.48391746980345274 8.703185309506457 -0.10543884478694031 1.5806243330426457 2.6541934300216177 9.244930332620122" Properties=species:S:1:pos:R:3 unique_starting_index=94 config_type=initial n_minim_iter=3 stress="-0.005591378779942732 0.000147247520758464 -0.0020846072138912446 0.000147247520758464 0.007096663107961398 0.0023663817228052088 -0.0020846072138912446 0.0023663817228052088 -0.004305108990960155" pbc="T T T"
Si       7.09433417       5.65614407       7.24862344
Si       0.03037241       3.18643727       3.82948038
Si       2.81292702       7.23160804       0.45970562
Si       5.35737374       9.71655355       6.94418982
Si       5.08794481       1.66143632       1.29312269
Si       4.95961076       4.51335881       9.27415371
Si       4.58824356       0.58745162       3.09801539
Si       3.53947506       0.15601104       1.29995303
Si       6.65258650       0.42413695       5.90626217
Si       6.98470433       6.98615565       5.52456297
Si       3.88935349       6.28567450       8.74584969
Si       5.02961841       1.47153490       4.98217015
Si       1.50068132       6.63899547       2.27481177
Si       1.82464867       5.87675245       7.58638631
Si       5.66246372       3.51093915       5.06292636
Si       5.24806668       4.53282169       7.15821420
Si       4.49537072       2.64403905       8.37056089
Si       1.71126156       5.40986720       0.55284963
Si       7.44164707       2.57274748       2.42522144
Si       3.27763797       4.38462000       7.97724490
Si       6.30635545       4.49399873       3.13528912
Si       1.60632903       0.72809219       0.62290806
Si       4.89999156       8.25005233       8.41720558
Si       5.45728202       2.54106321       3.18371876
24
Lattice="6.79214029277275 -2.117038588446377 0.03569672662461508 0.4793087880981534 8.690738873587124 -0.1124514733328288 1.574930101591573 2.642526210445419 9.254822072895939" Properties=species:S:1:pos:R:3 unique_starting_index=94 config_type=initial n_minim_iter=4 stress="0.0003464536428917256 -0.005187767528159886 -0.0033897118212002073 -0.005187767528159886 0.0033236479186274136 -0.001600302816229333 -0.0033897118212002073 -0.001600302816229333 0.005097778557960586" pbc="T T T"
Si       7.09488358       5.63856889       7.24932143
Si       0.02611739       3.17759216       3.83184625
Si       2.81160030       7.22274164       0.45401754
Si       5.35332370       9.69397121       6.94406981
Si       5.09202568       1.65650646       1.28995923
Si       4.95639064       4.49846530       9.28056519
Si       4.59137424       0.58348616       3.09936286
Si       3.54024078       0.15114180       1.29898163
Si       6.65394051       0.41512007       5.91008972
Si       6.98538305       6.96884674       5.52266954
Si       3.88536667       6.26702653       8.74909130
Si       5.03107670       1.46132861       4.98321334
Si       1.49538164       6.62643976       2.27257768
Si       1.81622346       5.86333785       7.59089511
Si       5.66377262       3.49828233       5.06558318
Si       5.24628762       4.51727130       7.16230833
Si       4.49368429       2.63038280       8.37746149
Si       1.70807075       5.39970313       0.55030860
Si       7.44384429       2.56330470       2.41937814
Si       3.27611760       4.36983943       7.98381921
Si       6.30962482       4.47940377       3.13317618
Si       1.60826583       0.72514008       0.62268991
Si       4.89492805       8.22854691       8.41884972
Si       5.46061274       2.53360327       3.18286733
24
Lattice="6.793004440495944 -2.1014300169480133 0.04022580101645514 0.4966287216432602 8.682468120155852 -0.10774747867362473 1.5888895962867804 2.647421784375545 9.25387461219826" Properties=species:S:1:pos:R:3 unique_starting_index=94 config_type=initial n_minim_iter=5 stress="-0.002798673464421209 0.0017132816988101054 -0.00039482754517315504 0.0017132816988101054 -0.0005970694935062935 0.0022104638630690656 -0.00039482754517315504 0.0022104638630690656 0.002821476195179427" pbc="T T T"
Si       7.11808032       5.65032944       7.25443154
Si       0.03548022       3.17480503       3.83146197
Si       2.82817034       7.22330613       0.46044306
Si       5.38249343       9.69720167       6.95103832
Si       5.10060357       1.66673056       1.29409093
Si       4.97667768       4.50910815       9.28348535
Si       4.59882412       0.59519311       3.10218738
Si       3.54269274       0.15759876       1.30116030
Si       6.66275679       0.43080959       5.91354983
Si       7.00966083       6.97882061       5.52977692
Si       3.90877152       6.27216369       8.75035972
Si       5.04191628       1.47085322       4.98487296
Si       1.50995522       6.62315197       2.27676231
Si       1.83419899       5.86512990       7.59214374
Si       5.67955892       3.50778405       5.07182932
Si       5.26478480       4.52577375       7.16699815
Si       4.50924191       2.63999115       8.37946839
Si       1.71938169       5.39662786       0.55565551
Si       7.45366847       2.57661984       2.42318924
Si       3.29498774       4.37576342       7.98599697
Si       6.32708975       4.48709312       3.14025595
Si       1.61240054       0.72738769       0.62421515
Si       4.92123796       8.23328102       8.42323992
Si       5.47299626       2.54455685       3.18770740
24
Lattice="6.806353706686352 -2.0996135469198407 0.04545935165129933 0.5017411738725074 8.688523468439666 -0.1132510675970151 1.5987898621027892 2.6435965003496733 9.23919497342963" Properties=species:S:1:pos:R:3 unique_starting_index=94 config_type=initial n_minim_iter=6 stress="0.006136882744450094 0.0015648688269352428 0.0013173041636234508 0.0015648688269352428 0.006645634152668191 -0.003578280757969916 0.0013173041636234508 -0.003578280757969916 -0.004551862658478461" pbc="T T T"
Si       7.14085724       5.65258743       7.24298440
Si       0.03929530       3.17271575       3.82295147
Si       2.83708523       7.23027490       0.45738593
Si       5.40315641       9.70066227       6.93693026
Si       5.11321979       1.67082959       1.29408113
Si       4.99546710       4.50789308       9.27009398
Si       4.61071027       0.59755763       3.09882064
Si       3.55049871       0.15800262       1.30154039
Si       6.67856170       0.43027022       5.90842130
Si       7.03204412       6.98389580       5.52080214
Si       3.92569586       6.27319313       8.73317493
Si       5.05609427       1.46966125       4.97821667
Si       1.51608995       6.62643613       2.27044134
Si       1.84454619       5.86479416       7.57776521
Si       5.69674078       3.50858861       5.06702077
Si       5.28230452       4.52579530       7.15710465
Si       4.52541517       2.63828721       8.36800005
Si       1.72542736       5.39991372       0.55334448
Si       7.46925709       2.58022123       2.41885908
Si       3.30910763       4.37551557       7.97307269
Si       6.34617924       4.48981203       3.13720251
Si       1.61713869       0.72791302       0.62379088
Si       4.93947169       8.23492757       8.40794164
Si       5.48763314       2.54739718       3.18456590
24
Lattice="6.826883386608725 -2.094319884854484 0.04634838976713286 0.5034705595306529 8.667898460015461 -0.10065770998051322 1.6090307172957306 2.6504856680788853 9.238976548538602" Properties=species:S:1:pos:R:3 unique_starting_index=94 config_type=initial n_minim_iter=7 stress="0.0035722851970178817 -0.004729154882720133 0.0031462373946245835 -0.004729154882720133 -0.0025524875490722334 0.005238566950821491 0.0031462373946245835 0.005238566950821491 -0.004573961926724871" pbc="T T T"
Si       7.17156880       5.65000324       7.24654019
Si       0.04187828       3.16199051       3.82113820
Si       2.84046004       7.21753815       0.47455438
Si       5.42812807       9.68259664       6.94809317
Si       5.12957100       1.67592897       1.29810275
Si       5.02136486       4.50750914       9.28005877
Si       4.62679179       0.61150499       3.09331350
Si       3.56084377       0.15859055       1.30626582
Si       6.69186825       0.43800413       5.91104325
Si       7.06336014       6.98069038       5.53198498
Si       3.94663955       6.27747078       8.72765487
Si       5.07428567       1.46799874       4.97524990
Si       1.51347334       6.61298075       2.28468528
Si       1.85317030       5.86025061       7.58301074
Si       5.72053377       3.50295708       5.08397600
Si       5.30418228       4.52250024       7.16669352
Si       4.54832764       2.64658757       8.37129939
Si       1.73021830       5.38469637       0.56690047
Si       7.47775291       2.57788552       2.40721683
Si       3.32488802       4.38291102       7.97673596
Si       6.37776247       4.47828569       3.15191147
Si       1.62544032       0.72591049       0.62660311
Si       4.95361328       8.22567891       8.41935956
Si       5.50629351       2.54968694       3.19200601
24
Lattice="6.82118717165816 -2.084247945729336 0.04411299734393217 0.51474638562011 8.663682325153538 -0.11307424785100752 1.6047744755323352 2.6382938773771833 9.239650254880724" Properties=species:S:1:pos:R:3 unique_starting_index=94 config_type=initial n_minim_iter=8 stress="-0.0034643911120839166 0.0006588100263477935 -0.0009481152181092778 0.0006588100263477935 -0.005201438929990514 -0.0029098438345043554 -0.0009481152181092778 -0.0029098438345043554 -0.0025425713851800914" pbc="T T T"
Si       7.17171048       5.64603485       7.23625588
Si       0.04299535       3.15249400       3.81751309
Si       2.84627743       7.21658831       0.46438967
Si       5.43447790       9.67340251       6.93440895
Si       5.12868781       1.68210255       1.29266583
Si       5.01892002       4.49872157       9.27680914
Si       4.62308544       0.61577451       3.08837322
Si       3.55842251       0.16087794       1.30557440
Si       6.68213252       0.43834472       5.90942095
Si       7.06747964       6.97975413       5.52035902
Si       3.94814354       6.26858059       8.71778027
Si       5.07010205       1.46547774       4.97104923
Si       1.51748806       6.60771472       2.27727728
Si       1.85398414       5.84821733       7.57803958
Si       5.71987119       3.49961603       5.08112597
Si       5.30302957       4.51612495       7.16183054
Si       4.54493276       2.63993140       8.36914151
Si       1.73630645       5.38236367       0.55986084
Si       7.47142647       2.58266380       2.39371489
Si       3.32372892       4.37558283       7.97296488
Si       6.38163459       4.47854915       3.14498341
Si       1.62622714       0.72639261       0.62514716
Si       4.95378368       8.21532500       8.41023346
Si       5.50477220       2.55188776       3.18717553
24
Lattice="6.832342809141135 -2.0782999698642115 0.04314068088539698 0.5200155615374255 8.653738259162749 -0.10516462927334932 1.610280979288746 2.644328782944525 9.23702690483894" Properties=species:S:1:pos:R:3 unique_starting_index=94 config_type=initial n_minim_iter=9 stress="-0.0013412058049120897 -0.0013927878550576496 0.001586299570137461 -0.0013927878550576496 -0.004584670097054608 -0.0011277388932031142 0.001586299570137461 -0.0011277388932031142 -0.004420533275042909" pbc="T T T"
Si       7.19144627       5.64857681       7.23351963
Si       0.04405544       3.14557993       3.81240976
Si       2.84626914       7.20685056       0.47428599
Si       5.45295115       9.66842600       6.94016974
Si       5.14021827       1.69064914       1.29520092
Si       5.02843484       4.51043744       9.27656753
Si       4.63043269       0.62714845       3.07893599
Si       3.56645858       0.16211064       1.31122950
Si       6.68764431       0.44648004       5.90920243
Si       7.09236967       6.98421674       5.52429213
Si       3.96781409       6.27464016       8.70902362
Si       5.07860971       1.46855986       4.96746717
Si       1.51900832       6.60217318       2.28667895
Si       1.85844188       5.84911970       7.57828786
Si       5.73575582       3.49503647       5.09139491
Si       5.31847162       4.51816675       7.16622927
Si       4.56012764       2.64427438       8.36617806
Si       1.74572594       5.37775666       0.56726377
Si       7.47193008       2.58387997       2.37577500
Si       3.33931698       4.38100925       7.97452407
Si       6.40416178       4.47900005       3.15733389
Si       1.63253102       0.72675713       0.62615236
Si       4.95960553       8.21672532       8.41768819
Si       5.51466204       2.55702281       3.19476693
24
Lattice="6.8489378535815755 -2.068167591961654 0.020924920170589136 0.5310299285698147 8.642702475621737 -0.09778285655394878 1.5902742060859492 2.651954494186456 9.233696212765915" Properties=species:S:1:pos:R:3 unique_starting_index=94 config_type=initial n_minim_iter=10 stress="0.006722129046091706 0.0020465470818457777 -0.0075068980610488705 0.0020465470818457777 -0.00682641167180727 0.002328689357301158 -0.0075068980610488705 0.002328689357301158 -0.004014599495889306" pbc="T T T"
Si       7.19725298       5.65388949       7.21284721
Si       0.03355745       3.14086689       3.80929029
Si       2.85299786       7.20078367       0.47347055
Si       5.45886723       9.66632416       6.93497663
Si       5.15268629       1.70433354       1.28446857
Si       5.01622365       4.51956375       9.26837475
Si       4.63377959       0.63690545       3.06314434
Si       3.57051925       0.16651494       1.29849393
Si       6.68643174       0.45959707       5.89046625
Si       7.11201681       6.98971890       5.50899945
Si       3.96795244       6.28626156       8.69440707
Si       5.07419448       1.47548339       4.95362915
Si       1.52458484       6.59520395       2.29040706
Si       1.84723994       5.84893922       7.57673795
Si       5.74377528       3.49359538       5.08539459
Si       5.32138856       4.52474666       7.15525288
Si       4.55361724       2.65121450       8.35929066
Si       1.75825366       5.37328350       0.56998263
Si       7.47455919       2.58860957       2.33637836
Si       3.33428353       4.38695604       7.96823329
Si       6.42029477       4.48590991       3.15523679
Si       1.64166250       0.72709580       0.62059375
Si       4.94997898       8.22334916       8.41309459
Si       5.52179093       2.56572459       3.18324321
24
Lattice="6.84049607825955 -2.0724691820359795 0.03286238133624576 0.5262957856716068 8.64760300542267 -0.10304761822159257 1.6010843459002613 2.6465040146901 9.245631624263927" Properties=species:S:1:pos:R:3 unique_starting_index=94 config_type=initial n_minim_iter=11 stress="-0.0008502981608891917 -0.0007474611854347742 0.001725978772398098 -0.0007474611854347742 -0.0008324692174777931 -0.0005358686891139863 0.001725978772398098 -0.0005358686891139863 0.000479768990595077" pbc="T T T"
Si       7.19684333       5.64651419       7.22455455
Si       0.03477136       3.13581613       3.80643152
Si       2.83923974       7.20400281       0.47341041
Si       5.45847149       9.66306000       6.94730741
Si       5.14646633       1.71106631       1.29488162
Si       5.01833435       4.51373569       9.28712510
Si       4.63095526       0.63506255       3.07201257
Si       3.56587309       0.16283609       1.30289131
Si       6.68411731       0.45362935       5.90879341
Si       7.11673990       6.98788629       5.52079599
Si       3.98089773       6.28959537       8.69866664
Si       5.06816676       1.46900000       4.96702495
Si       1.52399200       6.59394924       2.29275141
Si       1.85386433       5.84397212       7.58372492
Si       5.74579670       3.48154397       5.10595824
Si       5.32747390       4.51991440       7.17046355
Si       4.56161906       2.64172156       8.38029368
Si       1.75785404       5.37513517       0.57202385
Si       7.45155946       2.58312815       2.32934377
Si       3.34479541       4.38287646       7.97959779
Si       6.41724102       4.48651334       3.17878963
Si       1.64545114       0.72513426       0.62150240
Si       4.94521039       8.22422773       8.42788786
Si       5.51796104       2.56646476       3.19649738
24
Lattice="6.848108410619233 -2.07650607386068 0.02748878261232866 0.5215814646147132 8.646875607907042 -0.10726698373468835 1.592436859882663 2.6413124011335776 9.238652880532383" Properties=species:S:1:pos:R:3 unique_starting_index=94 config_type=initial n_minim_iter=12 stress="0.0013084287162622467 -0.0005269480124252851 -0.001031091851477476 -0.0005269480124252851 0.0004872845977270939 -0.00034885495944237397 -0.001031091851477476 -0.00034885495944237397 -0.0008848981586440213" pbc="T T T"
Si       7.19389903       5.63348535       7.20547762
Si       0.02071605       3.12889748       3.79745796
Si       2.82627949       7.20871471       0.46836095
Si       5.45118828       9.65623775       6.93850271
Si       5.14185790       1.71972686       1.28804520
Si       5.01011657       4.50870289       9.27682889
Si       4.63102945       0.63198287       3.06558657
Si       3.57276381       0.15500404       1.29617194
Si       6.68469577       0.45083513       5.89821844
Si       7.12999312       6.97940208       5.50615797
Si       3.98389816       6.28956325       8.67579404
Si       5.05649250       1.45901281       4.96253395
Si       1.51985114       6.58327130       2.29101683
Si       1.84998610       5.83122251       7.57441379
Si       5.75171025       3.46407340       5.10806571
Si       5.32973461       4.51374614       7.16655103
Si       4.56397019       2.62778682       8.37675447
Si       1.75738902       5.36856565       0.57197566
Si       7.43273208       2.57655932       2.28696760
Si       3.34395252       4.38243680       7.96734735
Si       6.42194854       4.48683331       3.19195435
Si       1.64566692       0.72406476       0.61719014
Si       4.92929671       8.22580281       8.41561480
Si       5.51694467       2.57014237       3.20010504
24
Lattice="6.8513139771321265 -2.0724447319109767 0.028611447025550747 0.5237402127211346 8.636465359111344 -0.10572885550719419 1.5958292525891222 2.6402005829824455 9.255050675375577" Properties=species:S:1:pos:R:3 unique_starting_index=94 config_type=initial n_minim_iter=13 stress="0.003139164534817126 0.00022848491165369783 0.0005324213014147569 0.00022848491165369783 0.005117391224760972 0.0019767001747939593 0.0005324213014147569 0.0019767001747939593 0.0024398293866106833" pbc="T T T"
Si       7.20091729       5.62386226       7.21394459
Si       0.01088093       3.12262410       3.80059405
Si       2.81725428       7.20722286       0.47465990
Si       5.45855361       9.64778608       6.95247641
Si       5.13750076       1.73304246       1.29972953
Si       5.01320470       4.50809042       9.29319266
Si       4.63515426       0.63535439       3.07244630
Si       3.58249497       0.15188648       1.29496426
Si       6.69069014       0.45829847       5.90525682
Si       7.15325965       6.97114467       5.51534414
Si       3.99957339       6.28680554       8.68177849
Si       5.05016877       1.45292302       4.97652882
Si       1.52102104       6.56643075       2.30256084
Si       1.85701426       5.81992256       7.58602314
Si       5.76577459       3.45422540       5.13410742
Si       5.34145977       4.51136974       7.18786071
Si       4.57709899       2.62676610       8.39688214
Si       1.76025431       5.35448570       0.57616261
Si       7.41396368       2.57578705       2.26069364
Si       3.35849142       4.38039650       7.97883051
Si       6.43342377       4.49011912       3.22197918
Si       1.64400868       0.72516493       0.61576763
Si       4.93001834       8.22782632       8.43137245
Si       5.51720682       2.56962847       3.20919089
24
Lattice="6.858684492732804 -2.0550496426652893 0.029796381452186098 0.5416680354155686 8.620802483659787 -0.1137787168974391 1.602666537977796 2.6299117797524514 9.265774977471118" Properties=species:S:1:pos:R:3 unique_starting_index=94 config_type=initial n_minim_iter=14 stress="0.007617477617351561 0.003098056755583672 -0.0010290496167942944 0.003098056755583672 0.012761024807491068 0.0016335814521248686 -0.0010290496167942944 0.0016335814521248686 0.008294418764809824" pbc="T T T"
Si       7.22474726       5.61449165       7.21250688
Si       0.00319291       3.11145277       3.80234967
Si       2.82132287       7.20274067       0.47448176
Si       5.48881656       9.63751099       6.94600531
Si       5.13687934       1.75009839       1.30666613
Si       5.03094268       4.50060323       9.30695246
Si       4.64329861       0.64063824       3.07460537
Si       3.59588257       0.15880229       1.29044174
Si       6.70463404       0.47144315       5.90417379
Si       7.19621936       6.96402952       5.51279311
Si       4.02520576       6.27602364       8.67933986
Si       5.05252696       1.45039519       4.98363214
Si       1.53265129       6.54287668       2.30669169
Si       1.87026235       5.80309574       7.58697747
Si       5.79191174       3.44559378       5.15010075
Si       5.36597346       4.50689865       7.19899535
Si       4.59573649       2.62794250       8.41033083
Si       1.77479422       5.33862621       0.57117287
Si       7.40437688       2.58371116       2.23097742
Si       3.38473788       4.36297853       7.98235041
Si       6.45944672       4.49355329       3.24454559
Si       1.64951875       0.72759110       0.61054501
Si       4.94974391       8.22312985       8.43647437
Si       5.52790321       2.58008939       3.22347542
24
Lattice="6.868281666942471 -2.0542747329076376 0.02917233039956739 0.5382486143199792 8.604218575531467 -0.11819440733811977 1.6011193614730372 2.6198471065859956 9.284063328051301" Properties=species:S:1:pos:R:3 unique_starting_index=94 config_type=initial n_minim_iter=15 stress="0.0074788387583008195 0.002708808550257971 -0.0019212318685501778 0.002708808550257971 0.011308424334184568 0.0016209827379387153 -0.0019212318685501778 0.0016209827379387153 0.006152925852854779" pbc="T T T"
Si       7.23294191       5.59142038       7.21827857
Si      -0.01251584       3.10305716       3.81128019
Si       2.80541015       7.19454424       0.47822700
Si       5.49220332       9.61898283       6.94882440
Si       5.13232936       1.75627068       1.32806584
Si       5.03629893       4.49381400       9.33065624
Si       4.64602093       0.63481074       3.07516264
Si       3.60300765       0.15858537       1.28793003
Si       6.71702980       0.46978870       5.90281786
Si       7.21927437       6.94294841       5.51592422
Si       4.02703463       6.25574251       8.68599924
Si       5.05108397       1.44243507       4.98632081
Si       1.52523573       6.51438940       2.31432485
Si       1.87403897       5.78059746       7.59610411
Si       5.80820898       3.42607283       5.16980039
Si       5.37850399       4.49239385       7.21530400
Si       4.60408052       2.61119633       8.42688252
Si       1.77561651       5.32309037       0.56734425
Si       7.37894862       2.57422421       2.20964199
Si       3.38753466       4.34278137       7.98923721
Si       6.47204562       4.47830465       3.26966977
Si       1.65767073       0.72578076       0.60845241
Si       4.95085174       8.21228999       8.44833712
Si       5.52654469       2.57976269       3.23780106
24
Lattice="6.864969270978592 -2.0599711417623126 0.026125814499023493 0.525533759255646 8.587002017420108 -0.1294824178893163 1.588009641756801 2.6013671509453036 9.31552619877084" Properties=species:S:1:pos:R:3 unique_starting_index=94 config_type=initial n_minim_iter=16 stress="0.00591959131518732 0.0014698344901413452 -0.005222891247356145 0.0014698344901413452 0.008349191701675402 0.0024827839110310437 -0.005222891247356145 0.0024827839110310437 0.007677765797593704" pbc="T T T"
Si       7.22057255       5.55738302       7.22817595
Si      -0.03225736       3.09378632       3.82225852
Si       2.77678176       7.18586222       0.47398955
Si       5.47193497       9.58459773       6.94832363
Si       5.11587372       1.75656022       1.34536919
Si       5.01755828       4.47218253       9.34988809
Si       4.63463070       0.62145444       3.07935828
Si       3.59573471       0.15144507       1.28770308
Si       6.71003390       0.45638203       5.90595217
Si       7.21862041       6.91219909       5.51907319
Si       4.00260501       6.22645158       8.69953560
Si       5.03659655       1.42527248       4.99169761
Si       1.50595064       6.47817644       2.31649987
Si       1.86786085       5.74790046       7.61289823
Si       5.80927378       3.39982092       5.19519452
Si       5.36693124       4.46513347       7.24618031
Si       4.59336162       2.58790231       8.46269852
Si       1.76752984       5.30964194       0.56063767
Si       7.33353923       2.55588822       2.18619140
Si       3.37497670       4.31158367       8.00533414
Si       6.46836046       4.45697364       3.29401149
Si       1.66859001       0.72241201       0.60513471
Si       4.93075724       8.19501099       8.46489971
Si       5.49638053       2.56914635       3.26168814
24
Lattice="6.872393628338332 -2.0483581362831855 0.028853198736940023 0.5255717825229393 8.537328734189806 -0.14544347694010296 1.5879185844458152 2.5696216625256842 9.344852035011181" Properties=species:S:1:pos:R:3 unique_starting_index=94 config_type=initial n_minim_iter=17 stress="-0.0030313574227438266 0.0031855836705777544 -0.0004867817801241277 0.0031855836705777544 -0.0026244100704863626 -0.004944478449948105 -0.0004867817801241277 -0.004944478449948105 -0.0028447502602213497" pbc="T T T"
Si       7.24201888       5.51171604       7.23992854
Si      -0.03841174       3.07691603       3.82294608
Si       2.76933642       7.15053287       0.46200745
Si       5.47940983       9.51909811       6.94645129
Si       5.10710706       1.75369360       1.35089878
Si       5.02762237       4.42837952       9.37113031
Si       4.63082791       0.60533630       3.08903048
Si       3.59925683       0.15242374       1.29449944
Si       6.71755551       0.44429001       5.91424573
Si       7.24227913       6.86341517       5.52291577
Si       3.99003625       6.17914941       8.71376708
Si       5.04104902       1.40116868       5.00907595
Si       1.50449605       6.41863388       2.30871571
Si       1.87696411       5.69433587       7.62576062
Si       5.83347580       3.37389539       5.22381610
Si       5.37261148       4.42043374       7.27768228
Si       4.60401380       2.54010220       8.48866700
Si       1.77208972       5.28035963       0.54793718