8
Lattice="5.207127042782387 -0.8299485602582273 -0.025362876447519105 0.39455920983481596 4.993921787978434 0.26146114388592645 0.9598171994109672 2.249007347449153 6.4386148658656515" Properties=species:S:1:pos:R:3 unique_starting_index=84 config_type=initial n_minim_iter=1 energy=-1301.975630954479 free_energy=-1301.975630954479 pbc="T T T"
Si       3.88441296       2.32299867       0.19035317
Si       2.67709049       4.08998191       6.48435996
Si       3.66858357       0.14149658      -0.09125237
Si       2.89291988       6.27148400       6.76596550
Si       1.08498892       6.46038030       5.17364031
Si       5.47651453      -0.04739973       1.50107282
Si       6.16028790       3.37277079       4.74469512
Si       0.40121555       3.04020979       1.93001801
8
Lattice="5.261079592667463 -0.8231236656614795 -0.04972385121551036 0.40122396876126687 4.976103489770218 0.28083987780796205 0.9453244089742491 2.2630730643679535 6.540239315044119" Properties=species:S:1:pos:R:3 unique_starting_index=84 config_type=initial n_minim_iter=2 stress="0.016046719617695018 0.0011842547995225047 0.005395973350796151 0.0011842547995225047 0.022482936155588953 7.807416548570692e-05 0.005395973350796151 7.807416548570692e-05 0.010054803834924568" pbc="T T T"
Si       3.93471829       2.33216967       0.18767325
Si       2.67290968       4.08388321       6.58368210
Si       3.70434207       0.12305830      -0.10444791
Si       2.90328590       6.29299459       6.87580325
Si       1.07655052       6.46361884       5.26411328
Si       5.53107745      -0.04756596       1.50724206
Si       6.20463481       3.37028297       4.80455919
Si       0.40299316       3.04576992       1.96679615
8
Lattice="5.280614160774099 -0.8017371899681973 -0.11521138186785561 0.40026349062214506 4.851890743535199 0.308493373579662 0.8744313279322146 2.2423934759159807 6.651218375052926" Properties=species:S:1:pos:R:3 unique_starting_index=84 config_type=initial n_minim_iter=3 stress="0.010725294562204413 0.006202312300528822 0.0020092719866404637 0.006202312300528822 0.00034682788519829907 0.002768172428506506 0.0020092719866404637 0.002768172428506506 0.013205661913714825" pbc="T T T"
Si       3.96492197       2.30173109       0.16262182
Si       2.59038701       3.99081594       6.68187854
Si       3.71351210       0.08191671      -0.14215731
Si       2.84179688       6.21063032       6.98665768
Si       1.01507843       6.34785244       5.36376060
Si       5.54023055      -0.05530541       1.48073977
Si       6.16619115       3.29333949       4.83477398
Si       0.38911783       2.99920754       2.00972638
8
Lattice="5.275908111379429 -0.8973322909642159 -0.2241380661861543 0.2920033614799203 4.784490409788083 0.3063616020920686 0.6913282618983341 2.2033633511229143 6.643335583389684" Properties=species:S:1:pos:R:3 unique_starting_index=84 config_type=initial n_minim_iter=4 stress="-0.012662162100317037 0.006843575155659225 -0.013587577380410476 0.006843575155659225 -0.01070841776385559 0.0022343973996450965 -0.013587577380410476 0.0022343973996450965 -0.00846578032382081" pbc="T T T"
Si       3.93400492       2.24990872       0.08594678
Si       2.32523482       3.84061275       6.63961234
Si       3.69156514      -0.06817750      -0.20383737
Si       2.56767459       6.15869897       6.92939649
Si       0.75972084       6.30186293       5.32559290
Si       5.49951889      -0.21134146       1.39996622
Si       5.95540617       3.08976045       4.71657682
Si       0.30383357       3.00076102       2.00898230
8
Lattice="5.348127385678222 -1.0594717754020855 -0.14667775695530938 0.1255393064403175 4.657324780080392 0.2947584942331416 0.7131795809778669 2.0925327057790657 6.73657503606399" Properties=species:S:1:pos:R:3 unique_starting_index=84 config_type=initial n_minim_iter=5 stress="0.022959325319231016 0.004442503356125829 0.0016986727425166953 0.004442503356125829 -0.05036605146625177 -0.0026057523062128873 0.0016986727425166953 -0.0026057523062128873 0.014099521259148602" pbc="T T T"
Si       3.92492832       2.10250928       0.12887343
Si       2.26191796       3.58787644       6.75578235
Si       3.72562082      -0.26836759      -0.13709554
Si       2.46122545       5.95875330       7.02175131
Si       0.59595247       6.14707828       5.34299522
Si       5.59089380      -0.45669257       1.54166055
Si       5.93392587       2.73818782       4.84709050
Si       0.25292041       2.95219790       2.03756527
8
Lattice="5.312879042487112 -1.1117877357265276 -0.11826706667688788 0.07900264141328268 4.687804282371214 0.29958188228341426 0.7208563203346914 2.1026735152847302 6.741419095625535" Properties=species:S:1:pos:R:3 unique_starting_index=84 config_type=initial n_minim_iter=6 stress="-0.0005883425549398718 -0.004352018103530417 0.012117977835844741 -0.004352018103530417 -0.036133189578154076 0.004355399646270963 0.012117977835844741 0.004355399646270963 0.007128054681203499" pbc="T T T"
Si       3.87975851       2.08989290       0.15075275
Si       2.23297949       3.58879716       6.77198116
Si       3.69792497      -0.31939029      -0.11314765
Si       2.41481304       5.99808035       7.03588156
Si       0.55219947       6.19570304       5.34046278
Si       5.56053854      -0.51701298       1.58227113
Si       5.87376886       2.69864382       4.87946785
Si       0.23896915       2.98004624       2.04326606
8
Lattice="5.292125477596666 -1.1188301944676813 -0.12856384050899225 0.08375038227543613 4.773999075977996 0.2694216421990277 0.7018366875099966 2.1081152795107627 6.682320997532838" Properties=species:S:1:pos:R:3 unique_starting_index=84 config_type=initial n_minim_iter=7 stress="0.006382956716987304 -0.0012109259514197022 0.0009277281702543404 -0.0012109259514197022 0.019048362389854717 0.0008755665286887611 0.0009277281702543404 0.0008755665286887611 0.003982871044307652" pbc="T T T"
Si       3.86630222       2.12483337       0.12484183
Si       2.21141033       3.63845079       6.69833697
Si       3.69226486      -0.31676446      -0.12194104
Si       2.38544768       6.08004862       6.94511984
Si       0.54522826       6.28419775       5.25959265
Si       5.53248429      -0.52091359       1.56358615
Si       5.83620322       2.73938612       4.81060817
Si       0.24150932       3.02389804       2.01257063
8
Lattice="5.280781747505226 -1.1502207436322467 -0.13431709634850503 0.05292584709868374 4.77743218654469 0.24518927922689118 0.6738117172523695 2.0756483812161246 6.664371792412374" Properties=species:S:1:pos:R:3 unique_starting_index=84 config_type=initial n_minim_iter=8 stress="0.0021971071005575764 -0.00036017321564201426 -0.0050137426340237795 -0.00036017321564201426 0.014068944027257344 -0.0007687502708970553 -0.0050137426340237795 -0.0007687502708970553 0.00313045486932332" pbc="T T T"
Si       3.84851726       2.10127570       0.10622466
Si       2.15900205       3.60158413       6.66901931
Si       3.69503195      -0.37528698      -0.12190184
Si       2.31248736       6.07814680       6.89714581
Si       0.49229002       6.28029507       5.19846102
Si       5.51522929      -0.57743524       1.57678296
Si       5.77243502       2.67242688       4.77754617
Si       0.23508429       3.03043294       1.99769781
8
Lattice="5.254833060436824 -1.1608746138091137 -0.07904795114785007 0.0443616491066276 4.783389929627172 0.2236091829756506 0.7280513369532192 2.0481371682328477 6.596373617268634" Properties=species:S:1:pos:R:3 unique_starting_index=84 config_type=initial n_minim_iter=9 stress="-0.008343082221535392 0.0029796202303513175 -0.0027033496283433308 0.0029796202303513175 0.0036965972005278103 0.00038263379694455387 -0.0027033496283433308 0.00038263379694455387 -0.019676803124840065" pbc="T T T"
Si       3.82686690       2.06772481       0.13075672
Si       2.20037915       3.60292768       6.61017813
Si       3.69864859      -0.41622418      -0.08079644
Si       2.32859745       6.08687666       6.82173129
Si       0.52827859       6.27100032       5.10238520
Si       5.49896746      -0.60034784       1.63854965
Si       5.75886301       2.64093894       4.77181049
Si       0.26838303       3.02971355       1.96912436
8
Lattice="5.172681707903516 -1.2267659753978593 0.0033845539068982303 -0.020066977448387816 4.790128378726775 0.17773000836508998 0.7746693892847369 1.9728968175796215 6.654767098976032" Properties=species:S:1:pos:R:3 unique_starting_index=84 config_type=initial n_minim_iter=10 stress="-0.03836711637067639 0.0005246455998490717 0.001772358574994494 0.0005246455998490717 -0.007410472534733327 -0.006136356133742323 0.001772358574994494 -0.006136356133742323 -0.01185949340773798" pbc="T T T"
Si       3.72640240       1.94786586       0.15855424
Si       2.20088172       3.58839336       6.67732742
Si       3.67803327      -0.52568680      -0.01639035
Si       2.24925085       6.06194602       6.85227201
Si       0.51076288       6.22364743       5.05473357
Si       5.41652124      -0.68738821       1.78114809
Si       5.63553623       2.52562118       4.87274457
Si       0.29174789       3.01063805       1.96313709
8
Lattice="5.234495867347064 -1.3071943758501312 0.022257282849297216 -0.09232475251641642 4.783963803096177 0.2246559258827556 0.7815391806830688 2.0158418265843916 6.661440837526507" Properties=species:S:1:pos:R:3 unique_starting_index=84 config_type=initial n_minim_iter=11 stress="-0.01951454897506152 -0.006681448046391301 0.0037105086713544 -0.006681448046391301 -0.011535892536967213 0.004797462797689985 0.0037105086713544 0.004797462797689985 -0.024635242444896004" pbc="T T T"
Si       3.72603015       1.81164201       0.18966172
Si       2.19768014       3.68096924       6.71869233
Si       3.74767155      -0.63452719       0.01293367
Si       2.17603874       6.12713844       6.89542037
Si       0.45291013       6.24163358       5.07217365
Si       5.47080016      -0.74902232       1.83618039
Si       5.63068581       2.48447940       4.91947663
Si       0.29302448       3.00813186       1.98887742
8
Lattice="5.2434870221659144 -1.2514176935075374 0.015268039355697175 -0.0402813096944597 4.772249362850214 0.24258310307557313 0.8025791221546488 2.0384317340178817 6.729974100482917" Properties=species:S:1:pos:R:3 unique_starting_index=84 config_type=initial n_minim_iter=12 stress="-0.011397677824537782 -0.0006077557866396876 0.0035761767414010937 -0.0006077557866396876 -0.01073920832790737 0.0049750469526557515 0.0035761767414010937 0.0049750469526557515 -0.0007824569943983827" pbc="T T T"
Si       3.75109934       1.81207218       0.18494934
Si       2.25468550       3.74719122       6.80287591
Si       3.75075688      -0.58835599       0.01442015
Si       2.25502795       6.14761939       6.97340509
Si       0.52427949       6.22758803       5.14637480
Si       5.48150535      -0.66832462       1.84145044
Si       5.67927706       2.57044564       4.97780587
Si       0.32650778       2.98881777       2.01001937
8
Lattice="5.306293442094659 -1.2404861981437687 0.00936958390434612 -0.025262931676854977 4.774107722539852 0.19647602923901245 0.8028536944406454 1.9850159199325106 6.685511409129292" Properties=species:S:1:pos:R:3 unique_starting_index=84 config_type=initial n_minim_iter=13 stress="0.015334925569303434 -0.0018905861459529035 0.0031785716439005967 -0.0018905861459529035 -0.003957813969433621 -0.006140617347640107 0.0031785716439005967 -0.006140617347640107 0.004343733193328347" pbc="T T T"
Si       3.79419677       1.79692972       0.14257479
Si       2.28968744       3.72170772       6.74878224
Si       3.78348706      -0.57591550       0.01357697
Si       2.30039714       6.09455294       6.87778005
Si       0.53395532       6.17890151       5.07767809
Si       5.54992889      -0.66026406       1.81367893
Si       5.75354909       2.56418621       4.93209504
Si       0.33033511       2.95445123       1.95926198
8
Lattice="5.293130801375214 -1.2072732610135912 -0.024073177770883913 0.0057706556744435466 4.784814552528981 0.2274002528970337 0.7817242018145568 2.0367942640286754 6.695973046064503" Properties=species:S:1:pos:R:3 unique_starting_index=84 config_type=initial n_minim_iter=14 stress="0.005361089150388204 0.003486404209555607 -0.001114807580863186 0.003486404209555607 0.004189469285289759 0.000208910760867212 -0.001114807580863186 0.000208910760867212 0.0037295753517474256" pbc="T T T"
Si       3.79263460       1.82033097       0.13191784
Si       2.28799106       3.79400458       6.76738228
Si       3.77071483      -0.54572956      -0.00704934
Si       2.30991083       6.16006512       6.90634946
Si       0.54114993       6.22583042       5.12386936
Si       5.53947572      -0.61149486       1.77543077
Si       5.74992468       2.64884765       4.93302777
Si       0.33070098       2.96548790       1.96627235
8
Lattice="5.274782379752923 -1.2383217669437478 -0.04373026349021695 -0.02470922406548197 4.794948742159632 0.23960119376459765 0.7433655971806017 2.05359278951206 6.708740265103757" Properties=species:S:1:pos:R:3 unique_starting_index=84 config_type=initial n_minim_iter=15 stress="-0.011619053879594244 -0.0006538099704122888 -0.0047772038262034345 -0.0006538099704122888 0.009402771623261875 0.0019805092377967585 -0.0047772038262034345 0.0019805092377967585 0.0028022519655920373" pbc="T T T"
Si       3.75242033       1.77759379       0.11641006
Si       2.24101842       3.83262597       6.78820113
Si       3.76891670      -0.59511575      -0.01431256
Si       2.22452205       6.20533551       6.91892376
Si       0.46145264       6.26392715       5.13853261
Si       5.53198611      -0.65370739       1.76607858
Si       5.69100719       2.64554173       4.95359847
Si       0.30243156       2.96467803       1.95101273
8
Lattice="5.296713277275049 -1.2321716967902911 -0.04956213740285055 -0.01923650342557705 4.78360433542904 0.24240951737267893 0.7428605265895023 2.054258667546444 6.688449712356536" Properties=species:S:1:pos:R:3 unique_starting_index=84 config_type=initial n_minim_iter=16 stress="-0.005028647726587859 -0.00011204957726199107 -0.004373122962160111 -0.00011204957726199107 0.0031580679383136443 0.0012806483076152158 -0.004373122962160111 0.0012806483076152158 -0.002351480599362728" pbc="T T T"
Si       3.76833245       1.78144682       0.11046900
Si       2.25200485       3.82424448       6.77082809
Si       3.78028699      -0.59649939      -0.01827117
Si       2.24005031       6.20219069       6.89956827
Si       0.44506269       6.26889775       5.13218108
Si       5.57527461      -0.66320644       1.74911602
Si       5.72817707       2.65215644       4.95312581
Si       0.29216023       2.95353486       1.92817129
8
Lattice="5.307231820715526 -1.2251366083267436 -0.033344866201269384 -0.011971275228210133 4.776813982636457 0.2401839699787235 0.766867036359726 2.0478455085060694 6.6881709721221085" Properties=species:S:1:pos:R:3 unique_starting_index=84 config_type=initial n_minim_iter=17 stress="0.0005735618105707676 0.00010390075031003378 -0.0007638291990554345 0.00010390075031003378 -0.000635459864472001 -0.0005356069089006558 -0.0007638291990554345 -0.0005356069089006558 -0.000593259378908431" pbc="T T T"
Si       3.77765760       1.78492372       0.11588239
Si       2.28446998       3.81459916       6.77912769
Si       3.78658278      -0.60133878      -0.00643417
Si       2.27554480       6.20086166       6.90144424
Si       0.44853510       6.27543391       5.13079630
Si       5.61359248      -0.67591103       1.76421378
Si       5.76859587       2.65810079       4.98485520
Si       0.29353171       2.94142209       1.91015488
8
Lattice="5.303393772933422 -1.2242017013313484 -0.021576237375387643 -0.010443644796577072 4.778701225014393 0.24636217966589302 0.7823299247808518 2.0550923037773225 6.700405397438217" Properties=species:S:1:pos:R:3 unique_starting_index=84 config_type=initial n_minim_iter=18 stress="0.0005184074818435286 3.2242801678672054e-06 0.0018593278264868382 3.2242801678672054e-06 -0.0004915285973007545 0.0002107743294051118 0.0018593278264868382 0.0002107743294051118 0.0012059217990642056" pbc="T T T"
Si       3.77830261       1.79175823       0.12505969
Si       2.29697745       3.81783360       6.80013165
Si       3.78290600      -0.60425726       0.00296162
Si       2.29237406       6.21384909       6.92222972
Si       0.45525619       6.29291381       5.14258251
Si       5.62002386      -0.68332198       1.78260883
Si       5.77481288       2.67197663       5.00785795
Si       0.30046717       2.93761520       1.91733339
8
Lattice="5.301189946156502 -1.2272211739552357 -0.03156225469878889 -0.013164180166247519 4.783894167443734 0.24965271344490558 0.7693916270807595 2.0620409025938273 6.702923531593616" Properties=species:S:1:pos:R:3 unique_starting_index=84 config_type=initial n_minim_iter=19 stress="3.033093899198157e-05 -0.0008927417317483744 0.000595122453867385 -0.0008927417317483744 0.0025746867197159093 0.0011770452080858643 0.000595122453867385 0.0011770452080858643 -0.0001113632906003527" pbc="T T T"
Si       3.77488025       1.78730399       0.11580170
Si       2.28253714       3.83140990       6.80521230
Si       3.78154006      -0.60876026      -0.00048699
Si       2.27587733       6.22747416       6.92150098
Si       0.44434562       6.30648269       5.14438562
Si       5.61307178      -0.68776879       1.77662837
Si       5.75325667       2.68999930       4.99516450
Si       0.30416072       2.92871459       1.92584949
8
Lattice="5.294450027798362 -1.2172697684416451 -0.03503574452294002 -0.005079785633391435 4.779271498274789 0.24192431901956588 0.7665198693804302 2.0518300649805252 6.701883880504834" Properties=species:S:1:pos:R:3 unique_starting_index=84 config_type=initial n_minim_iter=20 stress="-0.0032279866177735515 -0.0002796795810657246 0.00022973325817604072 -0.0002796795810657246 -0.0015100865298480236 -0.00047036584598801026 0.00022973325817604072 -0.00047036584598801026 -0.0006838326638214329" pbc="T T T"
Si       3.77462205       1.79078881       0.10763049
Si       2.28126806       3.82304298       6.80114196
Si       3.77795294      -0.60364613      -0.00277425
Si       2.27793717       6.21747793       6.91154671
Si       0.44772866       6.30138584       5.13628205
Si       5.60816145      -0.68755404       1.77249040
Si       5.74661878       2.69862875       4.98672732
Si       0.30927133       2.91520305       1.92204513
8
Lattice="5.297185832037685 -1.2134100945501667 -0.03827437956155644 -0.0014291271344745637 4.77862235170087 0.24352633683459196 0.7650900467036417 2.0542819473310407 6.704478706355538" Properties=species:S:1:pos:R:3 unique_starting_index=84 config_type=initial n_minim_iter=21 stress="-0.0007686408060068751 -4.490393977146068e-05 9.03738460323901e-05 -4.490393977146068e-05 -0.0016957776777265148 -7.663735238232691e-05 9.03738460323901e-05 -7.663735238232691e-05 -9.140007456285227e-05" pbc="T T T"
Si       3.77850164       1.79027069       0.10543279
Si       2.28234511       3.82922352       6.80429788
Si       3.78147968      -0.60372105      -0.00484937
Si       2.27936707       6.22321526       6.91458003
Si       0.44840105       6.30734230       5.13950330
Si       5.61244570      -0.68784810       1.77022737
Si       5.74927330       2.70818033       4.98763775
Si       0.31157346       2.91131387       1.92209291
