14
Lattice="5.375154632089282 0.23407674827478298 0.8529994007232583 2.849739800895031 6.302863507029216 -0.58603148053875 1.0554785567889007 1.1208288239667121 9.004827048668739" Properties=species:S:1:pos:R:3 unique_starting_index=86 config_type=initial n_minim_iter=1 energy=-2283.638522042425 free_energy=-2283.638522042425 pbc="T T T"
Si       5.62140809       3.47002807       7.00850196
Si       5.49855612       1.28436035       4.34744837
Si       4.46496578       3.73861070       3.35110391
Si       6.32634887       2.75007613       3.04136579
Si       4.79825572       4.13346717       8.94533179
Si       2.19929753       1.73576357       0.63771379
Si       3.31728090       5.32074593       2.38427269
Si       7.58907569       2.62090191       7.40052615
Si       2.92507738       3.28976950       1.90846570
Si       5.21097531       5.52867474       7.39222059
Si       2.42609579       1.29753849       8.44875923
Si       6.80467506       4.70044000       3.74946587
Si       4.29054692       2.75192663       5.38156712
Si       3.52307671       6.81197051       0.87135721
14
Lattice="5.375614409035396 0.23436957525005503 0.8526125186584793 2.8503510844870044 6.303939380683885 -0.5862131484844866 1.0548606445314923 1.1212037439564253 9.005487425944926" Properties=species:S:1:pos:R:3 unique_starting_index=86 config_type=initial n_minim_iter=2 stress="0.001022521768056191 0.00013174194222468212 -6.02120122362784e-06 0.00013174194222468212 0.0013296077457401673 -6.519115238233945e-06 -6.02120122362784e-06 -6.519115238233945e-06 0.0009618451914016074" pbc="T T T"
Si       5.62155437       3.47090124       7.00863751
Si       5.49876000       1.28493102       4.34734180
Si       4.46527404       3.73948780       3.35106879
Si       6.32683922       2.75081962       3.04111411
Si       4.79815140       4.13441589       8.94577379
Si       2.19946732       1.73611767       0.63757761
Si       3.31768096       5.32174578       2.38421584
Si       7.58930296       2.62176061       7.40052201
Si       2.92532368       3.29045445       1.90839360
Si       5.21107637       5.52996665       7.39242423
Si       2.42568538       1.29798816       8.44924416
Si       6.80517125       4.70145484       3.74930324
Si       4.29066203       2.75260595       5.38169383
Si       3.52367705       6.81319668       0.87135408
14
Lattice="5.374293526505483 0.23516306401011494 0.8501751952263745 2.8509421269985524 6.303565926391889 -0.5867103350412545 1.0510224166322277 1.1220414673556793 9.003122245879963" Properties=species:S:1:pos:R:3 unique_starting_index=86 config_type=initial n_minim_iter=3 stress="4.461645772625944e-06 0.0001128990818721227 -0.0011355321387155708 0.0001128990818721227 -0.00011681417565444646 -9.092479369626512e-05 -0.0011355321387155708 -9.092479369626512e-05 -0.0004506427717568363" pbc="T T T"
Si       5.61843251       3.47170882       7.00493380
Si       5.49598695       1.28638692       4.34395366
Si       4.46356918       3.74040613       3.34884109
Si       6.32488373       2.75156464       3.03798505
Si       4.79409741       4.13495182       8.94260344
Si       2.19837218       1.73614714       0.63644775
Si       3.31708471       5.32182789       2.38220706
Si       7.58519634       2.62308064       7.39589012
Si       2.92411705       3.29086543       1.90669226
Si       5.20754869       5.53148109       7.38869995
Si       2.42203244       1.29889386       8.44633351
Si       6.80255257       4.70148343       3.74627198
Si       4.28830454       2.75312531       5.37900505
Si       3.52390370       6.81320122       0.87131664
14
Lattice="5.374359692085307 0.23539254382972047 0.8522170147710747 2.850764796213448 6.304042927438062 -0.585209877158974 1.054154419225925 1.123004364912269 9.005059979519583" Properties=species:S:1:pos:R:3 unique_starting_index=86 config_type=initial n_minim_iter=4 stress="-0.00044386308509777167 -0.0002103275382221705 0.0002102447903009953 -0.0002103275382221705 0.000398471104286199 0.0004937184346285002 0.0002102447903009953 0.0004937184346285002 -3.918555003412902e-05" pbc="T T T"
Si       5.62100177       3.47272873       7.00837467
Si       5.49720973       1.28729781       4.34656445
Si       4.46476084       3.74142556       3.35143530
Si       6.32581138       2.75213871       3.04090708
Si       4.79714565       4.13589952       8.94632414
Si       2.19803313       1.73636693       0.63729944
Si       3.31790159       5.32242990       2.38400737
Si       7.58759227       2.62406954       7.39999836
Si       2.92438876       3.29152206       1.90801879
Si       5.20983017       5.53300585       7.39204068
Si       2.42503412       1.29985941       8.44867636
Si       6.80352655       4.70188761       3.74989636
Si       4.29032480       2.75373278       5.38171297
Si       3.52455170       6.81413677       0.87389558
14
Lattice="5.375206020362455 0.2357171731592981 0.8524957642679831 2.8517163264562497 6.3036021687717065 -0.5860503198194114 1.0548313125456623 1.1216277182599013 9.005588773533068" Properties=species:S:1:pos:R:3 unique_starting_index=86 config_type=initial n_minim_iter=5 stress="0.0004331019374115671 0.00018765301740211239 0.00025269195059875627 0.00018765301740211239 -0.0006076515759582932 -0.0005878931741314135 0.00025269195059875627 -0.0005878931741314135 0.0003012695667834345" pbc="T T T"
Si       5.62261479       3.47183948       7.00867250
Si       5.49826353       1.28699561       4.34689449
Si       4.46593147       3.74106159       3.35136600
Si       6.32711679       2.75193613       3.04097590
Si       4.79870398       4.13435288       8.94654223
Si       2.19831357       1.73633407       0.63702699
Si       3.31886089       5.32161201       2.38352170
Si       7.58935150       2.62325913       7.40050371
Si       2.92507151       3.29120641       1.90761926
Si       5.21126999       5.53167608       7.39193820
Si       2.42596913       1.29871022       8.44926074
Si       6.80506784       4.70110861       3.74991932
Si       4.29161803       2.75284460       5.38195085
Si       3.52591366       6.81364026       0.87334522
14
Lattice="5.374762071758435 0.236943965924135 0.8508461863407984 2.852875018766003 6.305694526664042 -0.5852109859657548 1.0525497092047023 1.1241760199731936 9.002915565453321" Properties=species:S:1:pos:R:3 unique_starting_index=86 config_type=initial n_minim_iter=6 stress="0.00029870604013893627 -1.8662425327662256e-05 -9.267558916963874e-05 -1.8662425327662256e-05 0.00029341729717768765 -4.341786689095214e-06 -9.267558916963874e-05 -4.341786689095214e-06 -0.00025346996429511206" pbc="T T T"
Si       5.62235622       3.47618706       7.00634459
Si       5.49652471       1.28925334       4.34404350
Si       4.46542291       3.74528913       3.35000629
Si       6.32615650       2.75484457       3.03881624
Si       4.79742931       4.13739186       8.94264116
Si       2.19696852       1.73847974       0.63496241
Si       3.31760895       5.32327209       2.38331852
Si       7.58812006       2.62638617       7.39697068
Si       2.92422552       3.29375377       1.90555000
Si       5.20843322       5.53487627       7.38952368
Si       2.42430666       1.30201570       8.44707006
Si       6.80447939       4.70284069       3.74930403
Si       4.29188004       2.75449922       5.38043886
Si       3.52844289       6.81742475       0.87521311
14
Lattice="5.372997769786207 0.238769688436757 0.8500343890868403 2.8539937668453157 6.306984727345601 -0.5844609653926132 1.0506495947118493 1.1267932137950238 9.005816892983532" Properties=species:S:1:pos:R:3 unique_starting_index=86 config_type=initial n_minim_iter=7 stress="-0.0014663514467837346 0.0007118041945624092 -0.00032939655808187203 0.0007118041945624092 0.00011370025127363386 -8.765540127475808e-05 -0.00032939655808187203 -8.765540127475808e-05 0.0012507451801850374" pbc="T T T"
Si       5.62187621       3.48063435       7.00865603
Si       5.49390645       1.29117970       4.34384215
Si       4.46440088       3.74948305       3.35074818
Si       6.32362995       2.75824228       3.03901875
Si       4.79567236       4.13975669       8.94471080
Si       2.19570897       1.74196740       0.63297562
Si       3.31554290       5.32549576       2.38512706
Si       7.58590538       2.62987016       7.39846679
Si       2.92306367       3.29558215       1.90439585
Si       5.20486163       5.53886953       7.39197129
Si       2.42258903       1.30447608       8.45022093
Si       6.80299472       4.70468888       3.75198899
Si       4.29196677       2.75609804       5.38282804
Si       3.53117558       6.81991481       0.87809304
14
Lattice="5.375010619065748 0.23834938443025216 0.8497593264134626 2.854433678754422 6.3068681926406605 -0.5833931371650377 1.0508127012867565 1.12807985407115 9.00347063456144" Properties=species:S:1:pos:R:3 unique_starting_index=86 config_type=initial n_minim_iter=8 stress="0.0011449862204956735 -0.00040029914286515976 -0.00017136508929559765 -0.00040029914286515976 -0.0004192265824114288 0.0006258925807543687 -0.00017136508929559765 0.0006258925807543687 0.00029756473468990445" pbc="T T T"
Si       5.62437684       3.48156833       7.00733366
Si       5.49570899       1.29096922       4.34236446
Si       4.46539713       3.75048490       3.35010464
Si       6.32546909       2.75821751       3.03845162
Si       4.79718667       4.14005963       8.94242072
Si       2.19574181       1.74309382       0.63206552
Si       3.31519859       5.32579808       2.38540905
Si       7.58889164       2.62989832       7.39676741
Si       2.92354847       3.29583618       1.90349370
Si       5.20517296       5.53994066       7.39064308
Si       2.42344320       1.30516073       8.44842196
Si       6.80504655       4.70411951       3.75246804
Si       4.29404772       2.75602577       5.38215808
Si       3.53282186       6.82014957       0.87945169
14
Lattice="5.37417834008464 0.23940774298514703 0.8492965574113048 2.8552127927250748 6.312231575365775 -0.5844168108872954 1.0511728563338694 1.1269362230434263 8.99699048896603" Properties=species:S:1:pos:R:3 unique_starting_index=86 config_type=initial n_minim_iter=9 stress="0.00014523884343130424 5.186257420359899e-06 0.0001021918827921821 5.186257420359899e-06 0.001613361300920897 -0.0006622569836665074 0.0001021918827921821 -0.0006622569836665074 -0.0007242553912901029" pbc="T T T"
Si       5.62606938       3.48420441       7.00214914
Si       5.49506876       1.29152890       4.33854723
Si       4.46488558       3.75464262       3.34622357
Si       6.32453603       2.76099189       3.03573523
Si       4.79828839       4.14059470       8.93460435
Si       2.19382755       1.74689293       0.62942068
Si       3.31365436       5.32952223       2.38300992
Si       7.58942052       2.63072510       7.39141449
Si       2.92338794       3.29894349       1.90035192
Si       5.20358296       5.54431917       7.38423123
Si       2.42391561       1.30343613       8.44333160
Si       6.80505552       4.70696040       3.75092624
Si       4.29567297       2.75656794       5.37897115
Si       3.53598030       6.82588297       0.87790706
14
Lattice="5.374247857975988 0.24100869980676226 0.849094740111492 2.856862795398748 6.3122277572347 -0.5826127466094836 1.0507690163771894 1.1301324471854184 8.998717317581606" Properties=species:S:1:pos:R:3 unique_starting_index=86 config_type=initial n_minim_iter=10 stress="0.00034355357217760073 0.00021953143216231022 -1.5799454859623202e-05 0.00021953143216231022 0.0003460034400616949 0.00031513446544544456 -1.5799454859623202e-05 0.00031513446544544456 0.000500602307946569" pbc="T T T"
Si       5.62814521       3.48854246       7.00436763
Si       5.49519992       1.29402685       4.33850141
Si       4.46497873       3.75757562       3.34663646
Si       6.32445610       2.76381907       3.03679203
Si       4.79976006       4.14334028       8.93592463
Si       2.19194379       1.74954727       0.62783359
Si       3.31277069       5.33035452       2.38506780
Si       7.59071585       2.63396328       7.39310756
Si       2.92363355       3.30095001       1.90105943
Si       5.20230803       5.54862058       7.38672769
Si       2.42400333       1.30544230       8.44594086
Si       6.80595502       4.70838611       3.75466033
Si       4.29757247       2.75828055       5.38160421
Si       3.54008155       6.82625412       0.88049444
14
Lattice="5.374319773573732 0.24070767924422368 0.8487335111508431 2.8566498573001686 6.314627426733391 -0.5836652571407183 1.0504466832681343 1.129000226060547 8.996939268823947" Properties=species:S:1:pos:R:3 unique_starting_index=86 config_type=initial n_minim_iter=11 stress="0.00012310599910166813 -0.000478680667626906 -9.6444371734033e-06 -0.000478680667626906 0.00038929937772111503 -0.00021172473215194928 -9.6444371734033e-06 -0.00021172473215194928 0.0004603400698733785" pbc="T T T"
Si       5.62996449       3.49037051       7.00295774
Si       5.49565241       1.29382458       4.33643290
Si       4.46398762       3.75864260       3.34371219
Si       6.32446195       2.76537641       3.03585924
Si       4.80083129       4.14196960       8.93254027
Si       2.18858489       1.75366699       0.62435782
Si       3.31041731       5.33201504       2.38303652
Si       7.59224880       2.63193472       7.39175573
Si       2.92170667       3.30182236       1.89934207
Si       5.19895222       5.54942407       7.38363984
Si       2.42460846       1.30323805       8.44568969
Si       6.80493927       4.70758131       3.75619025
Si       4.29929910       2.75740052       5.38192751
Si       3.54282031       6.82699625       0.87964076
14
Lattice="5.375127362662337 0.24279575427803382 0.8488550894488642 2.859332245802015 6.316227325406956 -0.5829638850966162 1.051586460418766 1.12999481416164 8.994510510748421" Properties=species:S:1:pos:R:3 unique_starting_index=86 config_type=initial n_minim_iter=12 stress="0.0005678684677263983 0.001066790607302075 0.0004616505612058137 0.001066790607302075 0.0004021625472897667 0.0002547386176483401 0.0004616505612058137 0.0002547386176483401 -0.0007131268420562711" pbc="T T T"
Si       5.63337520       3.49413514       7.00173453
Si       5.49757848       1.29653138       4.33507807
Si       4.46594153       3.76064189       3.34247243
Si       6.32599128       2.76815827       3.03567920
Si       4.80404421       4.14418742       8.93056007
Si       2.18802726       1.75653131       0.62292257
Si       3.31207382       5.33378674       2.38253792
Si       7.59545119       2.63472894       7.39071310
Si       2.92296634       3.30342489       1.89872219
Si       5.20079924       5.55205281       7.38172883
Si       2.42649131       1.30433109       8.44396656
Si       6.80743697       4.71038393       3.75742181
Si       4.30200170       2.75936143       5.38171575
Si       3.54713922       6.82842479       0.88037012
14
Lattice="5.374375648880577 0.24148651248171493 0.8479055257349968 2.8578252174449763 6.315906987832931 -0.5849125297890077 1.049293954400866 1.128149780860613 8.99678828843394" Properties=species:S:1:pos:R:3 unique_starting_index=86 config_type=initial n_minim_iter=13 stress="-0.000142902209495721 -0.0002542285624753719 0.00014577063784237978 -0.0002542285624753719 -8.13541445252267e-05 -0.00020973018440113432 0.00014577063784237978 -0.00020973018440113432 0.00013514100310947096" pbc="T T T"
Si       5.63225708       3.49323835       7.00223137
Si       5.49680966       1.29509031       4.33406039
Si       4.46334779       3.75862672       3.34046972
Si       6.32346804       2.76593438       3.03480969
Si       4.80133465       4.14090073       8.93200832
Si       2.18462223       1.75927616       0.61955844
Si       3.30837728       5.33217152       2.38114428
Si       7.59391795       2.63056617       7.39169335
Si       2.92081309       3.30282260       1.89733137
Si       5.19515276       5.54934155       7.38089905
Si       2.42529900       1.30167412       8.44621939
Si       6.80454000       4.70794908       3.75895810
Si       4.30106902       2.75741314       5.38348349
Si       3.54735453       6.82722828       0.87916003
14
Lattice="5.374305288603073 0.24486264921620673 0.8452221319409305 2.861832867512035 6.316676645415983 -0.5838228736628641 1.0452202513559075 1.1324051343281767 8.997312339295187" Properties=species:S:1:pos:R:3 unique_starting_index=86 config_type=initial n_minim_iter=14 stress="-0.0006317193114912543 0.0003348966039293666 -0.00013471750394555506 0.0003348966039293666 -0.00047280140997483486 3.360743906879402e-05 -0.00013471750394555506 3.360743906879402e-05 0.00031498428126840806" pbc="T T T"
Si       5.63515111       3.50098014       7.00127715
Si       5.49761383       1.29859432       4.33141975
Si       4.46182499       3.76004093       3.33730758
Si       6.32441135       2.77040744       3.03145255
Si       4.80064011       4.14745506       8.93384710
Si       2.17779604       1.76739337       0.61252264
Si       3.30634324       5.33460577       2.38135885
Si       7.59461619       2.63482885       7.39211208
Si       2.91908336       3.30520671       1.89599271
Si       5.18875501       5.55360406       7.37983135
Si       2.42496986       1.30473683       8.44533900
Si       6.80564248       4.71174938       3.76292752
Si       4.30221784       2.76254343       5.38609166
Si       3.55600269       6.82929480       0.88129617
14
Lattice="5.378068053609038 0.24586266324594008 0.8431792143291863 2.865014344571548 6.317630582484135 -0.5827691313773307 1.043680728687341 1.1347023436624548 8.990786768086387" Properties=species:S:1:pos:R:3 unique_starting_index=86 config_type=initial n_minim_iter=15 stress="-3.4033617779631275e-05 0.0002010842595618718 -0.00025046733171009135 0.0002010842595618718 3.6899414355203388e-06 6.395603987705525e-05 -0.00025046733171009135 6.395603987705525e-05 3.997889846480655e-06" pbc="T T T"
Si       5.64184610       3.50405579       6.99551135
Si       5.50202158       1.30060496       4.32782230
Si       4.46401252       3.75921008       3.33280389
Si       6.32775438       2.77406963       3.02837576
Si       4.80288478       4.15153416       8.92921275
Si       2.17432385       1.77392866       0.60488094
Si       3.30599276       5.33511582       2.37947734
Si       7.60063811       2.63573923       7.38798058
Si       2.91901104       3.30672851       1.89329011
Si       5.18626610       5.55617964       7.37397951
Si       2.42766500       1.30526185       8.43805754
Si       6.81081853       4.71173255       3.76259913
Si       4.30581475       2.76541923       5.38400676
Si       3.56327774       6.83117265       0.88125327
14
Lattice="5.378848385732612 0.24773084932613132 0.8420375942559127 2.867874212352402 6.31812076527457 -0.5837296024549005 1.0427028439244928 1.1341235283417108 8.988476354195642" Properties=species:S:1:pos:R:3 unique_starting_index=86 config_type=initial n_minim_iter=16 stress="8.816727860111888e-05 3.2018143874538806e-05 -0.0001223756650539577 3.2018143874538806e-05 0.0001409387078257936 2.470572311626422e-05 -0.0001223756650539577 2.470572311626422e-05 8.115448499450527e-05" pbc="T T T"
Si       5.64574772       3.50457662       6.99402667
Si       5.50307918       1.30380309       4.32720667
Si       4.46379080       3.75878755       3.33065897
Si       6.32855278       2.77439423       3.02700501
Si       4.80418885       4.15256762       8.92598236
Si       2.17203098       1.77935416       0.59813113
Si       3.30713624       5.33615387       2.37733350
Si       7.60274101       2.63700461       7.38705902
Si       2.91826562       3.30635014       1.89238058
Si       5.18443093       5.55634341       7.37051224
Si       2.42988121       1.30363195       8.43573266
Si       6.81412808       4.71148820       3.76107553
Si       4.30699816       2.76622486       5.38240621
Si       3.56847303       6.83294907       0.87925223
14
Lattice="5.379196068509748 0.24770090361678596 0.8406823827742727 2.868244061534462 6.31703235651356 -0.5838901735283243 1.0406864092180799 1.1345508790160825 8.98714995020448" Properties=species:S:1:pos:R:3 unique_starting_index=86 config_type=initial n_minim_iter=17 stress="0.0005204842110697943 -0.0002983712880622651 0.00010708477498460285 -0.0002983712880622651 0.0004665252287128108 -9.617204358594058e-05 0.00010708477498460285 -9.617204358594058e-05 0.00021677824344178072" pbc="T T T"
Si       5.64798373       3.50367261       6.99458960
Si       5.50255742       1.30408652       4.32829312
Si       4.46171110       3.75657665       3.32956092
Si       6.32703924       2.77344750       3.02545331
Si       4.80314476       4.15245616       8.92473737
Si       2.16610049       1.78499130       0.59052157
Si       3.30542129       5.33686362       2.37461866
Si       7.60382744       2.63690894       7.38798419
Si       2.91765662       3.30520519       1.89110401
Si       5.17925620       5.55469699       7.36649977
Si       2.43228819       1.30243066       8.43511772
Si       6.81494659       4.70948384       3.76050584
Si       4.30612850       2.76594331       5.38171935
Si       3.57234145       6.83270208       0.87787209
14
Lattice="5.380129047494052 0.25223089205793675 0.8362869567676097 2.8741943210956684 6.31619799405173 -0.581547564822258 1.0348565718631646 1.1409798209639896 8.982828073039437" Properties=species:S:1:pos:R:3 unique_starting_index=86 config_type=initial n_minim_iter=18 stress="0.0005952171460915278 3.723906955376164e-05 0.00028141554231010045 3.723906955376164e-05 0.0005696280998002133 0.0004547264796019708 0.00028141554231010045 0.0004547264796019708 0.0003892391177724561" pbc="T T T"
Si       5.65336037       3.51022333       6.99445518
Si       5.50191347       1.31096431       4.32726116
Si       4.45975969       3.75847372       3.32718208
Si       6.32729628       2.77850369       3.02081548
Si       4.80311422       4.16020030       8.92035699
Si       2.15470404       1.80207222       0.57687951
Si       3.30418476       5.33785120       2.37063113
Si       7.60748175       2.64622437       7.38802271
Si       2.91667480       3.30670764       1.88787052
Si       5.17058122       5.55913687       7.35749543
Si       2.43564966       1.30386785       8.43073312
Si       6.81930908       4.71264191       3.75983678
Si       4.30547427       2.77096949       5.38053216
Si       3.58516746       6.83421184       0.87905136
14
Lattice="5.3836371423032485 0.26282250263112583 0.8183667528481804 2.8898917203664363 6.321061214349808 -0.5795052167403587 1.010867790979121 1.1560169126810496 8.958946857486666" Properties=species:S:1:pos:R:3 unique_starting_index=86 config_type=initial n_minim_iter=19 stress="0.004255578262592947 0.002659826770324843 -0.0013385188950879332 0.002659826770324843 0.005445146666906656 0.0019298190107655115 -0.0013385188950879332 0.0019298190107655115 0.0037887427167252147" pbc="T T T"
Si       5.66592516       3.52790532       6.97912744
Si       5.50197609       1.32469102       4.30709823
Si       4.45250851       3.76535501       3.30987459
Si       6.32407468       2.79350821       3.00212178
Si       4.79819405       4.18076852       8.89132524
Si       2.11382438       1.85538765       0.52751030
Si       3.29413901       5.34669844       2.35427206
Si       7.61743719       2.66859536       7.37482616
Si       2.90777812       3.31302346       1.87136604
Si       5.13458793       5.57295583       7.31423069
Si       2.44238486       1.30346076       8.40843132
Si       6.82684020       4.72113603       3.74963589
Si       4.30067477       2.78403392       5.37084385
Si       3.62374696       6.84747057       0.87608056
14
Lattice="5.384356927154913 0.2675153915840332 0.8110527026507759 2.8962998328765215 6.324005415545435 -0.5785880565569792 1.0018739559351442 1.1615946224331646 8.94393574208904" Properties=species:S:1:pos:R:3 unique_starting_index=86 config_type=initial n_minim_iter=20 stress="0.0042413769492483195 0.003778833340322481 -0.0017548862008686071 0.003778833340322481 0.008062517525435107 0.002526016826000987 -0.0017548862008686071 0.002526016826000987 0.0056055332594931945" pbc="T T T"
Si       5.67186245       3.53444561       6.96988574
Si       5.50191551       1.32925650       4.29700323
Si       4.44875008       3.76859189       3.30146945
Si       6.32274306       2.80034820       2.99351554
Si       4.79554243       4.18859293       8.87454022
Si       2.09369059       1.88123714       0.50199131
Si       3.29032407       5.35067950       2.34535552
Si       7.62368288       2.67931459       7.36828089
Si       2.90376535       3.31672857       1.86409917
Si       5.11896893       5.57796863       7.29020981
Si       2.44892676       1.30116989       8.39591703
Si       6.82916539       4.72593868       3.74331695
Si       4.29792572       2.78884924       5.36506783
Si       3.64053919       6.85371723       0.87413677
14
Lattice="5.384490506810991 0.2719707343114679 0.7850956276560954 2.9047310650275575 6.322112929533981 -0.579997719958848 0.9698402075863227 1.1688058997516495 8.875816180120063" Properties=species:S:1:pos:R:3 unique_starting_index=86 config_type=initial n_minim_iter=21 stress="-0.00033523060712459403 0.0054313525417966635 -0.000122796906285301 0.0054313525417966635 0.005188135953847032 0.003252428163577159 -0.000122796906285301 0.003252428163577159 0.004875004935283642" pbc="T T T"
Si       5.66677364       3.52408483       6.92114692
Si       5.49606919       1.32284239       4.25219228
Si       4.43633099       3.76630901       3.27402281
Si       6.31381406       2.80583455       2.96044761
Si       4.76672420       4.19469216       8.79431187
Si       2.02743732       1.94893335       0.42171605
Si       3.28297930       5.34897797       2.30854717
Si       7.63991409       2.70790467       7.33456431
Si       2.88744272       3.31461832       1.83860942
Si       5.07461387       5.57085085       7.18647914
Si       2.47193825       1.27819356       8.34283784
Si       6.82072390       4.73709072       3.69293017
Si       4.26779982       2.78670985       5.32988670
Si       3.66806756       6.86053392       0.85554703
