20
Lattice="9.383975166179669 0.5202296526271499 1.5402490476112551 -1.7489390466188464 8.831121802324464 -0.016385422342027445 -2.789166599758855 -3.693516952015841 5.910649004049145" Properties=species:S:1:pos:R:3 unique_starting_index=76 config_type=initial n_minim_iter=1 energy=-3270.7053948231583 free_energy=-3270.7053948231583 pbc="T T T"
Si       6.10556434       0.83172392       5.06968467
Si      -2.99566846      -0.23758407       5.57342383
Si       4.42195386       0.32501172       2.12444281
Si       0.42943827       2.94648023       1.63946903
Si       8.90010481       6.02407696       0.65880606
Si       4.73130659       2.43946238       4.89293146
Si      -3.73989919       7.52432842       3.97317230
Si      -1.44520926       0.77755139       4.50257744
Si       6.02697105      -0.37198750       3.35453521
Si      -0.96218642      -0.84789165       5.80697928
Si       4.19063993       0.46215053       4.23557848
Si       2.47695048       3.49628464       1.82116823
Si       1.57247024       2.91457101       3.64548660
Si      -1.37741275       2.75634445       5.36381694
Si       1.14860337       4.73757227       0.68884225
Si       0.81287641       4.70586233       2.79998633
Si       3.13316681       1.61765603       1.04551108
Si       3.52779909       2.12841850       3.10806578
Si       0.15774492       4.12614129       4.75542078
Si       0.28225104       5.87822020       5.94365816
20
Lattice="9.383998320336298 0.5202129654439496 1.5403559078940483 -1.7489634573752635 8.83110416993514 -0.01635384944997494 -2.7890913300782048 -3.693465954966687 5.910581357993121" Properties=species:S:1:pos:R:3 unique_starting_index=76 config_type=initial n_minim_iter=2 stress="2.738324840943323e-06 -5.37229598707447e-06 3.3801627917424295e-06 -5.37229598707447e-06 1.2428374935911252e-06 -2.166191189987212e-06 3.3801627917424295e-06 -2.166191189987212e-06 5.625614823886174e-07" pbc="T T T"
Si       6.10564965       0.83173810       5.06973247
Si      -2.99560010      -0.23751915       5.57340661
Si       4.42197587       0.32501019       2.12447442
Si       0.42945540       2.94649922       1.63945461
Si       8.90010096       6.02403210       0.65894846
Si       4.73134666       2.43947296       4.89300176
Si      -3.73988110       7.52434460       3.97313568
Si      -1.44517793       0.77758015       4.50257441
Si       6.02701231      -0.37199713       3.35459640
Si      -0.96211080      -0.84785988       5.80693927
Si       4.19069065       0.46219148       4.23561329
Si       2.47694509       3.49632140       1.82119215
Si       1.57248916       2.91456774       3.64557413
Si      -1.37732997       2.75640794       5.36378875
Si       1.14859959       4.73751278       0.68890129
Si       0.81285915       4.70586412       2.79999691
Si       3.13317631       1.61763754       1.04558423
Si       3.52786774       2.12839915       3.10809722
Si       0.15780214       4.12615456       4.75542523
Si       0.28229939       5.87822200       5.94368321
20
Lattice="9.383951125014512 0.5203138012061236 1.5403380025829132 -1.7488676122042794 8.8310550488565 -0.016289266671953993 -2.7891243371735843 -3.6934390547908227 5.910548316909873" Properties=species:S:1:pos:R:3 unique_starting_index=76 config_type=initial n_minim_iter=3 stress="-4.3335830502402144e-05 3.947942623846425e-05 -2.7213607983452373e-05 3.947942623846425e-05 -8.709758164004392e-05 4.379303602954781e-05 -2.7213607983452373e-05 4.379303602954781e-05 -6.438344942026153e-05" pbc="T T T"
Si       6.10563049       0.83184246       5.06969427
Si      -2.99560459      -0.23749839       5.57341295
Si       4.42195739       0.32505501       2.12445581
Si       0.42947787       2.94650763       1.63945393
Si       8.90011180       6.02410141       0.65897695
Si       4.73132619       2.43954191       4.89302010
Si      -3.73979542       7.52431198       3.97316679
Si      -1.44518642       0.77760727       4.50258800
Si       6.02696024      -0.37192823       3.35457386
Si      -0.96211102      -0.84785129       5.80690456
Si       4.19068231       0.46228310       4.23560482
Si       2.47695604       3.49635427       1.82122758
Si       1.57250454       2.91459959       3.64561614
Si      -1.37729272       2.75641204       5.36380255
Si       1.14864087       4.73752445       0.68890923
Si       0.81285117       4.70586200       2.80001241
Si       3.13315684       1.61767509       1.04561785
Si       3.52789177       2.12844607       3.10807168
Si       0.15785244       4.12618252       4.75543770
Si       0.28233881       5.87822118       5.94370828
