6
Lattice="3.4903511649561834 -0.6512133604472722 -0.4965808336089419 -0.6812851053861175 5.545869693316238 -0.3933409237353427 -0.08265946612104466 -3.1039125726105783 5.258003819758036" Properties=species:S:1:pos:R:3 unique_starting_index=70 config_type=initial n_minim_iter=1 energy=-976.9716972674479 free_energy=-976.9716972674479 pbc="T T T"
Si       1.15747285      -1.50638158       2.20034827
Si       3.24884473      -0.09880086       1.73767567
Si       1.87847677       1.97561175       1.77309267
Si       1.53561765       2.04608593       4.28698486
Si      -0.55575423       0.63850521       4.74965746
Si       0.81461373      -1.43590741       4.71424045
6
Lattice="3.4891907957136987 -0.6547281305632976 -0.49419225149773927 -0.6868231334632569 5.548187351908939 -0.3957524366900322 -0.07641012229333105 -3.10664219413781 5.2580548527329185" Properties=species:S:1:pos:R:3 unique_starting_index=70 config_type=initial n_minim_iter=2 stress="-1.1140876632648571e-05 -0.000662623520511615 -0.0001400845817256753 -0.000662623520511615 0.0006500505245884995 3.375643756958198e-05 -0.0001400845817256753 3.375643756958198e-05 -0.00042998982460391903" pbc="T T T"
Si       1.15993706      -1.50886549       2.20127450
Si       3.24878238      -0.10245095       1.73930788
Si       1.87610042       1.97405043       1.77275637
Si       1.53522320       2.04354293       4.28610730
Si      -0.55362212       0.63712839       4.74807391
Si       0.81905984      -1.43937299       4.71462542
6
Lattice="3.4878072134445235 -0.653714654676259 -0.4921640493937853 -0.6861355482405631 5.5447256118571655 -0.39799013693831226 -0.07373360017674715 -3.1062958384391752 5.261042343379168" Properties=species:S:1:pos:R:3 unique_starting_index=70 config_type=initial n_minim_iter=3 stress="-0.000507564196892664 -0.00023589748883610955 0.0002354127250319675 -0.00023589748883610955 -0.00030574207265199023 -0.00015884446207150237 0.0002354127250319675 -0.00015884446207150237 0.00019571709527485022" pbc="T T T"
Si       1.16091209      -1.50857555       2.20346167
Si       3.24923867      -0.10203363       1.74197426
Si       1.87591627       1.97315400       1.77343687
Si       1.53730747       2.04129067       4.28790223
Si      -0.55101911       0.63474876       4.74938965
Si       0.82230329      -1.44043887       4.71792704
6
Lattice="3.4910899909844755 -0.6513158208164803 -0.48960581262588043 -0.6835839386951276 5.544364254129496 -0.3998418375170338 -0.0722655460371535 -3.1076665134346713 5.261611295794288" Properties=species:S:1:pos:R:3 unique_starting_index=70 config_type=initial n_minim_iter=4 stress="0.0004222200012017538 0.00033408358185746276 0.0003729312973800791 0.00033408358185746276 -0.00011531677138418246 -0.000432066007205958 0.0003729312973800791 -0.000432066007205958 0.0013866725697387265" pbc="T T T"
Si       1.16353420      -1.50879519       2.20519914
Si       3.25579863      -0.09836155       1.74428528
Si       1.87667810       1.97637930       1.77198399
Si       1.54257951       2.04162466       4.28766957
Si      -0.54968493       0.63119102       4.74858343
Si       0.82943560      -1.44354982       4.72088472
6
Lattice="3.4907142829194857 -0.6508646059640791 -0.48947600213710235 -0.6828115506788456 5.543150399082257 -0.39827290718804303 -0.0728429004883084 -3.105933028277471 5.256663245587796" Properties=species:S:1:pos:R:3 unique_starting_index=70 config_type=initial n_minim_iter=5 stress="-0.00035111382055328836 0.00044521769204790225 9.940472846017948e-05 0.00044521769204790225 -0.0008260473656768102 -0.0004491486070115128 9.940472846017948e-05 -0.0004491486070115128 -0.00029963460000186976" pbc="T T T"
Si       1.16326433      -1.50781796       2.20318765
Si       3.25590441      -0.09691125       1.74274308
Si       1.87563057       1.97723860       1.77033300
Si       1.54243600       2.04231697       4.28443743
Si      -0.55020408       0.63141025       4.74488200
Si       0.83006976      -1.44273960       4.71729208
6
Lattice="3.491400084202529 -0.652086860844277 -0.49033411228377155 -0.6837216052078753 5.545306157064047 -0.39358506139040156 -0.07299226689257056 -3.1029418344902933 5.253251143591429" Properties=species:S:1:pos:R:3 unique_starting_index=70 config_type=initial n_minim_iter=6 stress="-7.386579686661978e-05 -5.6561985474174645e-05 -7.848946726339227e-05 -5.6561985474174645e-05 4.1216076763655014e-06 5.1532602576078445e-05 -7.848946726339227e-05 5.1532602576078445e-05 -0.00013936998313383565" pbc="T T T"
Si       1.16329574      -1.50632610       2.20155159
Si       3.25671725      -0.09517787       1.74195939
Si       1.87446132       1.97966810       1.77095033
Si       1.54197077       2.04595540       4.28511586
Si      -0.55145074       0.63480718       4.74470806
Si       0.83080518      -1.44003879       4.71571713
6
Lattice="3.4937862119414302 -0.6524856034432461 -0.4896283023129408 -0.6833397509324494 5.548162382055802 -0.3863608088091301 -0.07179755566187306 -3.098084883758907 5.24571052409539" Properties=species:S:1:pos:R:3 unique_starting_index=70 config_type=initial n_minim_iter=7 stress="0.0003874444506445304 -0.0006381678951710818 -0.00031769573383305834 -0.0006381678951710818 0.0011099575621795026 0.0007374238451713989 -0.00031769573383305834 0.0007374238451713989 0.00013441094708235051" pbc="T T T"
Si       1.16338518      -1.50068550       2.19867603
Si       3.26183759      -0.08828949       1.74141015
Si       1.87360344       1.98450385       1.77145335
Si       1.54632555       2.04958684       4.28534160
Si      -0.55212686       0.63719084       4.74260748
Si       0.83610729      -1.43560250       4.71256429
6
Lattice="3.496787833874297 -0.6472828499916997 -0.4812955062057367 -0.6779152802019992 5.544865110670369 -0.3912958920371268 -0.06499483245358027 -3.100466625801624 5.2414373943528085" Properties=species:S:1:pos:R:3 unique_starting_index=70 config_type=initial n_minim_iter=8 stress="-6.252848156996637e-05 2.1799862655023928e-05 0.00015176909795731902 2.1799862655023928e-05 -0.00019513086500162028 -3.6179498037529864e-05 0.00015176909795731902 -3.6179498037529864e-05 -2.142010736168707e-05" pbc="T T T"
Si       1.16404164      -1.49083652       2.19921738
Si       3.27354068      -0.07589906       1.74476220
Si       1.87700259       1.98567734       1.76985830
Si       1.56363976       2.03830164       4.28220254
Si      -0.54585928       0.62336418       4.73665772
Si       0.85067881      -1.43821222       4.71156163
6
Lattice="3.5153923831651332 -0.6248271566575011 -0.4825826269236841 -0.6410585656587452 5.566867439149804 -0.38737499515315865 -0.09405100576592935 -3.1151592989952137 5.213562483122718" Properties=species:S:1:pos:R:3 unique_starting_index=70 config_type=initial n_minim_iter=9 stress="0.0019545420222626536 0.0006077693240464757 -0.0007509665381906192 0.0006077693240464757 0.0016832735772274237 0.0006236850974487958 -0.0007509665381906192 0.0006236850974487958 0.0010601292995580304" pbc="T T T"
Si       1.15486138      -1.45245357       2.18079535
Si       3.29776732       0.00428045       1.72033089
Si       1.88114010       2.03339942       1.76695753
Si       1.58751395       2.02376212       4.26414839
Si      -0.55539199       0.56702810       4.72461284
Si       0.86123523      -1.46209087       4.67798621
6
Lattice="3.5248098945831274 -0.6109271553366108 -0.47625364430242334 -0.6200911880480785 5.575701299235295 -0.38888805148748384 -0.10146586749320916 -3.1241053036313944 5.194613517794891" Properties=species:S:1:pos:R:3 unique_starting_index=70 config_type=initial n_minim_iter=10 stress="0.0018591409781502687 0.0011166062268595134 -0.00037243553354003643 0.0011166062268595134 0.0009757018413056177 0.0002591307688616808 -0.00037243553354003643 0.0002591307688616808 0.0020172889007781455" pbc="T T T"
Si       1.15265761      -1.42439230       2.17079372
Si       3.31776457       0.05688867       1.71038787
Si       1.88198134       2.06243574       1.76475328
Si       1.60969917       2.00588300       4.25237955
Si      -0.55540779       0.52460203       4.71278540
Si       0.88037544      -1.48094504       4.65841999
6
Lattice="3.513762287318273 -0.6170360355468255 -0.4706621973262382 -0.6306584889982166 5.569495961885021 -0.3975286675682838 -0.08801945035382397 -3.127073472557537 5.193790207769874" Properties=species:S:1:pos:R:3 unique_starting_index=70 config_type=initial n_minim_iter=11 stress="-0.003537782335235597 -0.0008629654439874088 0.00037927962620713514 -0.0008629654439874088 -0.0015691248788580548 -0.000640358973422551 0.00037927962620713514 -0.000640358973422551 -0.002573733278235818" pbc="T T T"
Si       1.15708117      -1.42431808       2.16918763
Si       3.30845801       0.04853756       1.71384186
Si       1.87343482       2.06172950       1.76417253
Si       1.60252672       1.98933006       4.24978132
Si      -0.54885011       0.51647443       4.70512709
Si       0.88617308      -1.49671752       4.65479642
6
Lattice="3.533016815011393 -0.6041893453156081 -0.4691415484018916 -0.614160528715755 5.57577929539503 -0.4056607363011533 -0.10347600829294795 -3.141982809807849 5.172104592427302" Properties=species:S:1:pos:R:3 unique_starting_index=70 config_type=initial n_minim_iter=12 stress="-0.00044437730930043594 -0.0003066234896931507 0.0006919623631782095 -0.0003066234896931507 0.00010027118059855589 -0.0014512769954725805 0.0006919623631782095 -0.0014512769954725805 -0.001311928543808677" pbc="T T T"
Si       1.15791672      -1.37515452       2.14204158
Si       3.33048721       0.10040269       1.70045439
Si       1.88619741       2.11118623       1.76343713
Si       1.61575731       1.93837795       4.23988990
Si      -0.55681319       0.46282073       4.68147709
Si       0.88747662      -1.54796280       4.61849435
6
Lattice="3.536922643858251 -0.6093930977371271 -0.47506953711650746 -0.6244845930117684 5.5640453552062175 -0.40405921640386 -0.1058407230989867 -3.1337841926619756 5.175623685890751" Properties=species:S:1:pos:R:3 unique_starting_index=70 config_type=initial n_minim_iter=13 stress="-0.00020188166587217234 -0.0011968172111378452 0.0007640030385935648 -0.0011968172111378452 -0.00048486909893320643 -0.000384009358946828 0.0007640030385935648 -0.000384009358946828 -0.00036600749282455743" pbc="T T T"
Si       1.16222321      -1.36389194       2.13198642
Si       3.32651816       0.08537848       1.70441679
Si       1.89309036       2.12031701       1.76638070
Si       1.60171476       1.92168077       4.25055606
Si      -0.56258019       0.47241035       4.67812570
Si       0.87084761      -1.56252818       4.61616179
6
Lattice="3.5442614220805226 -0.6023810663210541 -0.47696828509558725 -0.6133722552791372 5.566926910932098 -0.3994787217483445 -0.11717969187135908 -3.133656173957435 5.160912336253727" Properties=species:S:1:pos:R:3 unique_starting_index=70 config_type=initial n_minim_iter=14 stress="0.0013942529621426324 0.0005517726305706095 0.000436405635890768 0.0005517726305706095 -0.00026795880923796635 -0.00014362334621240762 0.000436405635890768 -0.00014362334621240762 0.0007951284452681148" pbc="T T T"
Si       1.16192813      -1.33967338       2.11754420
Si       3.33554515       0.11542069       1.69727868
Si       1.89575073       2.14913235       1.76425784
Si       1.60455179       1.90753541       4.24703924
Si      -0.56906523       0.45244133       4.66730475
Si       0.87072919      -1.58127033       4.60032559
6
Lattice="3.5384669215668225 -0.602413726768033 -0.4865220913165763 -0.6076539427947902 5.5770940940225495 -0.38777179810774265 -0.13256766918688995 -3.131045005818696 5.149320531604838" Properties=species:S:1:pos:R:3 unique_starting_index=70 config_type=initial n_minim_iter=15 stress="0.0014637669145103162 0.0009024310775203814 -0.0010739028275662081 0.0009024310775203814 0.0033747729256652674 0.0012794340532179783 -0.0010739028275662081 0.0012794340532179783 0.0015722639178620708" pbc="T T T"
Si       1.15711243      -1.32772109       2.10378970
Si       3.32467130       0.13492865       1.69054282
Si       1.89079791       2.17294515       1.75426584
Si       1.58770116       1.90938125       4.24668295
Si      -0.57985771       0.44673151       4.65992982
Si       0.85401568      -1.59128499       4.59620680
6
Lattice="3.5285352647302153 -0.6079747875148793 -0.48810071862111515 -0.6151961486157245 5.5712475471816125 -0.38588672292883214 -0.127789719341157 -3.1248752579224783 5.155114829191429" Properties=species:S:1:pos:R:3 unique_starting_index=70 config_type=initial n_minim_iter=16 stress="-0.002382382716584031 -0.0008518138602396413 -0.0020359141123552473 -0.0008518138602396413 -0.001194688656446424 0.0011430943544438116 -0.0020359141123552473 0.0011430943544438116 9.603478529104711e-05" pbc="T T T"
Si       1.15661286      -1.34262933       2.10977479
Si       3.31224576       0.11905682       1.69773442
Si       1.88807597       2.15567010       1.74244051
Si       1.57743058       1.92153836       4.24913401
Si      -0.57820231       0.45985221       4.66117438
Si       0.84596747      -1.57676107       4.61646829
6
Lattice="3.5324897116238283 -0.6059309930155039 -0.47612449975318055 -0.6156079289705041 5.5693709525245865 -0.39423374210505896 -0.1139355081106356 -3.130630058340082 5.1466636221941835" Properties=species:S:1:pos:R:3 unique_starting_index=70 config_type=initial n_minim_iter=17 stress="-0.001955953507813036 -0.0006487180116812486 -0.000866184835989414 -0.0006487180116812486 0.00021323174738993892 -0.00040753577007217106 -0.000866184835989414 -0.00040753577007217106 0.00026307128731385134" pbc="T T T"
Si       1.16321182      -1.33148986       2.10620850
Si       3.32422289       0.12814421       1.70553084
Si       1.89927971       2.16081187       1.73647046
Si       1.59381248       1.90249180       4.24447201
Si      -0.56719859       0.44285774       4.64514967
Si       0.85774458      -1.58980993       4.61421005
6
Lattice="3.5408304240051875 -0.6039564048716044 -0.467639236549125 -0.616110282851573 5.5632666972547495 -0.3936477811696291 -0.10400578345200848 -3.1262833839366264 5.134642326663719" Properties=species:S:1:pos:R:3 unique_starting_index=70 config_type=initial n_minim_iter=18 stress="-0.0005313203469819425 0.00027462914097848396 3.061880662671621e-05 0.00027462914097848396 -0.0001035578131673526 -0.0006832540766207753 3.061880662671621e-05 -0.0006832540766207753 3.0872527441172605e-05" pbc="T T T"
Si       1.17141187      -1.32451118       2.10262142
Si       3.33728544       0.13440764       1.71083289
Si       1.91379182       2.16477435       1.73399011
Si       1.60738271       1.89748206       4.24026380
Si      -0.55849086       0.43856324       4.63205234
Si       0.86500276      -1.59180347       4.60889512
6
Lattice="3.5527695789445444 -0.6043066726527668 -0.46070123120644924 -0.6198159509696227 5.557648128262728 -0.3865385388146942 -0.0942822147048183 -3.116441530708823 5.116415985277904" Properties=species:S:1:pos:R:3 unique_starting_index=70 config_type=initial n_minim_iter=19 stress="0.0025698211766728373 -0.00023811566043150674 0.0007960864673293757 -0.00023811566043150674 0.0006001420651409259 -0.000519601148565943 0.0007960864673293757 -0.000519601148565943 -0.00020671172563379038" pbc="T T T"
Si       1.18385789      -1.32053901       2.09752520
Si       3.34998396       0.14024492       1.71255073
Si       1.93799154       2.17191049       1.73195682
Si       1.61681285       1.90134970       4.23383476
Si      -0.54931322       0.44056577       4.61880923
Si       0.86267920      -1.59109981       4.59940314
6
Lattice="3.5446728418204834 -0.6023165872744459 -0.4651072603194923 -0.6124277320562503 5.559137659992285 -0.37338566835904796 -0.10147476653456121 -3.1062378654535494 5.110224449832055" Properties=species:S:1:pos:R:3 unique_starting_index=70 config_type=initial n_minim_iter=20 stress="-0.0005717044619703206 0.0016270961864486833 -0.0003719721120473778 0.0016270961864486833 -0.0005638581299429337 0.001132386162013428 -0.0003719721120473778 0.001132386162013428 0.0004257139049236549" pbc="T T T"
Si       1.17826784      -1.31551275       2.09699940
Si       3.34320146       0.15219122       1.70356478
Si       1.93555166       2.18084865       1.73620177
Si       1.61160285       1.91411933       4.23442035
Si      -0.55333077       0.44641536       4.62785497
Si       0.85431904      -1.58224207       4.59521799
6
Lattice="3.5451457006611227 -0.6097054569910941 -0.4532528254294287 -0.6252077625791755 5.554024097899519 -0.3639492988945147 -0.07671376638771463 -3.0923203685646046 5.094386831941166" Properties=species:S:1:pos:R:3 unique_starting_index=70 config_type=initial n_minim_iter=21 stress="0.00016345073844178479 -0.0013650296219269696 0.0007332690099129647 -0.0013650296219269696 -0.000754699490270054 0.0015841099653255545 0.0007332690099129647 0.0015841099653255545 -0.00025448639935006306" pbc="T T T"
Si       1.19074695      -1.31485397       2.10294935
Si       3.35982300       0.14607503       1.70040989
Si       1.95077943       2.18676394       1.73284926
Si       1.62155755       1.92048510       4.22754020
Si      -0.54751850       0.45955609       4.63007967
Si       0.86152508      -1.58113281       4.59764030
