22
Lattice="5.402035348372733 0.2736076509904474 0.7010685096176058 2.8592916546375786 6.732507698024574 1.3102942066793897 2.8683880784349913 2.9398422048728734 15.443106075364856" Properties=species:S:1:pos:R:3 unique_starting_index=40 config_type=initial n_minim_iter=1 energy=-3591.7146410701507 free_energy=-3591.7146410701507 pbc="T T T"
Si       9.26592128       4.78478217      13.03325106
Si       2.92280196       2.27235421       4.33270590
Si       5.57267891       2.27311709       7.65089074
Si       5.72810240       6.24821378      14.51079314
Si       7.47190905       5.01606145      14.79163446
Si       6.57087162       7.97125543       8.91883457
Si       5.41880564       4.01955511       2.38997125
Si       5.97941134       6.67528256      10.49772565
Si       4.14380236       3.64092678       0.72783587
Si       5.77450788       8.15546467      15.44987654
Si       5.47401609       4.62535757      10.92948117
Si       5.27951498       6.12088807      12.42660118
Si       2.03469534       3.55615781       1.03986909
Si       1.68845816       1.25571843       8.26003583
Si       4.56318883       1.88168604      15.40089383
Si       7.92648553       7.61487455      10.50199020
Si       4.59967635       3.65405278       4.31890215
Si       5.05482228       8.67813172       7.60325332
Si       4.74356423       5.76237003       3.41208241
Si       5.61473249       2.88784293       9.71366579
Si       9.11830708       3.67216838      14.85909869
Si       4.28706428       2.37618663       5.95440868
22
Lattice="5.400560885894249 0.27666362470817857 0.705281398772214 2.863609784745542 6.7288801371699085 1.3096443550613308 2.8818987202770874 2.933248548523606 15.44115755542582" Properties=species:S:1:pos:R:3 unique_starting_index=40 config_type=initial n_minim_iter=2 stress="-0.004701431885213883 0.0006020741106286781 0.0010885839580518952 0.0006020741106286781 -0.004163865556071929 -0.0004891425731004281 0.0010885839580518952 -0.0004891425731004281 -0.002764127620559615" pbc="T T T"
Si       9.27582668       4.78209658      13.03628733
Si       2.92666795       2.27085752       4.33312356
Si       5.57846960       2.27186089       7.65345366
Si       5.74205566       6.24111217      14.51004568
Si       7.48447808       5.01103970      14.79238618
Si       6.58042421       7.96597843       8.91893924
Si       5.42120933       4.01925961       2.39259356
Si       5.99026209       6.67020697      10.49769277
Si       4.14526195       3.64078220       0.72952453
Si       5.79026818       8.14773977      15.44802061
Si       5.48413758       4.62104537      10.92963821
Si       5.29148838       6.11470002      12.42622549
Si       2.03700174       3.55420404       1.04011051
Si       1.69512433       1.25305709       8.25923644
Si       4.57547252       1.87692207      15.40128243
Si       7.93649670       7.60991182      10.50352389
Si       4.60379309       3.65262159       4.32016245
Si       5.06478437       8.67196880       7.60261449
Si       4.74818472       5.75958728       3.41268908
Si       5.62256112       2.88524793       9.71493488
Si       9.12891890       3.66918136      14.86237463
Si       4.29146584       2.37484684       5.95566436
22
Lattice="5.404120062044996 0.2785945786499348 0.7076835809383705 2.868328131956262 6.731313780154005 1.3098867116321495 2.890955866736252 2.9317944380815426 15.447510404956592" Properties=species:S:1:pos:R:3 unique_starting_index=40 config_type=initial n_minim_iter=3 stress="0.003249774028591043 0.0016285173390082372 0.003222923854539306 0.0016285173390082372 -0.0004185116152433181 -0.0015440396253434039 0.003222923854539306 -0.0015440396253434039 0.003479480002684792" pbc="T T T"
Si       9.28809149       4.78407880      13.04393496
Si       2.93102093       2.27163324       4.33524509
Si       5.58591367       2.27274781       7.65856776
Si       5.75392329       6.24131939      14.51649457
Si       7.49684490       5.01173629      14.79938879
Si       6.59053683       7.96842892       8.92293947
Si       5.42682377       4.02181780       2.39510936
Si       6.00084785       6.67212456      10.50250521
Si       4.14958932       3.64324075       0.73065393
Si       5.80301288       8.14965835      15.45427414
Si       5.49392708       4.62197643      10.93470141
Si       5.30175471       6.11549019      12.43210928
Si       2.03995394       3.55530906       1.04084668
Si       1.69963888       1.25283829       8.26275779
Si       4.58533170       1.87577202      15.40910392
Si       7.94775648       7.61218551      10.50935037
Si       4.60964777       3.65432250       4.32272100
Si       5.07420967       8.67441487       7.60599629
Si       4.75446154       5.76179770       3.41440327
Si       5.63110665       2.88576795       9.71997424
Si       9.14142891       3.67006156      14.87118973
Si       4.29692570       2.37581184       5.95901922
22
Lattice="5.402441381935443 0.28025768827744124 0.7043737276641114 2.868575029764755 6.7373487582678475 1.3085676021725823 2.883158319149983 2.9377485565451398 15.432466645498131" Properties=species:S:1:pos:R:3 unique_starting_index=40 config_type=initial n_minim_iter=4 stress="-0.0008563718684382116 0.002607772554902623 -0.0006861273172084235 0.002607772554902623 0.001937405203789541 0.000299296645673433 -0.0006861273172084235 0.000299296645673433 -0.0019539295524917378" pbc="T T T"
Si       9.27934018       4.79292853      13.02824946
Si       2.92893554       2.27511351       4.32956686
Si       5.58161853       2.27661865       7.65075466
Si       5.74787455       6.24877911      14.50161440
Si       7.48896496       5.01947704      14.78079911
Si       6.58519154       7.97758419       8.91169901
Si       5.42491463       4.02674913       2.39170724
Si       5.99684337       6.68175890      10.49054209
Si       4.14986112       3.64802700       0.72841049
Si       5.79605205       8.16407966      15.43825010
Si       5.48976497       4.62936298      10.92172552
Si       5.29496672       6.12357175      12.42062620
Si       2.04002050       3.55757004       1.04049703
Si       1.69430412       1.25790776       8.25452477
Si       4.57749691       1.88102267      15.39509253
Si       7.94024925       7.62070271      10.49804899
Si       4.60726422       3.65900683       4.31657254
Si       5.07182977       8.68384314       7.59933258
Si       4.75271715       5.76710391       3.40894898
Si       5.62622594       2.89028825       9.70768498
Si       9.13173189       3.67668756      14.85485933
Si       4.29197258       2.37994875       5.95141901
22
Lattice="5.402382709213158 0.2743390207760454 0.7054049420685462 2.861788672225773 6.728978644426743 1.3089758758499348 2.882427795411379 2.9313214920660458 15.43826025596246" Properties=species:S:1:pos:R:3 unique_starting_index=40 config_type=initial n_minim_iter=5 stress="-0.000517578784692524 -0.001016275999422406 0.0003748759822046715 -0.001016275999422406 -0.0009460873070048818 -0.00024528376008566623 0.0003748759822046715 -0.00024528376008566623 -0.0004408488075391143" pbc="T T T"
Si       9.27609820       4.77882546      13.03393447
Si       2.92734364       2.27007218       4.33093996
Si       5.58019025       2.26794876       7.65457930
Si       5.74422396       6.23640453      14.50771043
Si       7.48609396       5.00639864      14.78569975
Si       6.57805815       7.96372431       8.91468471
Si       5.42120277       4.01770449       2.39329164
Si       5.99193013       6.66992501      10.49455112
Si       4.14653722       3.64136302       0.72875190
Si       5.79006684       8.15174824      15.44387188
Si       5.48749516       4.61946107      10.92555547
Si       5.29010379       6.11211458      12.42589551
Si       2.03688036       3.55213050       1.04121178
Si       1.69403274       1.25531557       8.25785880
Si       4.57814093       1.87346804      15.40204835
Si       7.93309127       7.60514735      10.50292461
Si       4.60413813       3.65093581       4.31841672
Si       5.06419756       8.67139395       7.60257522
Si       4.74715193       5.75698174       3.41013086
Si       5.62494561       2.88125274       9.71156558
Si       9.13015407       3.66259717      14.86194903
Si       4.28991120       2.37325906       5.95403302
22
Lattice="5.401440169276606 0.27666800571528777 0.7047269764387234 2.863879792217387 6.7280342860071825 1.3104859388212782 2.8800132510104652 2.9346797351195586 15.446530483330932" Properties=species:S:1:pos:R:3 unique_starting_index=40 config_type=initial n_minim_iter=6 stress="-0.0018572576980085147 0.0010456113049606523 -0.0017532593501931606 0.0010456113049606523 -0.0022886262542103786 -4.8572554896328256e-05 -0.0017532593501931606 -4.8572554896328256e-05 0.0033375791517283216" pbc="T T T"
Si       9.27309325       4.78426117      13.03971981
Si       2.92685351       2.27157007       4.33201552
Si       5.57708063       2.26980071       7.65764139
Si       5.74438628       6.23931000      14.51744074
Si       7.48419710       5.01030115      14.79030328
Si       6.57832327       7.96513583       8.91846968
Si       5.42222757       4.01848625       2.39421060
Si       5.99114096       6.67315358      10.50023389
Si       4.14746561       3.64339054       0.72765665
Si       5.78950538       8.15436662      15.45231671
Si       5.48810178       4.62302154      10.93001895
Si       5.28842693       6.11433415      12.43318431
Si       2.03914546       3.55115904       1.04243413
Si       1.69316261       1.25815748       8.26330246
Si       4.57532263       1.87790002      15.41125749
Si       7.93089811       7.60688939      10.50945108
Si       4.60376953       3.65219708       4.32067818
Si       5.06553179       8.67276493       7.60769396
Si       4.74758694       5.75691526       3.41199048
Si       5.62320943       2.88479886       9.71628326
Si       9.12719569       3.66855817      14.87035183
Si       4.28836232       2.37575862       5.95753091
22
Lattice="5.404125506127887 0.276427419014901 0.7073379921775913 2.865292092281728 6.7312642786161465 1.3118646381335843 2.8905600334409587 2.938333393664157 15.43133044796805" Properties=species:S:1:pos:R:3 unique_starting_index=40 config_type=initial n_minim_iter=7 stress="0.000500050583866834 0.00019993239756075794 0.00039704562705883477 0.00019993239756075794 -0.0011313436799550776 0.0010873780050729847 0.00039704562705883477 0.0010873780050729847 -0.0012454806699935094" pbc="T T T"
Si       9.28409763       4.78829810      13.03119666
Si       2.93050080       2.27324706       4.32849209
Si       5.58271452       2.27047146       7.65255094
Si       5.75632088       6.24396331      14.50694306
Si       7.49622648       5.01421287      14.77664288
Si       6.58582382       7.96944493       8.91270365
Si       5.42632710       4.01971280       2.39540188
Si       5.99901264       6.67825112      10.49328238
Si       4.14988157       3.64597377       0.72887001
Si       5.80086813       8.16003967      15.43950956
Si       5.49827294       4.62715070      10.92093154
Si       5.29718663       6.11852917      12.42379475
Si       2.04147525       3.55221163       1.04340484
Si       1.69936041       1.26067799       8.25613819
Si       4.58687039       1.88093738      15.39823091
Si       7.93858724       7.61083968      10.50450878
Si       4.60786049       3.65402539       4.31932514
Si       5.07149988       8.67851869       7.60375606
Si       4.75072408       5.75923844       3.41195905
Si       5.63124638       2.88742616       9.70931879
Si       9.14026621       3.67233850      14.86117267
Si       4.29310978       2.37779345       5.95440515
22
Lattice="5.400788012054973 0.27505365057171416 0.7082970408770214 2.8624999038240957 6.736351830767166 1.3063821039626062 2.8919959423399377 2.9271507760489834 15.426340378229634" Properties=species:S:1:pos:R:3 unique_starting_index=40 config_type=initial n_minim_iter=8 stress="-0.0025797944755796675 -0.0005840558714204986 0.0005992658265890932 -0.0005840558714204986 0.0021367284835944428 -0.0012521093668668493 0.0005992658265890932 -0.0012521093668668493 0.00010644428049817235" pbc="T T T"
Si       9.28009996       4.78033912      13.02611337
Si       2.92937158       2.27131823       4.32569935
Si       5.57985091       2.26356877       7.65030153
Si       5.75564943       6.23607025      14.50029656
Si       7.49430434       5.00492957      14.76869351
Si       6.58227737       7.96769400       8.90451887
Si       5.42361480       4.01977383       2.39209206
Si       5.99553947       6.67514478      10.48709117
Si       4.14834877       3.64907191       0.72576103
Si       5.79973369       8.15335250      15.43058661
Si       5.49797476       4.62191470      10.91538121
Si       5.29507435       6.11239052      12.41784625
Si       2.04073475       3.55377352       1.04116525
Si       1.70003591       1.25506807       8.25476765
Si       4.58723999       1.86853537      15.39527895
Si       7.93366227       7.60753489      10.49835055
Si       4.60496382       3.65273707       4.31667260
Si       5.06790182       8.68057607       7.59585284
Si       4.74691677       5.76047217       3.40777710
Si       5.62920004       2.88070806       9.70623814
Si       9.13792842       3.66176933      14.85873354
Si       4.29059351       2.37453789       5.95244118
22
Lattice="5.405219754466906 0.2758505373710048 0.7069946113724196 2.8665035020828116 6.732719011629284 1.3002436347913846 2.8939995634232445 2.9158927581681913 15.408079351863908" Properties=species:S:1:pos:R:3 unique_starting_index=40 config_type=initial n_minim_iter=9 stress="0.002486910612872566 0.00038021944335066564 -0.0016332049853112621 0.00038021944335066564 -0.0014348079949998104 -0.003156592949149713 -0.0016332049853112621 -0.003156592949149713 -0.002170838914180162" pbc="T T T"
Si       9.28709318       4.77249072      13.00719170
Si       2.93241124       2.26833095       4.31794340
Si       5.58309736       2.25471125       7.64072026
Si       5.76183787       6.22351531      14.48019904
Si       7.50125960       4.99471999      14.74314136
Si       6.58889026       7.95693621       8.88690750
Si       5.43104913       4.01530610       2.38484049
Si       5.99819187       6.66730226      10.47220282
Si       4.15798357       3.65001895       0.72044129
Si       5.80666508       8.13970035      15.40878157
Si       5.50639037       4.61597266      10.89910275
Si       5.29845086       6.10128306      12.40211092
Si       2.04617900       3.54995444       1.03922846
Si       1.70044536       1.25098377       8.24763934
Si       4.58943846       1.85891586      15.37862052
Si       7.93942711       7.59883336      10.48313836
Si       4.60847368       3.64833508       4.31022429
Si       5.07189544       8.67485257       7.58177791
Si       4.75069007       5.75447828       3.40151825
Si       5.63267680       2.87384626       9.69380523
Si       9.14665012       3.65335017      14.84428270
Si       4.29206225       2.37161421       5.94468801
22
Lattice="5.403390330184509 0.27676099001619703 0.7108445650234009 2.866529338483832 6.735276802840076 1.3075238696863718 2.903040162616388 2.928612959183548 15.414592766934067" Properties=species:S:1:pos:R:3 unique_starting_index=40 config_type=initial n_minim_iter=10 stress="0.0001468674207240036 0.00027273932197028635 0.0006524893216902106 0.00027273932197028635 0.00010284543605925984 0.0005919828229583733 0.0006524893216902106 0.0005919828229583733 0.0005003808605198863" pbc="T T T"
Si       9.29141733       4.78474384      13.01787363
Si       2.93434080       2.27253929       4.32125123
Si       5.58519646       2.25854963       7.64753311
Si       5.76975547       6.23558647      14.49056904
Si       7.50860826       5.00792120      14.74974968
Si       6.59197115       7.96401893       8.89711024
Si       5.43213009       4.01678167       2.39103873
Si       6.00061185       6.67807728      10.48358015
Si       4.16057930       3.65291530       0.72459553
Si       5.81567014       8.15348548      15.42152685
Si       5.51377528       4.62756311      10.90726025
Si       5.30349638       6.11189841      12.41328592
Si       2.04851135       3.55041382       1.04470012
Si       1.70469848       1.25888280       8.25248279
Si       4.59703295       1.87211009      15.38597309
Si       7.94210141       7.60935307      10.49671936
Si       4.60896805       3.65218219       4.31720408
Si       5.07381980       8.68466094       7.59313324
Si       4.75027591       5.75712049       3.41088698
Si       5.63577744       2.88202010       9.70122468
Si       9.15355199       3.66701152      14.85822573
Si       4.29266430       2.37787906       5.95044949
22
Lattice="5.402755158679916 0.27439582268892826 0.7109562028343496 2.8636352796926188 6.737198917903922 1.3039786142568952 2.9032764649405607 2.921779528720676 15.405381203289823" Properties=species:S:1:pos:R:3 unique_starting_index=40 config_type=initial n_minim_iter=11 stress="0.0014686683433455666 -0.0005366204573830499 -0.00015828302423919935 -0.0005366204573830499 0.0008015303646639394 0.0003944648327426159 -0.00015828302423919935 0.0003944648327426159 0.0004502026067706364" pbc="T T T"
Si       9.28913987       4.77792388      13.00661852
Si       2.93410917       2.27076486       4.31626864
Si       5.58419275       2.24631887       7.64317680
Si       5.76978318       6.22869673      14.48057036
Si       7.51054060       5.00291282      14.72885594
Si       6.58515899       7.95395260       8.88595894
Si       5.43353866       4.01289481       2.39047608
Si       5.99281636       6.67843815      10.47741049
Si       4.16740354       3.65267498       0.71318165
Si       5.81704628       8.14887000      15.41169889
Si       5.51766451       4.62565447      10.89909434
Si       5.29822369       6.10619616      12.40684022
Si       2.05783583       3.54816889       1.04569955
Si       1.70334677       1.25752448       8.24945741
Si       4.59627046       1.86615588      15.37917657
Si       7.93567012       7.60725315      10.49011986
Si       4.60655149       3.64954451       4.31337608
Si       5.06708614       8.68893484       7.58697539
Si       4.74538468       5.75058476       3.41141970
Si       5.62940370       2.87870481       9.69752145
Si       9.15356814       3.66133725      14.85625594
Si       4.28742089       2.37778934       5.94722574
22
Lattice="5.400561303932965 0.2717670201958609 0.7107033044638961 2.8597958938596286 6.736925831562836 1.2990041241553467 2.902036398528871 2.911474829569957 15.393387652809729" Properties=species:S:1:pos:R:3 unique_starting_index=40 config_type=initial n_minim_iter=12 stress="0.002007380310987073 -0.0008648466549557889 -0.0005220934134722941 -0.0008648466549557889 0.0018368234931941117 0.0005061148942157776 -0.0005220934134722941 0.0005061148942157776 0.0006271622162541367" pbc="T T T"
Si       9.28317251       4.76315067      12.99095114
Si       2.93049189       2.26610955       4.31078010
Si       5.57380159       2.22892398       7.63332151
Si       5.76519017       6.21938224      14.46598809
Si       7.51513702       4.99567609      14.69539140
Si       6.57289751       7.93263925       8.87007790
Si       5.43915989       4.00748031       2.38571013
Si       5.98156895       6.67833995      10.47191149
Si       4.18471675       3.65398766       0.69761056
Si       5.81860747       8.13941668      15.39824788
Si       5.51985961       4.62263909      10.89290903
Si       5.28860419       6.09845564      12.39507535
Si       2.07069452       3.54508809       1.05127172
Si       1.69573697       1.25773226       8.24394141
Si       4.59775451       1.85389336      15.37620976
Si       7.92184275       7.60251603      10.48019808
Si       4.60262718       3.64530530       4.30721968
Si       5.06218225       8.69246205       7.57839018
Si       4.73755201       5.73372717       3.41308642
Si       5.61467804       2.87238838       9.69173623
Si       9.14862445       3.65427748      14.85101812
Si       4.28146108       2.37910800       5.94751891
22
Lattice="5.398167471535378 0.2754227399316164 0.7120871709630645 2.8635299476568665 6.739645164238184 1.297100241311027 2.9072858674245756 2.9082757777227752 15.390206030124219" Properties=species:S:1:pos:R:3 unique_starting_index=40 config_type=initial n_minim_iter=13 stress="0.0022415434143700126 -0.00032562249448295845 -0.0003509854707813194 -0.00032562249448295845 0.0024675089479442892 7.307889366163744e-05 -0.0003509854707813194 7.307889366163744e-05 0.0007614285919404083" pbc="T T T"
Si       9.28409663       4.76089075      12.98725921
Si       2.93071347       2.26555838       4.31084830
Si       5.57102121       2.22511367       7.63090441
Si       5.77153744       6.22076386      14.46449415
Si       7.52133827       5.00379451      14.67679678
Si       6.57274972       7.92423553       8.86316226
Si       5.44894752       4.00889684       2.38272165
Si       5.98123405       6.68528855      10.47268965
Si       4.19798686       3.66074333       0.68791733
Si       5.83144153       8.13841283      15.39575638
Si       5.52642548       4.62510332      10.89384511
Si       5.28924519       6.10059318      12.39177308
Si       2.08314468       3.54717137       1.05659210
Si       1.69258524       1.26061308       8.24234526
Si       4.60423738       1.85208751      15.37911289
Si       7.92007081       7.60708156      10.47915274
Si       4.60384565       3.64717662       4.30479834
Si       5.06731127       8.70013029       7.57710447
Si       4.73742240       5.72596808       3.41787654
Si       5.60759019       2.87443486       9.69085014
Si       9.15519747       3.65269102      14.85429858
Si       4.27929034       2.38575711       5.94802541
22
Lattice="5.395491842437967 0.27684054082968096 0.7150143867972261 2.864659429144371 6.740438303926597 1.2962614608795238 2.915316943687707 2.903904405226085 15.389507890148465" Properties=species:S:1:pos:R:3 unique_starting_index=40 config_type=initial n_minim_iter=14 stress="0.0016982629894654196 -0.00016762136839115136 0.00021062401714093434 -0.00016762136839115136 0.0015093586664152259 -0.00048371424758726444 0.00021062401714093434 -0.00048371424758726444 0.0005151791300674702" pbc="T T T"
Si       9.28595977       4.75358538      12.99055638
Si       2.93166372       2.26345750       4.31386668
Si       5.56983340       2.22339885       7.63228398
Si       5.77734566       6.22037195      14.46583092
Si       7.53436499       5.00404460      14.66337538
Si       6.57525657       7.91532977       8.85936272
Si       5.45438805       4.00686491       2.38034970
Si       5.98013786       6.68687870      10.47436310
Si       4.20618228       3.66663419       0.68510305
Si       5.84363630       8.13420394      15.39737797
Si       5.53165759       4.62161561      10.89625512
Si       5.28922301       6.10037969      12.39514500
Si       2.09511776       3.55120444       1.06078219
Si       1.69401227       1.26064794       8.24222830
Si       4.61531109       1.84876709      15.38418964
Si       7.91875818       7.60656172      10.48174588
Si       4.60536300       3.64665847       4.30158779
Si       5.06728353       8.70321268       7.57868808
Si       4.73587023       5.71689068       3.42456556
Si       5.60152470       2.87594040       9.69140583
Si       9.16100930       3.64814938      14.85852469
Si       4.27752038       2.39095992       5.94600385
22
Lattice="5.392302316748853 0.27933065200250584 0.7171102164670444 2.8670146560527234 6.738303017560392 1.2937685142248363 2.9214758840677604 2.895783242193087 15.38877908129764" Properties=species:S:1:pos:R:3 unique_starting_index=40 config_type=initial n_minim_iter=15 stress="0.00028047152782667773 0.0002639835467057248 9.843373493675732e-05 0.0002639835467057248 -0.0006992474588281991 -0.0005985465132863569 9.843373493675732e-05 -0.0005985465132863569 0.0009725976254609198" pbc="T T T"
Si       9.28664182       4.74280593      12.99500178
Si       2.93067390       2.25955346       4.31458542
Si       5.56305631       2.22282422       7.63364817
Si       5.78566342       6.21417012      14.46705507
Si       7.54827752       5.00387441      14.64839559
Si       6.58062582       7.90394486       8.85157159
Si       5.46117677       4.00241373       2.37656515
Si       5.97563392       6.68005549      10.47552447
Si       4.21468625       3.66653857       0.67688317
Si       5.85553201       8.12768164      15.39876860
Si       5.53435172       4.61782873      10.89949548
Si       5.28511663       6.09543530      12.39887992
Si       2.10775386       3.55628917       1.06624223
Si       1.69351771       1.25889597       8.24356175
Si       4.62520703       1.84479881      15.38909576
Si       7.91832813       7.60319645      10.48212610
Si       4.60740561       3.64392294       4.29423166
Si       5.06691078       8.70127463       7.57895359
Si       4.73439727       5.70371697       3.43090694
Si       5.59309746       2.87235772       9.68672638
Si       9.16505648       3.64074068      14.86052080
Si       4.27753440       2.39646706       5.94443591
22
Lattice="5.3892465006769115 0.28133401184830514 0.7193048248848182 2.868056634847455 6.73775657740484 1.2968302018967548 2.9266442560329207 2.9003000646121673 15.391432603426736" Properties=species:S:1:pos:R:3 unique_starting_index=40 config_type=initial n_minim_iter=16 stress="-0.0007637246513681311 0.0002670167731921604 0.0001831257942195768 0.0002670167731921604 -0.0014661307689791657 -0.00014164790874031228 0.0001831257942195768 -0.00014164790874031228 0.0011701596983907856" pbc="T T T"
Si       9.28708542       4.74509912      13.00407464
Si       2.92924313       2.25988709       4.31545367
Si       5.55896363       2.22827319       7.63741818
Si       5.79272562       6.21744564      14.47148701
Si       7.55733005       5.01498087      14.64422106
Si       6.58071923       7.90328393       8.85302132
Si       5.46316185       4.00108965       2.37664286
Si       5.97376946       6.68155613      10.48198471
Si       4.22189336       3.66644995       0.67566915
Si       5.86374398       8.13357904      15.40693215
Si       5.53536911       4.61980694      10.90418611
Si       5.28133032       6.09921196      12.40591520
Si       2.11403526       3.56051012       1.07357051
Si       1.69611114       1.26235996       8.24512279
Si       4.63174192       1.85080339      15.39420047
Si       7.91596603       7.60610293      10.48760282
Si       4.60749342       3.64351195       4.29296737
Si       5.06860417       8.70420481       7.58589926
Si       4.73288671       5.69753762       3.43850129
Si       5.58755642       2.87994601       9.68891998
Si       9.16969546       3.64706387      14.86630463
Si       4.27758161       2.40379101       5.94731055
22
Lattice="5.387130025356008 0.2817757781397615 0.7215953207469322 2.8676814626594607 6.738413658456807 1.2993559311061516 2.9317027583005046 2.903398827984417 15.39489327483611" Properties=species:S:1:pos:R:3 unique_starting_index=40 config_type=initial n_minim_iter=17 stress="-0.00177446231427031 -0.0002560283349229859 0.0003194852969412296 -0.0002560283349229859 -0.001574358872753254 0.0002705117772513612 0.0003194852969412296 0.0002705117772513612 0.0005339481699604144" pbc="T T T"
Si       9.28786620       4.74582948      13.01479317
Si       2.92846959       2.25989294       4.31688271
Si       5.55722395       2.23225905       7.64346212
Si       5.80009758       6.22083178      14.47817586
Si       7.56877112       5.02414754      14.64023329
Si       6.57924902       7.90236854       8.85567481
Si       5.46325353       3.99968395       2.37708094
Si       5.97315224       6.68191701      10.48865932
Si       4.22842960       3.66754395       0.67343041
Si       5.87127394       8.13593914      15.41522751
Si       5.53514930       4.62165849      10.91030964
Si       5.27547618       6.10143767      12.41201467
Si       2.12125164       3.56534944       1.07991610
Si       1.69467315       1.26639216       8.24756098
Si       4.63842244       1.85233908      15.40026706
Si       7.91242977       7.60843206      10.49161389
Si       4.60621689       3.64065352       4.29239636
Si       5.06975135       8.70816990       7.59073778
Si       4.73059457       5.69131480       3.44451710
Si       5.58369489       2.88334373       9.69015946
Si       9.17684461       3.65340924      14.87349001
Si       4.27591475       2.41020174       5.94996894
22
Lattice="5.387709001610359 0.2840261108039057 0.7253294422976805 2.871125119261603 6.743055131545118 1.3019604476771196 2.9445824624915606 2.9088173803310347 15.387595289129791" Properties=species:S:1:pos:R:3 unique_starting_index=40 config_type=initial n_minim_iter=18 stress="-0.0011311065476921186 -0.0008587786807532957 -0.00012927568846801473 -0.0008587786807532957 -7.678654962850327e-05 0.0003986447256359355 -0.00012927568846801473 0.0003986447256359355 -0.0011406131193380192" pbc="T T T"
Si       9.29614357       4.75241298      13.02110998
Si       2.93317466       2.26211697       4.31708596
Si       5.55979103       2.23997739       7.64120044
Si       5.81667757       6.23061759      14.47394540
Si       7.59612341       5.03815969      14.62757628
Si       6.58636267       7.90861234       8.85805892
Si       5.46972535       4.00173334       2.37988213
Si       5.98184642       6.68954198      10.48649026
Si       4.23796572       3.67173776       0.67061312
Si       5.89249512       8.14777348      15.41168064
Si       5.54003643       4.62589404      10.91056062
Si       5.27774563       6.10930253      12.41145472
Si       2.12847067       3.57182426       1.08672837
Si       1.69762462       1.26922763       8.24673513
Si       4.65186830       1.85455568      15.39496185
Si       7.91856934       7.61711804      10.48861366
Si       4.60721288       3.63686446       4.29101085
Si       5.07690469       8.71810883       7.58867292
Si       4.73318289       5.68972137       3.44669332