18
Lattice="7.5591368022127154 -0.7540825933508013 -0.0811983956745167 -4.317203523955303 6.250675442294971 0.08119839567358926 -2.7687178425420162 -2.0713438242393925 8.171035064830734" Properties=species:S:1:pos:R:3 unique_starting_index=64 config_type=initial n_minim_iter=1 energy=-2928.574563505377 free_energy=-2928.574563505377 pbc="T T T"
Si      -0.95591283       2.56569781       5.34391235
Si       2.45602172       0.25388145       1.21779562
Si      -1.38590911       0.59421238       1.73993656
Si       1.20464454      -0.48730112       5.78485489
Si       4.39504888      -1.77551156       5.04330348
Si       4.52700324       3.92192607       0.99838515
Si      -3.31608057       2.51176415       4.43802871
Si       1.36132859       2.34551898       0.31191198
Si      -2.40052072       2.82545526       2.19147746
Si      -1.23895638      -0.67886331       6.23639579
Si      -2.74884834       1.18023070       7.02437083
Si       2.80108188       2.49331672       2.89825410
Si       1.70194153       4.35089080       3.48209500
Si      -4.90632287       1.24343345       7.60821173
Si       3.39773934       2.13016708       0.90102235
Si      -2.14235712       0.83375388       5.02713908
Si      -2.70333448       3.20748317       6.36250225
Si       1.04891577       1.47266105       2.23638552
18
Lattice="7.542501060635111 -0.7528839039764846 -0.08852290439807524 -4.30810578030633 6.236696321630546 0.08852290439714985 -2.7699767596843508 -2.0619881045094646 8.16734938385179" Properties=species:S:1:pos:R:3 unique_starting_index=64 config_type=initial n_minim_iter=2 stress="-0.009851357268359546 -0.00942131341661465 -0.0003471132773873037 -0.00942131341661465 -0.020268124916364944 0.00020473011485795255 -0.0003471132773873037 0.00020473011485795255 -0.0024066944401842615" pbc="T T T"
Si      -0.95874501       2.56266270       5.34285026
Si       2.44961928       0.25375001       1.21491412
Si      -1.38451008       0.59389421       1.74036696
Si       1.19665254      -0.48309437       5.77978020
Si       4.38070742      -1.76917103       5.03496043
Si       4.51592487       3.91335195       0.99554719
Si      -3.31299683       2.50854175       4.43966867
Si       1.35795229       2.34030072       0.31173252
Si      -2.39757122       2.82007563       2.19380117
Si      -1.24176861      -0.67356466       6.23321441
Si      -2.74935776       1.18207269       7.02363888
Si       2.79153496       2.48879285       2.89570273
Si       1.69464021       4.34263305       3.48086502
Si      -4.90247806       1.24511667       7.60880116
Si       3.38919294       2.12525346       0.89798850
Si      -2.14204137       0.83490880       5.02592464
Si      -2.70369847       3.20330355       6.36292130
Si       1.04470913       1.47092326       2.23498515
18
Lattice="7.534169924415654 -0.7426934535136798 -0.0964633743037658 -4.295156661117486 6.2343355116900545 0.09646337430283909 -2.7783473958537805 -2.0623277195181196 8.166173658697879" Properties=species:S:1:pos:R:3 unique_starting_index=64 config_type=initial n_minim_iter=3 stress="-0.012835089746791655 0.003809313716644711 -0.010373961567330319 0.003809313716644711 -0.00862328464807032 0.006118643340836843 -0.010373961567330319 0.006118643340836843 0.007411573808482743" pbc="T T T"
Si      -0.95873647       2.56601456       5.34357094
Si       2.44670972       0.25738588       1.21225243
Si      -1.38413645       0.59332877       1.74130760
Si       1.18897728      -0.47822237       5.77616275
Si       4.36851918      -1.76192157       5.02743592
Si       4.51665234       3.92341550       0.99258077
Si      -3.31094638       2.50800443       4.44277384
Si       1.35943433       2.34403123       0.31145532
Si      -2.39364085       2.81897767       2.19714364
Si      -1.24725700      -0.67154776       6.23199878
Si      -2.75217726       1.18388303       7.02596952
Si       2.78860622       2.49564954       2.89465100
Si       1.69557921       4.34940608       3.48096130
Si      -4.90335306       1.24358258       7.61227982
Si       3.38804696       2.13110647       0.89429367
Si      -2.14311995       0.83564454       5.02561219
Si      -2.70369372       3.20450912       6.36579014
Si       1.04367610       1.47560086       2.23447162
18
Lattice="7.5317198282573194 -0.739797426226524 -0.08410072240208871 -4.291436747333079 6.233592419051416 0.08410072240116173 -2.7662860807337455 -2.0708925186159046 8.114831240667105" Properties=species:S:1:pos:R:3 unique_starting_index=64 config_type=initial n_minim_iter=4 stress="-0.014355177308197785 0.006996658484234513 -0.005625314357371943 0.006996658484234513 -0.006619253183829862 0.0033178542266022472 -0.005625314357371943 0.0033178542266022472 -0.026508965341880436" pbc="T T T"
Si      -0.94643545       2.56098035       5.30793206
Si       2.44981127       0.25478649       1.20846608
Si      -1.38130820       0.59146108       1.72734683
Si       1.19678579      -0.48262832       5.74271209
Si       4.37301434      -1.76766289       5.00316561
Si       4.52031602       3.92724657       0.98780035
Si      -3.30457671       2.50458871       4.40780534
Si       1.35824972       2.34583971       0.30833936
Si      -2.38893312       2.81351382       2.17856755
Si      -1.23539191      -0.67585868       6.19393281
Si      -2.74094931       1.18014065       6.98244779
Si       2.79005803       2.49336425       2.88298181
Si       1.70160540       4.34653575       3.46058269
Si      -4.88939993       1.23611989       7.56004867
Si       3.39008699       2.12937859       0.88826876
Si      -2.13209524       0.83111767       4.98773474
Si      -2.69599204       3.19616802       6.32252514
Si       1.04744648       1.47862659       2.22305916
18
Lattice="7.536262597503117 -0.7479251581080262 -0.07110164079515792 -4.3007477569481996 6.233635753856693 0.0711016407942321 -2.752067716007346 -2.073830249691876 8.105227890160064" Properties=species:S:1:pos:R:3 unique_starting_index=64 config_type=initial n_minim_iter=5 stress="-4.974319356872897e-05 -0.01033954874556913 -0.010918735006011563 -0.01033954874556913 -0.011481766745386661 0.006439954958509669 -0.010918735006011563 0.006439954958509669 0.0005139228368425716" pbc="T T T"
Si      -0.93788238       2.55429346       5.29937438
Si       2.45496376       0.24794135       1.21120961
Si      -1.38025760       0.59102478       1.72191105
Si       1.20705649      -0.48886942       5.73897417
Si       4.38469221      -1.77834685       5.00524000
Si       4.52116744       3.91964391       0.98817688
Si      -3.30431456       2.50341511       4.39440524
Si       1.35456585       2.34358309       0.30624047
Si      -2.39015583       2.80864724       2.17082458
Si      -1.22234384      -0.67796679       6.18788770
Si      -2.73308481       1.17883336       6.97554785
Si       2.79016932       2.48451898       2.88738308
Si       1.70263733       4.33645275       3.45814446
Si      -4.88000679       1.23460573       7.54630923
Si       3.39199576       2.12055636       0.88629544
Si      -2.12338125       0.82822614       4.97446021
Si      -2.69481285       3.18916876       6.31189475
Si       1.04930472       1.47838598       2.22372999
18
Lattice="7.489928845030216 -0.7227771130617704 -0.007488705281544031 -4.2563218385042525 6.20525303801975 0.007488705280618828 -2.677706394683551 -2.1155091731683546 8.075158149981903" Properties=species:S:1:pos:R:3 unique_starting_index=64 config_type=initial n_minim_iter=6 stress="-0.0072889542481883104 0.002939252595206244 0.005652268639669401 0.002939252595206244 -0.004039140767926245 -0.0033337520722691127 0.005652268639669401 -0.0033337520722691127 0.014746860521251886" pbc="T T T"
Si      -0.87549866       2.51905301       5.26936014
Si       2.45563997       0.24380860       1.22803671
Si      -1.35753497       0.57726643       1.70137828
Si       1.24410479      -0.51036443       5.73521300
Si       4.39419217      -1.78594052       5.03165034
Si       4.51648782       3.92003458       0.99781562
Si      -3.24681893       2.46676458       4.34163003
Si       1.35411117       2.34441047       0.30030660
Si      -2.35218561       2.77647125       2.13499177
Si      -1.16179995      -0.70389520       6.16882649
Si      -2.65938222       1.13730123       6.94364522
Si       2.80182809       2.47352435       2.90232179
Si       1.73288366       4.31146168       3.44840397
Si      -4.78506194       1.18357811       7.48972740
Si       3.38885916       2.12004416       0.89247484
Si      -2.06601084       0.79457086       4.93379827
Si      -2.62688244       3.14458671       6.26643770
Si       1.06083999       1.47391858       2.22511427
18
Lattice="7.466973220829438 -0.7119691260939052 0.027720361043937353 -4.235756664930847 6.190392119453232 -0.027720361044861978 -2.6372498846324417 -2.136639318934668 7.987534058328965" Properties=species:S:1:pos:R:3 unique_starting_index=64 config_type=initial n_minim_iter=7 stress="0.0010413975146802582 0.005658855310526997 -0.002027009707827562 0.005658855310526997 0.0072981664296767265 0.0011955461151533355 -0.002027009707827562 0.0011955461151533355 0.005341628110867417" pbc="T T T"
Si      -0.83351370       2.49601930       5.20635454
Si       2.46440540       0.23417792       1.22644769
Si      -1.34668541       0.56975486       1.67124973
Si       1.26467834      -0.52138645       5.67887694
Si       4.40362773      -1.78968186       4.99577106
Si       4.51318633       3.91469515       0.98814385
Si      -3.22054133       2.44603605       4.26927930
Si       1.35325965       2.34741108       0.28937246
Si      -2.33811501       2.75106651       2.09580047
Si      -1.12400847      -0.70907912       6.10342768
Si      -2.62154951       1.11367205       6.87464681
Si       2.80910571       2.46781568       2.89473996
Si       1.74746870       4.29230191       3.41780878
Si      -4.73192178       1.16006161       7.39771563
Si       3.39114545       2.11909061       0.88358335
Si      -2.03475455       0.77300931       4.86349020
Si      -2.60389502       3.12767508       6.19164385
Si       1.05505620       1.47795197       2.21173701
18
Lattice="7.4535048265736 -0.7027948256263896 0.07830177033744651 -4.221211344343918 6.183043712692411 -0.0783017703383718 -2.584004674534427 -2.1692742952291435 7.932209971586432" Properties=species:S:1:pos:R:3 unique_starting_index=64 config_type=initial n_minim_iter=8 stress="0.0087306807830498 0.005826318057195946 0.007305752336648907 0.005826318057195946 0.01517260652752014 -0.004308989636639099 0.007305752336648907 -0.004308989636639099 -0.0014313761978115395" pbc="T T T"
Si      -0.78645923       2.46453564       5.16283183
Si       2.48136794       0.22913438       1.23587773
Si      -1.33436222       0.55990929       1.64314320
Si       1.29914547      -0.53913817       5.64839907
Si       4.42923298      -1.80380602       4.99082055
Si       4.51912417       3.91267603       0.98556467
Si      -3.18293761       2.41614304       4.20922647
Si       1.36425765       2.34986894       0.28227236
Si      -2.32696715       2.72596820       2.05604789
Si      -1.07676127      -0.71842266       6.06130376
Si      -2.57585632       1.08791962       6.82258937
Si       2.82039386       2.46119062       2.89563527
Si       1.77014021       4.27351145       3.40254798
Si      -4.67007434       1.13023267       7.32950208
Si       3.39124545       2.11313311       0.88743955
Si      -1.99505863       0.75672541       4.81439365
Si      -2.57278343       3.10593933       6.13736116
Si       1.05577421       1.48214490       2.21040706
18
Lattice="7.452334881418062 -0.6959358497621246 0.12344805156652974 -4.2146425460659005 6.1853383173982674 -0.1234480515674564 -2.5404610688140834 -2.2011255861660137 7.873671609012478" Properties=species:S:1:pos:R:3 unique_starting_index=64 config_type=initial n_minim_iter=9 stress="0.004696781952081715 0.008865830306554787 0.017930464533773283 0.008865830306554787 0.014499374247449428 -0.01057552765216215 0.017930464533773283 -0.01057552765216215 -0.005749337625542658" pbc="T T T"
Si      -0.74752229       2.44211213       5.12248225
Si       2.49747394       0.22526207       1.24737047
Si      -1.32583082       0.55039268       1.61320755
Si       1.33278858      -0.55449642       5.61176738
Si       4.46282809      -1.81674625       4.97678567
Si       4.53091503       3.91118513       0.97822584
Si      -3.15255459       2.39245446       4.15062380
Si       1.37733225       2.35409482       0.27551202
Si      -2.32590375       2.70525465       2.01522152
Si      -1.03693211      -0.72182787       6.01378135
Si      -2.53933354       1.07253491       6.77011885
Si       2.82917170       2.45602560       2.89500707
Si       1.79042353       4.26364652       3.38942120
Si      -4.62387178       1.10705265       7.26453298
Si       3.40298074       2.11481581       0.88958264
Si      -1.96309789       0.73543938       4.76469442
Si      -2.54885863       3.08661889       6.08118172
Si       1.06190134       1.48990941       2.20606994
18
Lattice="7.543032003085662 -0.7390138797797395 0.09487840127044858 -4.296224058421215 6.2438715676993235 -0.09487840127137753 -2.5912252026927702 -2.1816003434060645 7.835151927004803" Properties=species:S:1:pos:R:3 unique_starting_index=64 config_type=initial n_minim_iter=10 stress="0.00895806078047471 -0.0031693090700304176 0.0021413263066357513 -0.0031693090700304176 0.0054538831008462 -0.0012629709356159786 0.0021413263066357513 -0.0012629709356159786 -0.025508429134519735" pbc="T T T"
Si      -0.81115288       2.46728860       5.12178823
Si       2.51538523       0.23746704       1.25165147
Si      -1.35234513       0.55476880       1.59370333
Si       1.33609712      -0.54518559       5.55871849
Si       4.51099213      -1.83625794       4.91854074
Si       4.56044283       3.90570524       0.95352558
Si      -3.20755496       2.41935545       4.13858701
Si       1.39790977       2.35791254       0.26845025
Si      -2.39442030       2.72432643       2.00904364
Si      -1.06680624      -0.68286806       5.97405880
Si      -2.59431320       1.11672780       6.75323792
Si       2.83462591       2.45145904       2.88310116
Si       1.77307569       4.29682174       3.38779462
Si      -4.72291391       1.15294098       7.25793138
Si       3.42647861       2.11031207       0.87977743
Si      -2.00940265       0.76381064       4.74991419
Si      -2.61838797       3.13172595       6.06105141
Si       1.05951609       1.49763398       2.19091465
18
Lattice="7.576315259599631 -0.7580825901800804 0.07658212309445576 -4.3290154586324645 6.263774204526946 -0.07658212309538459 -2.616543304262395 -2.1672295434368207 7.834337350931135" Properties=species:S:1:pos:R:3 unique_starting_index=64 config_type=initial n_minim_iter=11 stress="0.023041649830768222 -0.009073407537739567 -0.0018645643995557066 -0.009073407537739567 0.013009547732378099 0.0010997346069634066 -0.0018645643995557066 0.0010997346069634066 -0.006906171483336488" pbc="T T T"
Si      -0.83879914       2.48449758       5.13184469
Si       2.51624937       0.23661638       1.25296708
Si      -1.36356390       0.55712975       1.59141792
Si       1.33258560      -0.53885851       5.54687766
Si       4.52233451      -1.84127705       4.90276515
Si       4.56683233       3.90138998       0.94730541
Si      -3.23148835       2.43241566       4.14709262
Si       1.40420114       2.35581974       0.26821501
Si      -2.41558813       2.73398385       2.01787990
Si      -1.08151693      -0.67136405       5.97333964
Si      -2.62276337       1.13820384       6.75717782
Si       2.83136672       2.44924745       2.87830021
Si       1.76496443       4.30645708       3.38901832
Si      -4.76407966       1.17293161       7.26789594
Si       3.42766591       2.11380525       0.87421862
Si      -2.04069416       0.77863517       4.75309624
Si      -2.65039502       3.14872599       6.06559615
Si       1.05845326       1.50070083       2.18671854
18
Lattice="7.576768223150393 -0.7754370429769807 0.0772388900891061 -4.344422673571475 6.255774208546868 -0.07723889009003056 -2.6103344457285096 -2.1538042851980066 7.794317853250087" Properties=species:S:1:pos:R:3 unique_starting_index=64 config_type=initial n_minim_iter=12 stress="-0.005703034355964028 -0.003516888588427904 -0.0015022622274672025 -0.003516888588427904 -0.009591516741558712 0.0008860459637013785 -0.0015022622274672025 0.0008860459637013785 -0.00047056649257956926" pbc="T T T"
Si      -0.85369569       2.48928981       5.12977681
Si       2.50197018       0.23194492       1.27123733
Si      -1.36627361       0.54077621       1.55795808
Si       1.34891760      -0.53053950       5.49373646
Si       4.52527076      -1.86160070       4.86631389
Si       4.56775440       3.88526338       0.93053551
Si      -3.23575833       2.43266028       4.10497285
Si       1.39904321       2.34404848       0.24643337
Si      -2.42320419       2.71154537       2.00951338
Si      -1.06223337      -0.65580715       5.94529175
Si      -2.62360020       1.14862356       6.74086038
Si       2.81896489       2.42954870       2.88232090
Si       1.76374438       4.28570163       3.38256990
Si      -4.75858174       1.17407665       7.24110938
Si       3.41021217       2.10376735       0.87109080
Si      -2.05243007       0.78880207       4.72963029
Si      -2.66732565       3.14625596       6.03481512
Si       1.04954564       1.50132317       2.17627564
18
Lattice="7.573832585596706 -0.7844794541051653 0.07179333990644247 -4.350915985415423 6.248830141427744 -0.07179333990736421 -2.611427085232681 -2.1423859648826564 7.803777632351826" Properties=species:S:1:pos:R:3 unique_starting_index=64 config_type=initial n_minim_iter=13 stress="-0.01601212114353696 -0.0009709112491338157 -0.014555261578646374 -0.0009709112491338157 -0.01708561869550251 0.008584806657937224 -0.014555261578646374 0.008584806657937224 0.01510793549373035" pbc="T T T"
Si      -0.86751867       2.49560732       5.15129800
Si       2.48883198       0.23075546       1.28530586
Si      -1.36808153       0.53154364       1.54767217
Si       1.35410881      -0.52330242       5.48545766
Si       4.51712679      -1.87094717       4.86541768
Si       4.56457911       3.87973829       0.92763219
Si      -3.23865609       2.43668882       4.10397964
Si       1.39319406       2.33440506       0.23798749
Si      -2.42918693       2.70159625       2.01335422
Si      -1.05843492      -0.64456972       5.95113971
Si      -2.63112217       1.15604591       6.75691597
Si       2.80790832       2.42231025       2.89092382
Si       1.76566751       4.27244065       3.38737319
Si      -4.75455316       1.17305339       7.25336534
Si       3.40403276       2.09813928       0.87766695
Si      -2.05900172       0.79117694       4.74365909
Si      -2.67752921       3.14627389       6.04148876
Si       1.04367178       1.50001395       2.17549661
18
Lattice="7.600804282062226 -0.8200672132314215 0.10251780297806895 -4.395110676103658 6.255216871798443 -0.10251780297898608 -2.578785262693333 -2.1419587236275843 7.758625187430797" Properties=species:S:1:pos:R:3 unique_starting_index=64 config_type=initial n_minim_iter=14 stress="-0.006944922302738915 -0.0024983245993516054 0.0029345659026774823 -0.0024983245993516054 -0.009707219416747605 -0.0017308298283212056 0.0029345659026774823 -0.0017308298283212056 0.012256175169353336" pbc="T T T"
Si      -0.87181659       2.49143918       5.14761947
Si       2.48756532       0.21852599       1.31956578
Si      -1.37158744       0.50965653       1.50336945
Si       1.40137424      -0.52722502       5.43394094
Si       4.55572430      -1.91402558       4.84862845
Si       4.57392442       3.85518037       0.91805696
Si      -3.22927344       2.43429217       4.05686383
Si       1.39699598       2.30934570       0.22881014
Si      -2.45176581       2.67804640       1.98067962
Si      -1.01894217      -0.63099579       5.91125111
Si      -2.62607765       1.15896743       6.73401595
Si       2.80495707       2.39847446       2.90596226
Si       1.78151625       4.24063086       3.37549006
Si      -4.73343425       1.16337974       7.20354375
Si       3.40382144       2.08152476       0.88543035
Si      -2.05895140       0.78820677       4.71348404
Si      -2.69952610       3.14557797       5.98289582
Si       1.03080324       1.50159413       2.15484213
18
Lattice="7.625047411515986 -0.8351599346455941 0.11742002037285867 -4.420048631941611 6.269131537587532 -0.11742002037377586 -2.5682076722535623 -2.147403534044138 7.735926695121048" Properties=species:S:1:pos:R:3 unique_starting_index=64 config_type=initial n_minim_iter=15 stress="0.002783625018943711 0.003875553891872941 0.0029771516510754092 0.003875553891872941 0.0070686692175247305 -0.0017559472344529853 0.0029771516510754092 -0.0017559472344529853 0.015588748948071402" pbc="T T T"
Si      -0.87699488       2.49262588       5.16256584
Si       2.49085417       0.21765976       1.35331250
Si      -1.37738766       0.48626697       1.46733772
Si       1.43644813      -0.52110130       5.39401108
Si       4.58221600      -1.93630791       4.83205744
Si       4.58813720       3.85186701       0.90538408
Si      -3.22484806       2.43190858       4.01960327
Si       1.40805588       2.30180202       0.21034994
Si      -2.47002702       2.65804462       1.95856338
Si      -0.99286202      -0.61560569       5.88523673
Si      -2.62208187       1.17298824       6.72455603
Si       2.80145251       2.38336999       2.91530269
Si       1.80337761       4.23642944       3.37316704
Si      -4.72670795       1.14992600       7.18242037
Si       3.40727345       2.08853320       0.89891271
Si      -2.07094241       0.78544077       4.70816605
Si      -2.72692302       3.15000025       5.96302780
Si       1.02051062       1.51860750       2.15377446
18
Lattice="7.638532108328237 -0.8308001354466978 0.1257206734454035 -4.422757228463301 6.283042267333147 -0.12572067344632357 -2.5667295804630177 -2.160588502514256 7.731698652992955" Properties=species:S:1:pos:R:3 unique_starting_index=64 config_type=initial n_minim_iter=16 stress="0.02460709286466776 0.006102945107499711 0.0013947082132017728 0.006102945107499711 0.03135487402235132 -0.0008226097682849534 0.0013947082132017728 -0.0008226097682849534 0.023585222596699863" pbc="T T T"
Si      -0.88863770       2.48499831       5.19016900
Si       2.49789987       0.24031193       1.38718001
Si      -1.38260231       0.45893309       1.44036328
Si       1.46532832      -0.50772554       5.36907295
Si       4.59787908      -1.93896979       4.82267959
Si       4.60133960       3.86213016       0.89396993
Si      -3.21761258       2.43566457       4.00029894
Si       1.41427272       2.30242493       0.19730995
Si      -2.47183860       2.63856409       1.94175679
Si      -0.96920836      -0.60900779       5.87046645
Si      -2.60944377       1.18151540       6.73528359
Si       2.80610767       2.37695631       2.93229460
Si       1.83632202       4.24751675       3.37420462
Si      -4.71569928       1.12522799       7.17719361
Si       3.40677159       2.10585368       0.91355134
Si      -2.08157075       0.78699815       4.71654033
Si      -2.75261623       3.15377210       5.95485564
Si       1.01078206       1.54804087       2.15186665
18
Lattice="7.6020181729477665 -0.8119549933646264 0.15495785191697806 -4.388598424056847 6.260204076980484 -0.15495785191789763 -2.5286864284021804 -2.1803355885063014 7.750224861671683" Properties=species:S:1:pos:R:3 unique_starting_index=64 config_type=initial n_minim_iter=17 stress="-0.000304415530623778 0.008292899343548741 -0.002640448579784424 0.008292899343548741 0.008864710022249457 0.0015573571402473696 -0.002640448579784424 0.0015573571402473696 -0.004040800031689803" pbc="T T T"
Si      -0.87135036       2.45750704       5.22673238
Si       2.49304475       0.25777952       1.42909887
Si      -1.37521879       0.41971519       1.42152285
Si       1.50398747      -0.49566396       5.37411421
Si       4.59303705      -1.94062677       4.84659538
Si       4.59732733       3.86362735       0.89400402
Si      -3.17535311       2.42224827       3.98953683
Si       1.40918163       2.29122797       0.19190333
Si      -2.44291266       2.60227395       1.90967686
Si      -0.92268886      -0.61721596       5.86226822
Si      -2.55108223       1.16866046       6.75831389
Si       2.80831578       2.35139573       2.96068038
Si       1.87449781       4.23904209       3.38076201
Si      -4.65488894       1.07262880       7.17839552
Si       3.39115981       2.11667762       0.93794023
Si      -2.06367339       0.77213508       4.73557373
Si      -2.74864294       3.12921356       5.95736850
Si       0.99691871       1.57574158       2.15973500
18
Lattice="7.598682582831136 -0.8165120402138636 0.19269998713977615 -4.39097278373447 6.255080088930762 -0.1926999871406943 -2.4870899304477896 -2.198345123134781 7.761893393467085" Properties=species:S:1:pos:R:3 unique_starting_index=64 config_type=initial n_minim_iter=18 stress="0.016848528941495546 -0.0057213282888612755 0.0003754229369037733 -0.0057213282888612755 0.010522686164827193 -0.0002214273725549748 0.0003754229369037733 -0.0002214273725549748 0.003139501668093384" pbc="T T T"
Si      -0.86359956       2.43512292       5.26013430
Si       2.49391856       0.26855238       1.47553760
Si      -1.37414992       0.38323248       1.40409113
Si       1.55556357      -0.49023166       5.38138782
Si       4.61459453      -1.96423264       4.87475619
Si       4.60357594       3.85778416       0.89745950
Si      -3.14224584       2.41278695       3.97251889
Si       1.41101376       2.27355736       0.18792218
Si      -2.43312050       2.57057516       1.86623178
Si      -0.87107901      -0.62173255       5.84352847
Si      -2.49732649       1.16476052       6.77417203
Si       2.81527090       2.31296353       2.98957533
Si       1.90735347       4.23153123       3.38540466
Si      -4.61566340       1.03110120       7.17000136
Si       3.38496713       2.12095771       0.95830818
Si      -2.05365923       0.75907666       4.74290488
Si      -2.75705836       3.11031523       5.94956760
Si       0.98692034       1.59897609       2.16497089
18
Lattice="7.555021415950995 -0.79351448023247 0.24557460309869444 -4.349721948976553 6.227995888920268 -0.24557460309961157 -2.423565070735444 -2.233058443877701 7.775192632458075" Properties=species:S:1:pos:R:3 unique_starting_index=64 config_type=initial n_minim_iter=19 stress="-0.006884330974610381 0.0014011704772143453 0.004397098730381606 0.0014011704772143453 -0.005335113084200113 -0.0025934430825643503 0.004397098730381606 -0.0025934430825643503 4.412971643632462e-05" pbc="T T T"
Si      -0.82607698       2.39712054       5.27807367
Si       2.49173815       0.28295552       1.51326465
Si      -1.36103615       0.34747476       1.40575429
Si       1.60313412      -0.49026603       5.41613791
Si       4.61572478      -1.97558491       4.92681328
Si       4.60171575       3.86405869       0.91642967
Si      -3.08109202       2.39094955       3.95289227
Si       1.40611953       2.25945828       0.18808326
Si      -2.39294262       2.53431622       1.81197950
Si      -0.80997567      -0.64521006       5.82236312
Si      -2.41585252       1.13897727       6.78143339
Si       2.82366121       2.28298999       3.01662438
Si       1.94887797       4.21725324       3.38404135
Si      -4.53189472       0.96872617       7.14885037
Si       3.37804237       2.13127523       0.97509487
Si      -2.01485644       0.72720309       4.73990388
Si      -2.72599574       3.06619667       5.93895231
Si       0.98696717       1.62199193       2.17414330
18
Lattice="7.5575619226001445 -0.8038510870782144 0.25740438389741666 -4.359997362550334 6.225218211652173 -0.25740438389833137 -2.4091169779590147 -2.2327418453066015 7.749799199412724" Properties=species:S:1:pos:R:3 unique_starting_index=64 config_type=initial n_minim_iter=20 stress="0.003949828751258791 -0.0022025347665760664 0.0008829472205091321 -0.0022025347665760664 0.0015145745689879428 -0.0005207691484046096 0.0008829472205091321 -0.0005207691484046096 -0.0057144184843760755" pbc="T T T"
Si      -0.82392780       2.39192877       5.26442778
Si       2.49136784       0.27825991       1.51823037
Si      -1.36135845       0.34287771       1.41247328
Si       1.61549568      -0.49276982       5.41607507
Si       4.62284880      -1.99302305       4.92665828
Si       4.60419458       3.85815660       0.92305649
Si      -3.07687470       2.38758019       3.92721113
Si       1.40515491       2.25207097       0.18101372
Si      -2.39350690       2.52802798       1.78648903
Si      -0.79625112      -0.64668385       5.79009082
Si      -2.40484515       1.13504750       6.75704676
Si       2.82647221       2.26993139       3.01084935
Si       1.94882869       4.20210497       3.37103419
Si      -4.52044240       0.96831064       7.11723160
Si       3.37567852       2.12647423       0.96825309
Si      -2.01357955       0.72380699       4.71445050
Si      -2.73274399       3.05729806       5.91709262
Si       0.98553623       1.62687650       2.17089521
18
Lattice="7.562791044844994 -0.815716809921748 0.2504454275541478 -4.372911813079275 6.224053709360778 -0.2504454275550603 -2.4140610461305383 -2.2210442495759573 7.756794505493046" Properties=species:S:1:pos:R:3 unique_starting_index=64 config_type=initial n_minim_iter=21 stress="-0.009632473712207627 0.002982225115114448 -0.004366283376628163 0.002982225115114448 -0.006335147243560662 0.0025752679468987096 -0.004366283376628163 0.0025752679468987096 -0.003103911110886724" pbc="T T T"
Si      -0.83623344       2.39915696       5.25819154
Si       2.48417485       0.27375062       1.50501700
Si      -1.36367676       0.35643197       1.44970811
Si       1.60265430      -0.49738279       5.45332807
Si       4.62310183      -2.00567763       4.94097124