24
Lattice="6.947783228169617 -1.8475990646429976 0.24674645790661298 0.6558964512448671 8.096633407227886 0.24923747081812292 2.058007172633868 2.900449996431512 9.646135484727521" Properties=species:S:1:pos:R:3 unique_starting_index=94 config_type=initial n_minim_iter=1 energy=-3921.9887046458916 free_energy=-3921.9887046458916 pbc="T T T"
Si       8.51777901       5.89705104       7.97045122
Si      -0.35846579       2.98506244       3.69040896
Si       2.75387221       6.85590350       1.43648289
Si       6.39743746       9.45807411       7.81023908
Si       5.31732332       1.53956916       1.81432611
Si       5.88624898       4.51580334       9.94249232
Si       4.53488440       0.70004235       3.59651933
Si       3.71046744       0.04404812       1.73038891
Si       6.82616770       0.37053517       5.92030558
Si       7.20333178       6.36885793       6.37594925
Si       4.70279534       6.24459198       9.53550063
Si       5.51429917       2.01378057       5.54056774
Si       1.23629274       6.16796212       2.74835756
Si       3.01834300       5.96059469       7.91004677
Si       7.05621818       3.19611509       4.50883526
Si       6.32071819       5.38503714       8.04690417
Si       5.20814900       2.60391751       9.22014305
Si       1.87795935       4.91338854       1.12667970
Si       7.02640295       2.63193741       2.45922764
Si       4.41273090       4.44666642       8.44620711
Si       6.09901609       4.62539103       3.24145842
Si       1.91005315       0.87323721       0.81524106
Si       4.82170129       8.85462396       9.15008936
Si       5.20741845       2.72341411       3.56634223
24
Lattice="6.947718161144008 -1.8474903693496145 0.24685270575632715 0.6556796421633702 8.095167380144352 0.24786594916283944 2.057649339768189 2.89829969808337 9.644998665884167" Properties=species:S:1:pos:R:3 unique_starting_index=94 config_type=initial n_minim_iter=2 stress="-0.0007538547975103125 -0.00032971901215064656 -4.6437407448972154e-05 -0.00032971901215064656 -0.0016244270406059005 -0.0008050445205044801 -4.6437407448972154e-05 -0.0008050445205044801 -0.0010146428330015062" pbc="T T T"
Si       8.51727534       5.89446044       7.96874819
Si      -0.35876867       2.98398265       3.68960592
Si       2.75368693       6.85441804       1.43521126
Si       6.39687037       9.45499444       7.80806247
Si       5.31730241       1.53886252       1.81380861
Si       5.88577472       4.51316595       9.94094206
Si       4.53477849       0.69928608       3.59612223
Si       3.71038813       0.04374952       1.73020345
Si       6.82593025       0.36919202       5.91978472
Si       7.20288265       6.36656801       6.37423062
Si       4.70226478       6.24190542       9.53384930
Si       5.51395071       2.01240503       5.53959925
Si       1.23612939       6.16638267       2.74710005
Si       3.01794174       5.95819213       7.90848594
Si       7.05594857       3.19462947       4.50786906
Si       6.32027746       5.38263933       8.04532838
Si       5.20773258       2.60173149       9.21897131
Si       1.87778464       4.91227396       1.12582625
Si       7.02616781       2.63085532       2.45835614
Si       4.41231383       4.44433777       8.44480286
Si       6.09863997       4.62392437       3.24031651
Si       1.90997916       0.87293950       0.81499231
Si       4.82123058       8.85153340       9.14789069
Si       5.20712532       2.72210486       3.56566752
24
Lattice="6.948490186266194 -1.8474415643567783 0.24682382009488912 0.6559806754314264 8.095741578203661 0.2473135570001961 2.0577235728761667 2.897894431333047 9.645757455560524" Properties=species:S:1:pos:R:3 unique_starting_index=94 config_type=initial n_minim_iter=3 stress="0.0008981983107908146 -0.00010675620066023084 -0.00034465778315323974 -0.00010675620066023084 0.0003078777292403559 -0.0013298787964966087 -0.00034465778315323974 -0.0013298787964966087 0.001601465918243283" pbc="T T T"
Si       8.51821420       5.89450100       7.96894270
Si      -0.35904926       2.98399173       3.68963635
Si       2.75428802       6.85490920       1.43486920
Si       6.39764943       9.45532064       7.80811649
Si       5.31818233       1.53894148       1.81369956
Si       5.88633238       4.51286234       9.94146763
Si       4.53536630       0.69933121       3.59644568
Si       3.71083036       0.04389576       1.73032821
Si       6.82665672       0.36877973       5.92035773
Si       7.20372694       6.36685637       6.37413628
Si       4.70266813       6.24200285       9.53448712
Si       5.51439099       2.01236546       5.53966138
Si       1.23651992       6.16663387       2.74687908
Si       3.01826349       5.95818305       7.90882139
Si       7.05683221       3.19473504       4.50799834
Si       6.32097506       5.38268999       8.04560846
Si       5.20813135       2.60129464       9.21958744
Si       1.87812794       4.91255520       1.12569170
Si       7.02702914       2.63099447       2.45807169
Si       4.41270738       4.44406763       8.44520338
Si       6.09926904       4.62424803       3.24015198
Si       1.91020224       0.87306908       0.81496211
Si       4.82191734       8.85178909       9.14804765
Si       5.20763082       2.72203172       3.56599032
24
Lattice="6.948137877494991 -1.8470745940007645 0.2467122595757551 0.6563654495192248 8.095895313059126 0.2486228148254714 2.0581202075548863 2.899614283430362 9.644481095455797" Properties=species:S:1:pos:R:3 unique_starting_index=94 config_type=initial n_minim_iter=4 stress="6.311223886278785e-05 -0.00013310799583770357 0.00010950900487757382 -0.00013310799583770357 -6.0222867313509796e-05 0.000275672401084307 0.00010950900487757382 0.000275672401084307 -0.0003134367838206482" pbc="T T T"
Si       8.51838770       5.89620744       7.96867188
Si      -0.35904544       2.98469206       3.68921403
Si       2.75473163       6.85539482       1.43590083
Si       6.39807779       9.45703741       7.80845855
Si       5.31841534       1.53941371       1.81373069
Si       5.88665295       4.51471421       9.94046502
Si       4.53550851       0.70031480       3.59615415
Si       3.71080912       0.04459604       1.73018681
Si       6.82668025       0.36982235       5.91972434
Si       7.20394409       6.36840703       6.37406913
Si       4.70302593       6.24408364       9.53412951
Si       5.51429698       2.01361334       5.53885502
Si       1.23704415       6.16717831       2.74735529
Si       3.01872383       5.95973106       7.90840901
Si       7.05696331       3.19585631       4.50798153
Si       6.32127519       5.38444992       8.04516141
Si       5.20829445       2.60293420       9.21841979
Si       1.87835897       4.91285650       1.12652266
Si       7.02698335       2.63167598       2.45806737
Si       4.41299436       4.44556128       8.44440709
Si       6.09919301       4.62516498       3.24048451
Si       1.91019989       0.87340657       0.81500654
Si       4.82260098       8.85376920       9.14788064
Si       5.20757604       2.72272218       3.56629369
24
Lattice="6.946105940681058 -1.8457187024960542 0.2463563549234528 0.6578775307784809 8.096399076902461 0.24854926696468846 2.057725705183499 2.9001234783888687 9.644479294276044" Properties=species:S:1:pos:R:3 unique_starting_index=94 config_type=initial n_minim_iter=5 stress="-0.0009988130707925342 0.0006987136180739121 -0.00034203435803501734 0.0006987136180739121 -0.00022140416545857964 0.00023861967281275508 -0.00034203435803501734 0.00023861967281275508 0.00032059310407689146" pbc="T T T"
Si       8.51702759       5.89803553       7.96820525
Si      -0.35870912       2.98477115       3.68901231
Si       2.75576452       6.85636363       1.43594110
Si       6.39806979       9.45874268       7.80801729
Si       5.31773196       1.54038312       1.81338965
Si       5.88566726       4.51603621       9.94012759
Si       4.53438791       0.70135682       3.59609458
Si       3.70996094       0.04572101       1.73019285
Si       6.82488894       0.37098463       5.91963686
Si       7.20314534       6.37013987       6.37347123
Si       4.70260669       6.24512828       9.53419519
Si       5.51289167       2.01462941       5.53880492
Si       1.23787803       6.16757858       2.74723060
Si       3.01886203       5.96065028       7.90831916
Si       7.05587935       3.19745369       4.50765154
Si       6.32045533       5.38610996       8.04482405
Si       5.20699605       2.60395419       9.21829644
Si       1.87903419       4.91362204       1.12662209
Si       7.02576796       2.63327668       2.45756245
Si       4.41239074       4.44670404       8.44425923
Si       6.09834679       4.62645369       3.24013913
Si       1.90989074       0.87402583       0.81490684
Si       4.82287530       8.85520542       9.14771274
Si       5.20666291       2.72404935       3.56591667
24
Lattice="6.9465305775861115 -1.8460141655640703 0.2471644539147707 0.6580626525091322 8.09808508919168 0.24821110330143023 2.058989269539198 2.9003400027853683 9.642181556454423" Properties=species:S:1:pos:R:3 unique_starting_index=94 config_type=initial n_minim_iter=6 stress="-0.00026845719439393925 6.791242553735096e-05 0.000536009438687297 6.791242553735096e-05 0.00039900949902066005 -0.0001631524142994369 0.000536009438687297 -0.0001631524142994369 -0.00034139204060896" pbc="T T T"
Si       8.51821448       5.89866378       7.96676763
Si      -0.35849319       2.98529540       3.68745068
Si       2.75693095       6.85796226       1.43604893
Si       6.39937879       9.46042663       7.80606891
Si       5.31897564       1.54025536       1.81343289
Si       5.88727099       4.51644837       9.93782557
Si       4.53499033       0.70163411       3.59590734
Si       3.71061338       0.04649317       1.73057922
Si       6.82610592       0.37040705       5.91929485
Si       7.20417170       6.37122465       6.37183280
Si       4.70379425       6.24571345       9.53251808
Si       5.51337105       2.01448404       5.53835591
Si       1.23833272       6.16846447       2.74627684
Si       3.02002995       5.96180846       7.90640572
Si       7.05720405       3.19802351       4.50718060
Si       6.32178253       5.38729435       8.04313093
Si       5.20813782       2.60390384       9.21660328
Si       1.87975894       4.91503205       1.12674414
Si       7.02659853       2.63396131       2.45737848
Si       4.41367057       4.44747138       8.44251160
Si       6.09867378       4.62698112       3.23973269
Si       1.91010202       0.87460506       0.81488286
Si       4.82442880       8.85686557       9.14569682
Si       5.20727008       2.72484769       3.56511474
24
Lattice="6.947275120176879 -1.8459947264453593 0.24593056388343254 0.657893285200432 8.097343768426054 0.2487998307961209 2.05764694026948 2.9008476891666812 9.641981348670368" Properties=species:S:1:pos:R:3 unique_starting_index=94 config_type=initial n_minim_iter=7 stress="0.00025506498246509923 -0.00023333024278856312 -0.00027784376768802264 -0.00023333024278856312 -0.0005332791639467433 0.0002579760216716644 -0.00027784376768802264 0.0002579760216716644 -6.818852657616053e-05" pbc="T T T"
Si       8.51758478       5.89841761       7.96576484
Si      -0.35917821       2.98537839       3.68760909
Si       2.75716392       6.85749513       1.43642617
Si       6.39857606       9.46001889       7.80571775
Si       5.31944163       1.53991932       1.81266753
Si       5.88635795       4.51662074       9.93709562
Si       4.53482338       0.70192431       3.59532265
Si       3.71079689       0.04686133       1.73013055
Si       6.82594716       0.37054354       5.91826141
Si       7.20369035       6.37095482       6.37091998
Si       4.70252493       6.24565938       9.53237850
Si       5.51283036       2.01447864       5.53763831
Si       1.23782209       6.16798211       2.74653606
Si       3.01896666       5.96197353       7.90632669
Si       7.05729147       3.19791198       4.50629619
Si       6.32105026       5.38747884       8.04241825
Si       5.20710198       2.60428217       9.21594865
Si       1.87991865       4.91481084       1.12697588
Si       7.02693850       2.63384679       2.45640139
Si       4.41274746       4.44773733       8.44213320
Si       6.09852685       4.62652209       3.23908974
Si       1.91015056       0.87469364       0.81467621
Si       4.82332978       8.85675659       9.14564627
Si       5.20712840       2.72482689       3.56437160
24
Lattice="6.945043165089847 -1.8445083190335698 0.24511249345431613 0.6602627826107806 8.100573794946905 0.24828152667215458 2.0569287353764634 2.9021457030497837 9.638799109453926" Properties=species:S:1:pos:R:3 unique_starting_index=94 config_type=initial n_minim_iter=8 stress="0.0005787546952555184 0.0005308887642534757 -0.0008256862917013642 0.0005308887642534757 0.0005409680393538508 -0.0004982423422863388 -0.0008256862917013642 -0.0004982423422863388 -0.0015080600299906886" pbc="T T T"
Si       8.51564950       5.90196484       7.96171010
Si      -0.35830257       2.98646484       3.68658110
Si       2.76021341       6.86145823       1.43684398
Si       6.39886843       9.46489316       7.80245773
Si       5.31927738       1.54094570       1.81140398
Si       5.88607688       4.51903544       9.93300830
Si       4.53307523       0.70457054       3.59428735
Si       3.70981798       0.04932192       1.72988511
Si       6.82392107       0.37204997       5.91558186
Si       7.20261829       6.37484740       6.36647590
Si       4.70134275       6.24826395       9.52980717
Si       5.51050203       2.01590768       5.53459843
Si       1.23856984       6.17025195       2.74518487
Si       3.01902166       5.96551089       7.90327046
Si       7.05655253       3.20077115       4.50393479
Si       6.32010559       5.39194185       8.03853919
Si       5.20520257       2.60649965       9.21267596
Si       1.88247586       4.91801810       1.12662590
Si       7.02593519       2.63743380       2.45437237
Si       4.41236431       4.45068324       8.43910211
Si       6.09764090       4.62944545       3.23675134
Si       1.90997564       0.87630055       0.81436753
Si       4.82394856       8.86134437       9.14238583
Si       5.20601395       2.72698365       3.56181487
24
Lattice="6.94309419425574 -1.8443566246093053 0.24595781371827677 0.660257895370486 8.100556698481542 0.2489418994622348 2.05767606919844 2.9027916635985793 9.641166813724496" Properties=species:S:1:pos:R:3 unique_starting_index=94 config_type=initial n_minim_iter=9 stress="-0.00036722626231655873 -0.00018081378405375277 2.7553660510947598e-05 -0.00018081378405375277 -6.987076967388491e-05 -0.00023427563754112725 2.7553660510947598e-05 -0.00023427563754112725 4.9439376729873824e-05" pbc="T T T"
Si       8.51397872       5.90207814       7.96456463
Si      -0.35746502       2.98682266       3.68753262
Si       2.76059692       6.86184816       1.43871390
Si       6.39813364       9.46528058       7.80560703
Si       5.31851107       1.54054176       1.81259227
Si       5.88620949       4.51943846       9.93581853
Si       4.53206274       0.70549389       3.59597384
Si       3.70901513       0.05014502       1.73107636
Si       6.82286391       0.37228628       5.91758914
Si       7.20120524       6.37512535       6.36833518
Si       4.70092758       6.24850948       9.53327028
Si       5.50920399       2.01593987       5.53619125
Si       1.23843970       6.17030642       2.74620779
Si       3.01922945       5.96641768       7.90555321
Si       7.05541648       3.20095595       4.50595110
Si       6.31936516       5.39295988       8.04105062
Si       5.20479969       2.60719644       9.21542383
Si       1.88298858       4.91850746       1.12768009
Si       7.02438263       2.63793232       2.45573813
Si       4.41246024       4.45143106       8.44170488
Si       6.09613943       4.62941501       3.23825172
Si       1.90965607       0.87674059       0.81494738
Si       4.82400338       8.86210258       9.14560105
Si       5.20492954       2.72716197       3.56296867
24
Lattice="6.942947864611729 -1.8425994291767076 0.24610212001364554 0.662165010739124 8.100143528482059 0.24956504926864456 2.0588186040613086 2.9037709312075517 9.641404780529207" Properties=species:S:1:pos:R:3 unique_starting_index=94 config_type=initial n_minim_iter=10 stress="0.0008796852360365191 0.0007033371004266119 0.0004087088843562978 0.0007033371004266119 -0.0009300629053332777 -0.00022895306315271228 0.0004087088843562978 -0.00022895306315271228 0.00018238861948065014" pbc="T T T"
Si       8.51549959       5.90370677       7.96498959
Si      -0.35620029       2.98694905       3.68781519
Si       2.76291840       6.86217785       1.43996900
Si       6.40076039       9.46651793       7.80667672
Si       5.31961913       1.54127989       1.81314061
Si       5.88825746       4.52118745       9.93577634
Si       4.53230008       0.70726948       3.59655033
Si       3.70918435       0.05149704       1.73164968
Si       6.82344988       0.37409108       5.91765290
Si       7.20292236       6.37660859       6.36839955
Si       4.70254408       6.24939893       9.53442882
Si       5.50963225       2.01713128       5.53622248
Si       1.24010181       6.17043017       2.74654480
Si       3.02095075       5.96760585       7.90601268
Si       7.05661514       3.20235470       4.50637700
Si       6.32099661       5.39492486       8.04155713
Si       5.20584489       2.60894552       9.21574805
Si       1.88488114       4.91889328       1.12862685
Si       7.02544522       2.63964791       2.45596524
Si       4.41410694       4.45291661       8.44213443
Si       6.09711190       4.63046816       3.23858406
Si       1.91012286       0.87742827       0.81524040
Si       4.82673136       8.86362312       9.14657596
Si       5.20585948       2.72840405       3.56294081
24
Lattice="6.940077363414489 -1.8432379616555101 0.24429790888412398 0.6617691439593704 8.102788542741164 0.2501118878269563 2.0557061020031524 2.9055522758702086 9.640403719563148" Properties=species:S:1:pos:R:3 unique_starting_index=94 config_type=initial n_minim_iter=11 stress="0.00011657494893373599 -6.326148773779235e-05 -0.0002614611609173143 -6.326148773779235e-05 0.00010706680454678764 -0.00033093019021422654 -0.0002614611609173143 -0.00033093019021422654 0.00023692870395318743" pbc="T T T"
Si       8.50918728       5.90535997       7.96228378
Si      -0.35614270       2.98848692       3.68798290
Si       2.76231686       6.86455436       1.44088132
Si       6.39604719       9.46999878       7.80564306
Si       5.31781382       1.54101469       1.81223804
Si       5.88424455       4.52338744       9.93308064
Si       4.52925407       0.70863791       3.59594914
Si       3.70714790       0.05219840       1.73145358
Si       6.81925772       0.37436313       5.91523423
Si       7.19794763       6.37883387       6.36566112
Si       4.69761069       6.25150876       9.53411189
Si       5.50521683       2.01766657       5.53419710
Si       1.23912603       6.17289834       2.74630577
Si       3.01762327       5.97084156       7.90509895
Si       7.05256282       3.20306713       4.50448548
Si       6.31615605       5.39784271       8.03974343
Si       5.20135645       2.61066390       9.21397731
Si       1.88487453       4.92089401       1.12955915
Si       7.02212776       2.64076886       2.45391563
Si       4.41049011       4.45535322       8.44071633
Si       6.09297647       4.63178401       3.23687720
Si       1.90953058       0.87819552       0.81509412
Si       4.82279270       8.86803992       9.14586501
Si       5.20284064       2.72961143       3.56097269
24
Lattice="6.936667851570397 -1.8411994983207143 0.24376256810819902 0.6641561359228981 8.104255234961096 0.25116776146256686 2.0554686111933895 2.9079785089738563 9.639854297955196" Properties=species:S:1:pos:R:3 unique_starting_index=94 config_type=initial n_minim_iter=12 stress="0.0003700464369190352 0.00015523410002719757 -5.705443383903923e-05 0.00015523410002719757 0.000125180125847446 -0.0002905747352178129 -5.705443383903923e-05 -0.0002905747352178129 0.0004319530581243355" pbc="T T T"
Si       8.50580396       5.90836677       7.96110432
Si      -0.35373325       2.98984786       3.68778034
Si       2.76450931       6.86639577       1.44257983
Si       6.39609884       9.47443066       7.80599178
Si       5.31684026       1.54145081       1.81225284
Si       5.88462492       4.52623781       9.93198877
Si       4.52739079       0.71196866       3.59716797
Si       3.70543429       0.05467427       1.73232503
Si       6.81615577       0.37671108       5.91409001
Si       7.19572581       6.38278096       6.36367037
Si       4.69573120       6.25455731       9.53584853
Si       5.50199230       2.01956791       5.53349577
Si       1.24078725       6.17525216       2.74649986
Si       3.01761461       5.97488741       7.90492575
Si       7.05012790       3.20515266       4.50373045
Si       6.31467049       5.40288505       8.03866592
Si       5.19972132       2.61444815       9.21320210
Si       1.88779555       4.92241052       1.13182812
Si       7.02105820       2.64426471       2.45326219
Si       4.40992754       4.45924510       8.43994397
Si       6.09057573       4.63456062       3.23607680
Si       1.91027069       0.87949262       0.81563561
Si       4.82356501       8.87385669       9.14740203
Si       5.20124066       2.73256059       3.55968120
24
Lattice="6.933246964530703 -1.8398344356392624 0.2417439224827886 0.6660965492346462 8.10740946068826 0.2538089979596095 2.0535531209029307 2.912918253678363 9.639376219343127" Properties=species:S:1:pos:R:3 unique_starting_index=94 config_type=initial n_minim_iter=13 stress="0.0003925145361837939 0.00015236405017807883 -0.0001106497045475947 0.00015236405017807883 0.00034097389095232933 -6.582742834428268e-05 -0.0001106497045475947 -6.582742834428268e-05 0.0005189973434667937" pbc="T T T"
Si       8.50048547       5.91328575       7.95951115
Si      -0.35236517       2.99273606       3.68775269
Si       2.76624153       6.87004683       1.44466206
Si       6.39452733       9.48236397       7.80690804
Si       5.31641456       1.54250078       1.81290911
Si       5.88300892       4.53205962       9.93012664
Si       4.52566064       0.71591293       3.59802604
Si       3.70347641       0.05721538       1.73314855
Si       6.81188722       0.37968029       5.91207539
Si       7.19163493       6.38925977       6.36132023
Si       4.69201131       6.25945578       9.53798844
Si       5.49746985       2.02285678       5.53175825
Si       1.24075703       6.17940348       2.74812345
Si       3.01556838       5.98212534       7.90526975
Si       7.04658329       3.20853476       4.50241362
Si       6.31154008       5.41051728       8.03733221
Si       5.19683386       2.62062544       9.21189794
Si       1.89119275       4.92492777       1.13493230
Si       7.01934595       2.64851504       2.45184906
Si       4.40780066       4.46604629       8.43922509
Si       6.08774945       4.63920274       3.23484603
Si       1.91139389       0.88068779       0.81622329
Si       4.82190584       8.88328765       9.15056502
Si       5.19849737       2.73604025       3.55801649
24
Lattice="6.93026076681228 -1.8386952174889288 0.2410865129991881 0.6675977789920208 8.109551141721887 0.2563544979876362 2.053390148714705 2.917143367438074 9.638386457111439" Properties=species:S:1:pos:R:3 unique_starting_index=94 config_type=initial n_minim_iter=14 stress="-0.0002162035325574605 -0.00012772615220142672 -9.621667328340497e-06 -0.00012772615220142672 7.283632922432325e-05 -1.8318055025503325e-05 -9.621667328340497e-06 -1.8318055025503325e-05 9.583825575194024e-05" pbc="T T T"
Si       8.49667375       5.91667431       7.95875083
Si      -0.35082193       2.99527211       3.68780502
Si       2.76763010       6.87315460       1.44695078
Si       6.39393698       9.48906310       7.80867974
Si       5.31658268       1.54325322       1.81350022
Si       5.88386180       4.53691110       9.92896786
Si       4.52445935       0.71814951       3.59931768
Si       3.70243258       0.05939832       1.73504034
Si       6.80886735       0.38230406       5.91092650
Si       7.18854755       6.39445919       6.35983296
Si       4.69020156       6.26294046       9.53992673
Si       5.49460893       2.02544260       5.52982451
Si       1.24070217       6.18210818       2.74942640
Si       3.01440319       5.98841529       7.90535810
Si       7.04400925       3.21164482       4.50219159
Si       6.30989068       5.41664127       8.03648443
Si       5.19620487       2.62557985       9.21017550
Si       1.89455074       4.92631548       1.13857101
Si       7.01796994       2.65228945       2.45153300
Si       4.40705536       4.47156798       8.43843207
Si       6.08530860       4.64256065       3.23449903
Si       1.91256255       0.88121070       0.81701913
Si       4.82154507       8.89098866       9.15280917
Si       5.19668046       2.73995538       3.55732648
24
Lattice="6.9277554112353315 -1.8371953605846434 0.23982721747113006 0.6692648154531037 8.110855243679373 0.26046367002314114 2.053034825782376 2.9229322724590436 9.639242263268898" Properties=species:S:1:pos:R:3 unique_starting_index=94 config_type=initial n_minim_iter=15 stress="-0.00022702194749195433 -6.377661905632928e-05 -4.782264793840707e-05 -6.377661905632928e-05 2.7148764667495645e-05 0.00029603316399995984 -4.782264793840707e-05 0.00029603316399995984 -4.8814216991349406e-05" pbc="T T T"
Si       8.49285868       5.92080432       7.95958527
Si      -0.34949142       2.99821084       3.68899852
Si       2.76913769       6.87610921       1.45099974
Si       6.39364516       9.49654988       7.81291483
Si       5.31719293       1.54479067       1.81518426
Si       5.88529030       4.54265546       9.93053887
Si       4.52388035       0.72112668       3.60080215
Si       3.70176802       0.06196585       1.73724798
Si       6.80595644       0.38647189       5.91059297
Si       7.18584612       6.40022392       6.36029379
Si       4.68846900       6.26789422       9.54453803
Si       5.49214340       2.02878037       5.52927101
Si       1.24131105       6.18471331       2.75204548
Si       3.01305551       5.99558282       7.90771166
Si       7.04187548       3.21597323       4.50313647
Si       6.30845865       5.42363678       8.03757516
Si       5.19603660       2.63239652       9.20994835
Si       1.89858688       4.92711771       1.14369378
Si       7.01633890       2.65613030       2.45161758
Si       4.40594078       4.47801171       8.43918917
Si       6.08287896       4.64643212       3.23513872
Si       1.91410617       0.88176090       0.81785826
Si       4.82108814       8.89943878       9.15716058
Si       5.19476597       2.74365900       3.55618893
24
Lattice="6.925090272355258 -1.8366524584786792 0.2403869525900938 0.6698726993215327 8.112020213887295 0.2633657732053364 2.0542407191334404 2.9268259113327417 9.640476989056255" Properties=species:S:1:pos:R:3 unique_starting_index=94 config_type=initial n_minim_iter=16 stress="-0.0008418512447699587 -0.00032604262412470447 0.00011832679124277877 -0.00032604262412470447 -0.0002411120154914458 0.00027881893927256485 0.00011832679124277877 0.00027881893927256485 -0.0004296829629651437" pbc="T T T"
Si       8.48917435       5.92242488       7.96137750
Si      -0.34756328       3.00053942       3.68984517
Si       2.76982639       6.87819947       1.45452037
Si       6.39344994       9.50189836       7.81683943
Si       5.31709808       1.54475743       1.81683557
Si       5.88758980       4.54622825       9.93296241
Si       4.52387708       0.72305103       3.60303074
Si       3.70117856       0.06296316       1.74041379
Si       6.80392413       0.38927496       5.91234677
Si       7.18361810       6.40377468       6.36180231
Si       4.68814278       6.27007620       9.54932806
Si       5.49028422       2.03101235       5.52995269
Si       1.24202704       6.18627114       2.75352204
Si       3.01252511       6.00053662       7.91038302
Si       7.03972519       3.21928463       4.50489773
Si       6.30742831       5.42767801       8.04028598
Si       5.19735452       2.63706699       9.21114917
Si       1.90227871       4.92761717       1.14869853
Si       7.01494347       2.65941351       2.45334258
Si       4.40523794       4.48300705       8.44065505
Si       6.08025734       4.64959528       3.23633773
Si       1.91559066       0.88243174       0.81845098
Si       4.82078719       8.90546119       9.16105009
Si       5.19224876       2.74540194       3.55678111
24
Lattice="6.92320231367053 -1.8356922824397681 0.2414795999536898 0.6708265533357524 8.112164926407317 0.26518308987871375 2.0561669977345027 2.929097669177501 9.64150341145704" Properties=species:S:1:pos:R:3 unique_starting_index=94 config_type=initial n_minim_iter=17 stress="-0.00044093487277025557 -0.00025386526265610453 0.00012050582244796046 -0.00025386526265610453 -0.00023769874105033354 0.0002152470888203411 0.00012050582244796046 0.0002152470888203411 -0.00042614324669089533" pbc="T T T"
Si       8.48690244       5.92236221       7.96277316
Si      -0.34488981       3.00210113       3.69044704
Si       2.77164740       6.87918632       1.45647767
Si       6.39463653       9.50508531       7.81956025
Si       5.31832300       1.54477266       1.81831643
Si       5.89081676       4.54787681       9.93516653
Si       4.52413432       0.72402083       3.60542620
Si       3.70081722       0.06325916       1.74336314
Si       6.80314210       0.39170693       5.91464814
Si       7.18296163       6.40585660       6.36302383
Si       4.68923593       6.27090964       9.55401145
Si       5.48923591       2.03316524       5.53075620
Si       1.24315622       6.18734407       2.75461102
Si       3.01266895       6.00359294       7.91268955
Si       7.03820401       3.22240320       4.50593771
Si       6.30784155       5.42974629       8.04274448