22
Lattice="5.437353805847256 -0.8030076705283333 -1.7669902410905765 -2.517740255029841 10.041904812953915 -1.6723331925727243 -4.967018404660221 -4.352989532477082 11.944818399280328" Properties=species:S:1:pos:R:3 unique_starting_index=18 config_type=initial n_minim_iter=1 energy=-3587.399718721713 free_energy=-3587.399718721713 pbc="T T T"
Si       0.24168540       8.42802708      -0.78706895
Si      -1.83672458      -0.39241244       6.71048229
Si      -4.48986720      -2.94582830      10.82169702
Si      -0.45213980      -2.23409708       9.63077092
Si      -5.73692683       0.45418789      10.37304313
Si       3.97339371       1.85697881      -0.25118765
Si       2.42411740       0.19555728      -0.18861231
Si      -2.16895398       0.67737565       8.51598592
Si      -2.47923193      -2.75919489      10.16660693
Si      -3.11349736       1.31744448       6.55941270
Si       0.62902381       0.51237879       3.50980928
Si      -2.98692662       3.21836041       5.09498022
Si      -3.15884209      -2.20215131       6.79703110
Si      -0.97478970       6.68640995      -0.59586554
Si       0.97213093       2.13694938       4.82552298
Si       0.90978290       6.56593593      -1.57747191
Si      -0.65339425      -1.20368668       3.15711963
Si       1.75647600      -4.16379000       6.75856214
Si       0.14050030       2.59024609       2.92466063
Si      -3.38540432       2.42248582       8.35586267
Si      -1.42295892       4.02742337       3.48249434
Si      -2.13058967      -1.47058351       8.51001360
22
Lattice="5.42176939466221 -0.8046067943332864 -1.7634785914386426 -2.5171418148597886 10.021666752891399 -1.6710889036867766 -4.942618315056531 -4.337488935259339 11.9413717350076" Properties=species:S:1:pos:R:3 unique_starting_index=18 config_type=initial n_minim_iter=2 stress="-0.018131023843149983 0.0034688807379077307 0.0031596522992639207 0.0034688807379077307 -0.008950556285415075 0.001808909259335985 0.0031596522992639207 0.001808909259335985 -0.019588180345537397" pbc="T T T"
Si       0.23637503       8.40953249      -0.78401188
Si      -1.82661699      -0.38846412       6.70982440
Si      -4.46772703      -2.93385859      10.81878487
Si      -0.44305421      -2.22608449       9.63120525
Si      -5.71437215       0.45956704      10.37030140
Si       3.96149739       1.85105719      -0.24796190
Si       2.41715138       0.19414226      -0.18682562
Si      -2.15736218       0.68049800       8.51550155
Si      -2.46342530      -2.74854725      10.16555845
Si      -3.10057036       1.31833524       6.55847076
Si       0.62930975       0.51219624       3.51053568
Si      -2.97703781       3.21445341       5.09499703
Si      -3.14417697      -2.19376640       6.79479841
Si      -0.97581584       6.67257442      -0.59454758
Si       0.97202272       2.13433889       4.82737858
Si       0.90257453       6.55156517      -1.57430021
Si      -0.64858251      -1.19972808       3.15668079
Si       1.75868789      -4.15382665       6.75904767
Si       0.14118580       2.58530510       2.92643827
Si      -3.37082226       2.42159415       8.35520316
Si      -1.41852403       4.02088588       3.48334672
Si      -2.11739337      -1.46378179       8.50947969
22
Lattice="5.41890017738249 -0.8099110389603438 -1.7667315968346762 -2.527563537217951 10.01243539360409 -1.6759859723319706 -4.929997060312469 -4.325304419330387 11.97553024290079" Properties=species:S:1:pos:R:3 unique_starting_index=18 config_type=initial n_minim_iter=3 stress="-0.013324689455292124 0.0022332627132302203 0.008111241954310656 0.0022332627132302203 -0.00501130029705638 0.00016387034770392705 0.008111241954310656 0.00016387034770392705 0.006688719735771424" pbc="T T T"
Si       0.22653910       8.39838378      -0.78481304
Si      -1.82228549      -0.38509922       6.72927987
Si      -4.45697058      -2.92413657      10.84982596
Si      -0.43692810      -2.22183356       9.66079196
Si      -5.70782560       0.46680983      10.39961809
Si       3.95701022       1.84445215      -0.24737640
Si       2.41509589       0.19162293      -0.18630398
Si      -2.15383691       0.68449279       8.54029718
Si      -2.45360125      -2.74053562      10.19574941
Si      -3.09688210       1.32096742       6.57756463
Si       0.62910391       0.51143317       3.52076018
Si      -2.97718468       3.21393258       5.11043080
Si      -3.13706572      -2.18683552       6.81385043
Si      -0.98301510       6.66538742      -0.59589894
Si       0.97082779       2.13288850       4.84288161
Si       0.89370297       6.54303399      -1.57697067
Si      -0.64510070      -1.19711591       3.16603947
Si       1.76495094      -4.15019727       6.77930672
Si       0.13984615       2.58153861       2.93667087
Si      -3.36727288       2.42316867       8.37955762
Si      -1.42069490       4.01818342       3.49416920
Si      -2.11031359      -1.45903287       8.53531328
22
Lattice="5.428501639530906 -0.822643902190339 -1.776705073160318 -2.551378873207111 9.997422809754834 -1.6658444194269655 -4.9447746259107195 -4.297813335231984 11.980606433026827" Properties=species:S:1:pos:R:3 unique_starting_index=18 config_type=initial n_minim_iter=4 stress="-0.006443888711782347 -0.004966263525489675 -0.0013329733662313145 -0.004966263525489675 -0.013061312795075004 0.004233050653963912 -0.0013329733662313145 0.004233050653963912 -0.00382876508019822" pbc="T T T"
Si       0.20725261       8.37866345      -0.77948501
Si      -1.83495912      -0.37643265       6.73177284
Si      -4.47238453      -2.90166925      10.85506394
Si      -0.45058501      -2.21150207       9.66032709
Si      -5.73317740       0.48594728      10.40798093
Si       3.95603762       1.83082148      -0.25496248
Si       2.41582426       0.18637883      -0.19057197
Si      -2.17371709       0.69581557       8.54131825
Si      -2.46403668      -2.72192382      10.19776980
Si      -3.11320323       1.32934056       6.58301808
Si       0.62054426       0.51150742       3.51757878
Si      -2.99756423       3.21569664       5.11815070
Si      -3.14605636      -2.17092511       6.81721017
Si      -0.99994060       6.65297171      -0.59015399
Si       0.95659371       2.13229266       4.84141509
Si       0.88045317       6.52739220      -1.57308754
Si      -0.64717336      -1.19139287       3.16631324
Si       1.76423099      -4.14281052       6.77142090
Si       0.12927741       2.57487087       2.93984699
Si      -3.38946363       2.43030560       8.38483877
Si      -1.43795795       4.01539143       3.49884323
Si      -2.12246618      -1.44740204       8.53778530
22
Lattice="5.425417519074671 -0.8195765921483815 -1.7738803186140757 -2.5454754312441104 10.023382165864104 -1.6786284053460505 -4.944075314020275 -4.327758220592765 11.976158351961864" Properties=species:S:1:pos:R:3 unique_starting_index=18 config_type=initial n_minim_iter=5 stress="-0.008973163626111731 -0.004620706040405295 0.0015559832587647556 -0.004620706040405295 0.0027616399574749008 -0.002450609385695258 0.0015559832587647556 -0.002450609385695258 -0.0059666933455976975" pbc="T T T"
Si       0.21153713       8.39890664      -0.78849481
Si      -1.83447719      -0.38786053       6.72764205
Si      -4.46940373      -2.92621909      10.84951356
Si      -0.45224315      -2.23267421       9.65682751
Si      -5.73077769       0.47097142      10.39613336
Si       3.95551582       1.83789858      -0.25901105
Si       2.41270428       0.19005638      -0.19031571
Si      -2.17333727       0.68771659       8.52830265
Si      -2.46179189      -2.74252241      10.19370757
Si      -3.10960352       1.32215161       6.57514262
Si       0.61883185       0.51043706       3.51105930
Si      -2.99625060       3.21171549       5.11157782
Si      -3.14482608      -2.18752109       6.81354446
Si      -0.99746073       6.66805986      -0.59822097
Si       0.95667629       2.13633427       4.83451108
Si       0.88199181       6.54710048      -1.57875537
Si      -0.64612212      -1.19964004       3.16528494
Si       1.76128942      -4.16229798       6.76897502
Si       0.13148445       2.57259757       2.93671467
Si      -3.38478771       2.42222999       8.37248765
Si      -1.43502931       4.01966202       3.49065681
Si      -2.12058640      -1.46579379       8.53215035
22
Lattice="5.431377767866345 -0.8074679795002313 -1.7774186898426123 -2.5261169828396914 10.000360750776963 -1.6722669706436544 -4.964578779409856 -4.323979764382867 11.981851539273613" Properties=species:S:1:pos:R:3 unique_starting_index=18 config_type=initial n_minim_iter=6 stress="-0.0010725252273796628 0.007634908442464194 0.002553192430451447 0.007634908442464194 -0.009373277969108907 7.888078048169139e-05 0.002553192430451447 7.888078048169139e-05 -0.0054376420160652215" pbc="T T T"
Si       0.23076790       8.38455440      -0.78171030
Si      -1.84075320      -0.38760699       6.73309393
Si      -4.48408267      -2.92391984      10.85523357
Si      -0.46134676      -2.22547020       9.66175819
Si      -5.74200100       0.46502700      10.40248910
Si       3.96591675       1.84371007      -0.26010086
Si       2.41449307       0.19640092      -0.19099805
Si      -2.17839409       0.68886384       8.53028483
Si      -2.47435852      -2.73607665      10.19932022
Si      -3.11314573       1.31833936       6.58000188
Si       0.61838174       0.51625923       3.51127009
Si      -2.99600775       3.20004033       5.11920188
Si      -3.15596466      -2.18675063       6.81613952
Si      -0.98505780       6.65309250      -0.59282626
Si       0.96081106       2.14086061       4.84002579
Si       0.89763260       6.53769802      -1.57455022
Si      -0.64962978      -1.19769156       3.16656604
Si       1.75184421      -4.14769095       6.76734950
Si       0.13641151       2.56628103       2.94157101
Si      -3.38635334       2.41644345       8.37891844
Si      -1.42907855       4.01200042       3.49617982
Si      -2.12867259      -1.46333095       8.53607262
22
Lattice="5.435036505752608 -0.813521290820295 -1.7961061795526638 -2.525939882234592 9.994525248843201 -1.6471419140128365 -4.989843242051516 -4.293009624427897 12.011733202038064" Properties=species:S:1:pos:R:3 unique_starting_index=18 config_type=initial n_minim_iter=7 stress="-0.003538277622884941 0.004959427802359181 -0.002317665576711399 0.004959427802359181 0.005864382684018961 0.010616857662097698 -0.002317665576711399 0.010616857662097698 0.004218599129618313" pbc="T T T"
Si       0.22891420       8.38058083      -0.75807313
Si      -1.85686879      -0.37391381       6.75515861
Si      -4.50067923      -2.89459051      10.88376039
Si      -0.48176050      -2.20621541       9.68240517
Si      -5.76811753       0.49220903      10.43602529
Si       3.96912804       1.84192361      -0.26611770
Si       2.40910868       0.19845471      -0.19518745
Si      -2.19746140       0.71140685       8.54700949
Si      -2.49832190      -2.70838339      10.22419721
Si      -3.12987309       1.33826236       6.60246794
Si       0.60787390       0.53471609       3.51581040
Si      -3.01112917       3.20305881       5.15019003
Si      -3.16919676      -2.16960908       6.83203691
Si      -0.98956002       6.64675864      -0.57297918
Si       0.94893100       2.15726548       4.86068975
Si       0.89767743       6.53103691      -1.56324395
Si      -0.65292853      -1.19123545       3.17298311
Si       1.73830448      -4.13198437       6.76482170
Si       0.12804270       2.55968951       2.95740760
Si      -3.40658547       2.44013862       8.41075132
Si      -1.43762642       4.01888842       3.51866848
Si      -2.14447667      -1.44349145       8.55554996
22
Lattice="5.443441553460006 -0.8147461653393375 -1.7996848795535094 -2.5388084534372832 9.974488166277055 -1.6620848500327414 -4.997953385769504 -4.294359695736195 12.032191424316284" Properties=species:S:1:pos:R:3 unique_starting_index=18 config_type=initial n_minim_iter=8 stress="0.0010213374323251622 0.005124953988347353 -0.0023339587603005683 0.005124953988347353 -0.00670223086243307 0.0021502346342992906 -0.0023339587603005683 0.0021502346342992906 0.002590469582449891" pbc="T T T"
Si       0.22036155       8.36039984      -0.76691115
Si      -1.86308865      -0.38249898       6.76407824
Si      -4.50567617      -2.89714944      10.90064683
Si      -0.48420907      -2.21711656       9.69607894
Si      -5.78301558       0.48273323      10.44465558
Si       3.97492599       1.83404619      -0.27148216
Si       2.40811596       0.19777381      -0.19572599
Si      -2.20475199       0.70024416       8.54829479
Si      -2.50481865      -2.71213305      10.23906778
Si      -3.14010328       1.33171247       6.60610445
Si       0.60473853       0.53569174       3.51604794
Si      -3.02309065       3.18420613       5.15546755
Si      -3.17354008      -2.17099952       6.84180792
Si      -0.99939138       6.62945065      -0.58072228
Si       0.94557709       2.14726288       4.86529934
Si       0.89164543       6.51573648      -1.57379626
Si      -0.65162150      -1.19302170       3.17826927
Si       1.74181575      -4.13352530       6.77333684
Si       0.12313009       2.54001497       2.95810894
Si      -3.41871300       2.42839756       8.41666802
Si      -1.44488396       4.00467254       3.51785886
Si      -2.14872638      -1.45112030       8.56562056
22
Lattice="5.446788438287021 -0.8191908653685978 -1.7950540691495682 -2.5470380164664133 9.971540320034071 -1.6516579692949498 -4.989384286408165 -4.276862884779845 12.01776308664087" Properties=species:S:1:pos:R:3 unique_starting_index=18 config_type=initial n_minim_iter=9 stress="0.007181325175729734 0.0031809473324123346 0.005265467840409469 0.0031809473324123346 -0.004559032024155143 0.010793944193048499 0.005265467840409469 0.010793944193048499 -0.0023733011886469028" pbc="T T T"
Si       0.21666213       8.35788283      -0.75297390
Si      -1.85890299      -0.37498378       6.75726685
Si      -4.49854609      -2.88058677      10.88957551
Si      -0.47383468      -2.20654771       9.68932036
Si      -5.77884826       0.49737116      10.43305691
Si       3.97937670       1.83208928      -0.26563870
Si       2.40712117       0.19755744      -0.19191794
Si      -2.19855141       0.71208030       8.54025409
Si      -2.49474969      -2.69663894      10.22762999
Si      -3.13866798       1.34317038       6.60061932
Si       0.60777603       0.54420206       3.51524529
Si      -3.02465282       3.18573267       5.15796763
Si      -3.16843965      -2.16138093       6.83232293
Si      -1.00413310       6.62674315      -0.57186211
Si       0.95097469       2.15444422       4.86897686
Si       0.88651507       6.51222906      -1.56429097
Si      -0.64755659      -1.18885424       3.17496316
Si       1.75229867      -4.12518516       6.76555175
Si       0.12330641       2.53801021       2.96037832
Si      -3.41615794       2.44199670       8.41475999
Si      -1.44404318       4.00814301       3.52071804
Si      -2.14182562      -1.44158062       8.55888859
22
Lattice="5.443243119808414 -0.8164922856037216 -1.8025370313463382 -2.538678381507153 9.969063635251736 -1.652278226484561 -5.0011388449817105 -4.281416659518486 12.030928339947101" Properties=species:S:1:pos:R:3 unique_starting_index=18 config_type=initial n_minim_iter=10 stress="0.0006869432181537453 0.007607827637343115 -0.0029724723344462635 0.007607827637343115 -0.008221667453978667 0.008817374751842239 -0.0029724723344462635 0.008817374751842239 -0.0015648595621186793" pbc="T T T"
Si       0.22149890       8.35658051      -0.75382868
Si      -1.86622261      -0.37865371       6.76041621
Si      -4.50944703      -2.88422555      10.90184969
Si      -0.48561243      -2.21006215       9.69477052
Si      -5.78589931       0.49169681      10.44305176
Si       3.97783683       1.83363562      -0.27139795
Si       2.40305747       0.19914134      -0.19407113
Si      -2.20639873       0.70950507       8.54484155
Si      -2.50478679      -2.69932098      10.23509431
Si      -3.14433894       1.34152239       6.60609265
Si       0.60310244       0.54550928       3.51611375
Si      -3.02791064       3.17855472       5.16505408
Si      -3.17413677      -2.16440492       6.83925207
Si      -0.99993532       6.62444787      -0.57198941
Si       0.94495349       2.15417306       4.87136589
Si       0.88866303       6.51205183      -1.56811950
Si      -0.65091279      -1.18964444       3.17749562
Si       1.74137894      -4.12547826       6.76686654
Si       0.11882411       2.53438200       2.96038426
Si      -3.42305865       2.43926573       8.42377619
Si      -1.44496390       4.00531541       3.52337120
Si      -2.15094581      -1.44594571       8.56592574
22
Lattice="5.451643465936066 -0.8237423654421511 -1.797573037709613 -2.5626879636562423 9.96580607791947 -1.6668096009091962 -4.997232340261264 -4.286665439837466 12.017530987412941" Properties=species:S:1:pos:R:3 unique_starting_index=18 config_type=initial n_minim_iter=11 stress="0.006641433685909548 -0.0009676937795399976 -0.004540648884174125 -0.0009676937795399976 0.005246094034579883 -0.0003138982420736361 -0.004540648884174125 -0.0003138982420736361 0.003408205444818099" pbc="T T T"
Si       0.20842493       8.34915620      -0.75744951
Si      -1.87093629      -0.39027226       6.73735247
Si      -4.50746027      -2.88759899      10.88967262
Si      -0.47613082      -2.22410930       9.67952681
Si      -5.79054286       0.48333250      10.41654287
Si       3.98440368       1.82561952      -0.27470891
Si       2.39755828       0.19928063      -0.19222314
Si      -2.20819865       0.70241171       8.52183209
Si      -2.50013089      -2.71140684      10.22350866
Si      -3.15192285       1.34173263       6.58993139
Si       0.60536606       0.53812014       3.51310888
Si      -3.03902477       3.15480871       5.15616854
Si      -3.17054496      -2.16852527       6.82703845
Si      -1.01329589       6.61669476      -0.57894456
Si       0.93916675       2.14683617       4.86990812
Si       0.86928488       6.50810579      -1.57775269
Si      -0.64601994      -1.19073190       3.17383442
Si       1.75808926      -4.13415905       6.76030250
Si       0.10485478       2.52640702       2.94657997
Si      -3.43323495       2.43439488       8.41554300
Si      -1.45158441       3.99558238       3.51229238
Si      -2.15017621      -1.45706738       8.54996468
22
Lattice="5.464991862154124 -0.8147668684248015 -1.7933770856103124 -2.565454930058121 9.930549380151277 -1.6873189608005363 -5.01078092461102 -4.29863617079899 12.012548634214532" Properties=species:S:1:pos:R:3 unique_starting_index=18 config_type=initial n_minim_iter=12 stress="0.013533796087681208 -0.0031194472729180528 -0.00314023556618555 -0.0031194472729180528 0.012775834676737296 -0.016008877729624296 -0.00314023556618555 -0.016008877729624296 0.017062251541656446" pbc="T T T"
Si       0.21750715       8.33282215      -0.75527820
Si      -1.88905634      -0.41106442       6.70575927
Si      -4.51207592      -2.90129735      10.88276547
Si      -0.47476285      -2.23084421       9.66394348
Si      -5.79961457       0.45086553      10.38715898
Si       3.99669879       1.82492788      -0.28693411
Si       2.38794706       0.19815892      -0.17728355
Si      -2.20542938       0.68360916       8.49737403
Si      -2.50805460      -2.72673894      10.21253348
Si      -3.15539465       1.33506897       6.58452474
Si       0.60905984       0.53082176       3.51763977
Si      -3.04638014       3.09215983       5.15330492
Si      -3.17618169      -2.18137109       6.80919638
Si      -1.00992995       6.58773844      -0.58575839
Si       0.92781960       2.13484225       4.86157704
Si       0.86067878       6.48548298      -1.59686900
Si      -0.64284524      -1.18942842       3.17182574
Si       1.77384828      -4.12877007       6.76140058
Si       0.09942377       2.51129633       2.94723429
Si      -3.44110219       2.41120960       8.42147703
Si      -1.44668684       3.96765502       3.50305926
Si      -2.15379090      -1.46891518       8.53279085
22
Lattice="5.4689855823736835 -0.8178325023420557 -1.7967995401938277 -2.5734383543963624 9.907892395643913 -1.6817153648305885 -5.017395865559953 -4.280180823544706 12.010616109794785" Properties=species:S:1:pos:R:3 unique_starting_index=18 config_type=initial n_minim_iter=13 stress="0.006863545572055011 -0.005989136712379379 -0.002776264945468394 -0.005989136712379379 0.013372136446332386 -0.014191507147473787 -0.002776264945468394 -0.014191507147473787 0.012948014632888487" pbc="T T T"
Si       0.21524138       8.31749408      -0.73411472
Si      -1.90967085      -0.40785715       6.68708997
Si      -4.51459483      -2.88870036      10.88095128
Si      -0.48176890      -2.21651601       9.65282087
Si      -5.80638616       0.45822278      10.37244602
Si       3.99512973       1.82100049      -0.29789516
Si       2.37536876       0.20120594      -0.17232579
Si      -2.19680169       0.68321475       8.48214987
Si      -2.50530922      -2.71939341      10.21427388
Si      -3.15841179       1.35448769       6.59735048
Si       0.60692766       0.52909508       3.52227349
Si      -3.05620943       3.05145062       5.16737391
Si      -3.17772606      -2.17657791       6.79403180
Si      -1.01252143       6.56931587      -0.57818351
Si       0.91872039       2.13533467       4.87233722
Si       0.84048925       6.46859027      -1.59214775
Si      -0.64048600      -1.18232686       3.16937175
Si       1.78199371      -4.11572948       6.75347488
Si       0.08956407       2.50824836       2.95491266
Si      -3.45323176       2.41960741       8.42293419
Si      -1.44634094       3.95672811       3.50881522
Si      -2.15835379      -1.45887913       8.52097888
22
Lattice="5.486766668117452 -0.8295963977288193 -1.8067329489796213 -2.5986005298674617 9.857728804876709 -1.6535577665144587 -5.038878005885878 -4.218852309413024 12.004792855204604" Properties=species:S:1:pos:R:3 unique_starting_index=18 config_type=initial n_minim_iter=14 stress="0.004514012004559114 -0.00722691728257081 -0.004003287133133313 -0.00722691728257081 0.008518918177261027 -0.007132639877866212 -0.004003287133133313 -0.007132639877866212 0.004526998002632429" pbc="T T T"
Si       0.20090543       8.27219917      -0.69149787
Si      -1.94648193      -0.38567328       6.66577859
Si      -4.52390975      -2.83851934      10.87453275
Si      -0.49394492      -2.17941943       9.63486211
Si      -5.83023616       0.49883516      10.35870200
Si       4.00549563       1.80798596      -0.30295329
Si       2.36298872       0.20212891      -0.16635785
Si      -2.20293221       0.71439401       8.46352797
Si      -2.51996734      -2.67679342      10.20570771
Si      -3.17284283       1.39119622       6.61701401
Si       0.60856342       0.53339717       3.53448805
Si      -3.08266694       3.00084329       5.19884772
Si      -3.18693441      -2.15072696       6.77515137
Si      -1.03354572       6.53159758      -0.55181391
Si       0.90135066       2.14290338       4.89078249
Si       0.81575458       6.43244336      -1.57474045
Si      -0.63872866      -1.16754692       3.16383614
Si       1.79547452      -4.07928097       6.73251218
Si       0.06966186       2.50669923       2.96728526
Si      -3.47674960       2.43886934       8.43076221
Si      -1.45538069       3.94349673       3.52709130
Si      -2.17668458      -1.43466649       8.50769501
22
Lattice="5.488885194456232 -0.8364041104253396 -1.8112976243479262 -2.6091075817974607 9.843098573438564 -1.641854095157968 -5.03929650669477 -4.192377244395825 12.011514940026995" Properties=species:S:1:pos:R:3 unique_starting_index=18 config_type=initial n_minim_iter=15 stress="0.005429045677255628 -0.00808649157756935 -0.003938303386732856 -0.00808649157756935 0.002128506078210844 0.0013012443833236383 -0.003938303386732856 0.0013012443833236383 0.00045833407209736055" pbc="T T T"
Si       0.19299506       8.25714679      -0.67411161
Si      -1.95761071      -0.37406754       6.66717828
Si      -4.52365130      -2.81515189      10.88119064
Si      -0.49466740      -2.16537784       9.63669201
Si      -5.83481105       0.51999958      10.36268104
Si       4.00593110       1.80262910      -0.30358582
Si       2.35680451       0.20168103      -0.16356505
Si      -2.20224807       0.72877031       8.46293884
Si      -2.51814945      -2.65726010      10.21127338
Si      -3.17395824       1.40622092       6.62800636
Si       0.61078110       0.53604623       3.54397614
Si      -3.09016459       2.98591863       5.21641460
Si      -3.18616353      -2.13987749       6.77346432
Si      -1.04391746       6.51994342      -0.54028186
Si       0.89365828       2.14831029       4.90133017
Si       0.80518124       6.42129003      -1.56842166
Si      -0.63780672      -1.16228872       3.16370964
Si       1.80037004      -4.06610137       6.72862763
Si       0.06238294       2.50902375       2.97541003
Si      -3.48131828       2.45117523       8.44481685
Si      -1.45848156       3.94234631       3.53883540
Si      -2.17786580      -1.41994704       8.50756301
22
Lattice="5.476125201371707 -0.8466053607899999 -1.8140541299905013 -2.6142339774506476 9.848627729451623 -1.6229576357271391 -5.018050751756629 -4.162837616841397 12.021102452925323" Properties=species:S:1:pos:R:3 unique_starting_index=18 config_type=initial n_minim_iter=16 stress="0.0023367150601278763 -0.004293382452167003 -0.0012663173274600375 -0.004293382452167003 0.005694089287969333 0.0027526160662952846 -0.0012663173274600375 0.0027526160662952846 0.00045137156436694196" pbc="T T T"
Si       0.17986438       8.25332514      -0.65815879
Si      -1.95532129      -0.35167103       6.68526839
Si      -4.50897366      -2.78541983      10.89098987
Si      -0.48671605      -2.15033554       9.64641466
Si      -5.82027093       0.55682028      10.37968005
Si       3.99723749       1.80032594      -0.29456057
Si       2.35202708       0.20125956      -0.16410633
Si      -2.19482972       0.75519114       8.47392558
Si      -2.50173562      -2.63006159      10.21914091
Si      -3.16116227       1.41435813       6.65001878
Si       0.61713743       0.54311572       3.55901044
Si      -3.08524973       3.00430887       5.22915483
Si      -3.17463298      -2.12929826       6.77869095
Si      -1.05673139       6.52434937      -0.52471863
Si       0.89224422       2.15903035       4.91399418
Si       0.79977403       6.42469501      -1.55603858
Si      -0.63600038      -1.16050469       3.16382753
Si       1.80042683      -4.05629628       6.72741775
Si       0.06195157       2.52297962       2.98698696
Si      -3.46794299       2.47464710       8.46222249
Si      -1.45850336       3.95722493       3.55797382
Si      -2.16589999      -1.39878539       8.51552893
22
Lattice="5.474639966809393 -0.8520955404518528 -1.8201269156334285 -2.61599648559934 9.85294156869511 -1.6070043618068794 -5.022184426324661 -4.145441820814543 12.023828688065526" Properties=species:S:1:pos:R:3 unique_starting_index=18 config_type=initial n_minim_iter=17 stress="2.562147331844169e-05 -0.0016155190693512961 -0.0025760653402357595 -0.0016155190693512961 0.005936126168788052 0.007762725195767641 -0.0025760653402357595 0.007762725195767641 -0.0002655200681463676" pbc="T T T"
Si       0.17367464       8.25419451      -0.64786258
Si      -1.95836722      -0.34118213       6.68525714
Si      -4.51383164      -2.76564094      10.89290271
Si      -0.48920809      -2.14269881       9.64650516
Si      -5.82498413       0.58045176      10.38970043
Si       3.99622639       1.80071870      -0.29861427
Si       2.35028808       0.20235745      -0.16611485
Si      -2.20500571       0.77404375       8.47746642
Si      -2.50797810      -2.61579031      10.22315761
Si      -3.16666638       1.42611016       6.66018010
Si       0.61543626       0.55039198       3.56376094
Si      -3.08947600       3.01099404       5.23797682
Si      -3.17600002      -2.12552248       6.77872110
Si      -1.06059129       6.52356434      -0.51415616
Si       0.88760359       2.16746238       4.91820079
Si       0.79512225       6.43004504      -1.54714743
Si      -0.63653142      -1.16032399       3.16193716
Si       1.79497955      -4.05116004       6.72308828
Si       0.06280411       2.52763866       2.99739935
Si      -3.47031415       2.49150758       8.47592131
Si      -1.46257002       3.96868278       3.57184728
Si      -2.16931842      -1.38606633       8.51668834
22
Lattice="5.47321681539265 -0.8565116905047103 -1.8208591068253968 -2.6228955690631133 9.851069647522776 -1.605006968456697 -5.01915279488189 -4.138692795494645 12.020160388378075" Properties=species:S:1:pos:R:3 unique_starting_index=18 config_type=initial n_minim_iter=18 stress="-0.0026072109181811748 -0.0004988598165765289 -0.0008779442888129319 -0.0004988598165765289 0.0020597070069456104 0.005463494481440575 -0.0008779442888129319 0.005463494481440575 -0.006056840860970631" pbc="T T T"
Si       0.16524497       8.25147590      -0.64802147
Si      -1.95862231      -0.33759287       6.68169799
Si      -4.51181764      -2.75731426      10.88664984
Si      -0.48864583      -2.14319431       9.64020470
Si      -5.82649910       0.58975530      10.38762122
Si       3.99779735       1.79885370      -0.30298436
Si       2.34805284       0.19983149      -0.16332391
Si      -2.21074511       0.77714102       8.46834372
Si      -2.50789745      -2.60913738      10.21512317
Si      -3.16850290       1.43061539       6.66322331
Si       0.61115539       0.54733321       3.56220194
Si      -3.09251072       3.00683164       5.23680193
Si      -3.17204307      -2.12858347       6.77367948
Si      -1.06835484       6.51711343      -0.51103379
Si       0.88644592       2.16757245       4.92050127
Si       0.78707468       6.43017085      -1.54708496
Si      -0.63599094      -1.16236509       3.15822208
Si       1.79490077      -4.05302004       6.72217688
Si       0.06150969       2.52854856       2.99940230