2
Lattice="3.0426245511237653 -9.49780019882058e-16 2.1697016442635594e-41 -1.5213122755618822 2.634990155451406 2.6284343177472876e-25 -1.0607235008708703e-40 -4.585672510458239e-25 4.597110089301207" Properties=species:S:1:pos:R:3 n_minim_iter=1 energy=-3187.122618023847 free_energy=-3187.122618023847 pbc="T T T"
Ti       0.00000000       0.00000000       0.00000000
Ti       0.00000000       1.75666010       2.29855504
