2
Lattice="3.1073805860780594 -9.699941432919458e-16 2.2158793021229353e-41 -1.5536902930390286 2.691070526770177 2.684375161481111e-25 -2.1534282211872346e-40 -4.683269162423233e-25 4.694950166717782" Properties=species:S:1:pos:R:3 n_minim_iter=1 energy=-3186.913771747581 free_energy=-3186.913771747581 pbc="T T T"
Ti       0.00000000       0.00000000       0.00000000
Ti       0.00000000       1.79404702       2.34747508
