2
Lattice="2.6812233801263856 -8.526981736133352e-16 4.568713538158939e-41 -1.3406116900631921 2.322007560410231 2.3162304212879817e-25 -2.0709193278543352e-40 -4.236330936515324e-25 4.246897188026055" Properties=species:S:1:pos:R:3 n_minim_iter=1 stress="-0.19061621131935344 3.156467116879978e-16 -2.862340222766623e-16 3.156467116879978e-16 -0.1906162113193523 5.050946465500095e-16 -2.862340222766623e-16 5.050946465500095e-16 -0.18731571788567855" pbc="T T T"
Ti       0.00000000       0.00000000       0.00000000
Ti       0.00000000       1.54800504       2.12344859
