2
Lattice="2.7343306622793984 -8.695876587763759e-16 4.659206542488872e-41 -1.3671653311396983 2.3679998158806876 2.3621082483375634e-25 -2.7397097840589793e-40 -4.320240402621968e-25 4.331015941021825" Properties=species:S:1:pos:R:3 n_minim_iter=1 stress="-0.14169908416464777 4.898042463526934e-16 8.387570606505388e-17 4.898042463526934e-16 -0.14169908416464547 -5.975646569348718e-17 8.387570606505388e-17 -5.975646569348718e-17 -0.13977136063512113" pbc="T T T"
Ti       0.00000000       0.00000000       0.00000000
Ti       0.00000000       1.57866654       2.16550797
