2
Lattice="3.0645146890131705 -9.566132046048136e-16 2.1853115453123943e-41 -1.5322573445065848 2.653947570955975 2.647344567330162e-25 -1.0683548675763087e-40 -4.61866409449463e-25 4.630183960906697" Properties=species:S:1:pos:R:3 n_minim_iter=1 stress="0.07132168043711044 8.549664855565849e-17 -3.4019916872984884e-17 8.549664855565849e-17 0.07132168043711158 -1.0498849264309613e-16 -3.4019916872984884e-17 -1.0498849264309613e-16 0.07890401992310554" pbc="T T T"
Ti       0.00000000       0.00000000       0.00000000
Ti       0.00000000       1.76929838       2.31509198
