2
Lattice="4.685781317686788 -5.552925387992915e-18 2.5632139380561414e-16 -5.55292538799319e-18 4.685781317686788 -2.286901485591857e-16 2.342890658843394 2.342890658843394 1.2923324417817683" Properties=species:S:1:pos:R:3:forces:R:3 cutoff=-1.0 nneightol=1.2 n_minim_iter=1 energy=-325.6426002336148 stress="-0.06593057252397744 -2.2463396399574712e-17 1.8601494080933913e-16 -2.2463396399574712e-17 -0.06593057252397676 2.518000700385212e-16 1.8601494080933913e-16 2.518000700385212e-16 -0.059842110757849905" free_energy=-325.6426002336148 pbc="T T T"
Si      -0.00000000      -1.17144533      -0.32308311       0.00000000       0.00000000      -0.00000000
Si      -0.00000000       1.17144533       0.32308311      -0.00000000      -0.00000000       0.00000000
