1
Lattice="2.5940639600832585 -8.730642492497759e-17 -3.414435733623801e-51 1.2970319800416292 2.2465252884737636 -1.957680650913729e-50 4.366555679205971e-50 1.4000518445732835e-49 2.421996198423889" Properties=species:S:1:pos:R:3:forces:R:3 cutoff=-1.0 nneightol=1.2 n_minim_iter=1 energy=-162.8097317065566 stress="-0.052127251474521866 4.0312396596118924e-17 -2.9496875558135813e-18 4.0312396596118924e-17 -0.05212725147452213 3.932916741084774e-18 -2.9496875558135813e-18 3.932916741084774e-18 -0.0605703889800977" free_energy=-162.8097317065566 pbc="T T T"
Si       0.00000000       0.00000000       0.00000000       0.00000000      -0.00000000       0.00000000
