1
Lattice="2.57048025507171 -8.651268621894449e-17 -3.3833936905740645e-51 1.2852401275358547 2.226101200818404 -1.939882568951061e-50 4.958651245794915e-50 1.7691272329397832e-49 2.3999768323783086" Properties=species:S:1:pos:R:3:forces:R:3 cutoff=-1.0 nneightol=1.2 n_minim_iter=1 energy=-162.7841633470913 stress="-0.07529346268390356 2.7221451072082865e-17 2.7789880444817742e-18 2.7221451072082865e-17 -0.07529346268390294 -1.995818686491457e-17 2.7789880444817742e-18 -1.995818686491457e-17 -0.08824556392250729" free_energy=-162.7841633470913 pbc="T T T"
Si       0.00000000       0.00000000       0.00000000      -0.00000000       0.00000000      -0.00000000
