1
Lattice="2.8486917990195217 -9.587623918012986e-17 -3.749589532997151e-51 1.4243458995097609 2.4670394655032997 -2.1498424484406875e-50 7.595866922394249e-50 3.2299888710920605e-49 2.659734229330699" Properties=species:S:1:pos:R:3:forces:R:3 cutoff=-1.0 nneightol=1.2 n_minim_iter=1 energy=-162.6640910786396 stress="0.09080776608817953 7.579058303132113e-19 5.684293727349086e-19 7.579058303132113e-19 0.09080776608817953 -9.473822878915144e-20 5.684293727349086e-19 -9.473822878915144e-20 0.09621092627463235" free_energy=-162.6640910786396 pbc="T T T"
Si       0.00000000       0.00000000       0.00000000      -0.00000000      -0.00000000      -0.00000000
