1
Lattice="2.6623599348237943 -8.960501026563029e-17 -3.504330285263644e-51 1.3311799674118974 2.3056713375752884 -2.0092220586593376e-50 2.518387447905274e-50 2.5055882441677275e-50 2.4857620090340187" Properties=species:S:1:pos:R:3:forces:R:3 cutoff=-1.0 nneightol=1.2 n_minim_iter=1 energy=-162.8361704783247 stress="0.0028761612817508457 1.7885630213103902e-16 -6.3664089746309764e-18 1.7885630213103902e-16 0.0028761612817514407 4.490592044605778e-18 -6.3664089746309764e-18 4.490592044605778e-18 0.008328832063414704" free_energy=-162.8361704783247 pbc="T T T"
Si       0.00000000       0.00000000       0.00000000      -0.00000000       0.00000000      -0.00000000
