1
Lattice="2.6235788698632083 7.954269448074302e-17 2.8407626488428757e-52 1.3117894349316044 2.2720859501336057 -3.055950306839858e-50 -1.2958117622218051e-51 2.3345854311666274e-49 2.4298092422976487" Properties=species:S:1:pos:R:3:forces:R:3 cutoff=-1.0 nneightol=1.2 n_minim_iter=1 energy=-162.82477308148142 stress="-0.02739492645148652 -3.9750852586268586e-16 4.790702330372833e-19 -3.9750852586268586e-16 -0.02739492645148515 1.43721069911185e-18 4.790702330372833e-19 1.43721069911185e-18 -0.04365615759481991" free_energy=-162.82477308148142 pbc="T T T"
Si       0.00000000       0.00000000       0.00000000       0.00000000       0.00000000      -0.00000000
1
Lattice="2.615566596329941 7.0334172574853e-17 -1.0724032457165953e-51 1.3077832981649706 2.2651471177117264 -2.1318636123023986e-50 -8.531851033567668e-52 2.378728387892515e-49 2.444718528077251" Properties=species:S:1:pos:R:3:forces:R:3 cutoff=-1.0 nneightol=1.2 n_minim_iter=2 energy=-162.825488933643 stress="-0.03188541994527386 -5.389540121669435e-18 1.916280932149132e-18 -5.389540121669435e-18 -0.03188541994527415 -2.8744213982236984e-18 1.916280932149132e-18 -2.8744213982236984e-18 -0.03190729383759307" free_energy=-162.825488933643 pbc="T T T"
Si       0.00000000       0.00000000       0.00000000      -0.00000000      -0.00000000      -0.00000000
