1
Lattice="2.5688500273544204 6.907793569331471e-17 -1.053249078406006e-51 1.2844250136772104 2.2246893822012774 -2.0937864501187736e-50 3.0998582035409525e-51 3.217416295543472e-49 2.4010534721375913" Properties=species:S:1:pos:R:3:forces:R:3 cutoff=-1.0 nneightol=1.2 n_minim_iter=1 energy=-162.78356243853924 stress="-0.07712440521345729 7.72434213240253e-16 2.022740983935196e-18 7.72434213240253e-16 -0.07712440521345612 2.022740983935196e-18 2.022740983935196e-18 2.022740983935196e-18 -0.0860722247313332" free_energy=-162.78356243853924 pbc="T T T"
Si       0.00000000       0.00000000       0.00000000      -0.00000000      -0.00000000       0.00000000
