1
Lattice="2.544840678491351 6.843230973650886e-17 -1.0434050531441653e-51 1.2724203392456754 2.203896676157537 -2.074217207543161e-50 5.021386133080639e-51 3.623814504817371e-49 2.3786124071327945" Properties=species:S:1:pos:R:3:forces:R:3 cutoff=-1.0 nneightol=1.2 n_minim_iter=1 energy=-162.7476643649048 stress="-0.10358415742726862 6.761734146297653e-18 -6.501667448363128e-20 6.761734146297653e-18 -0.10358415742726848 1.3003334896726256e-19 -6.501667448363128e-20 1.3003334896726256e-19 -0.11917770424067706" free_energy=-162.7476643649048 pbc="T T T"
Si       0.00000000       0.00000000       0.00000000      -0.00000000       0.00000000       0.00000000
1
Lattice="2.5387546570173107 7.09292166115169e-17 -1.8867649951648092e-51 1.2693773285086554 2.1986260269530407 -1.831686700594477e-50 4.4555111723824464e-51 3.644965360484882e-49 2.3900303184804126" Properties=species:S:1:pos:R:3:forces:R:3 cutoff=-1.0 nneightol=1.2 n_minim_iter=2 energy=-162.74816043764858 stress="-0.10763875987671856 4.369120525300022e-17 2.6006669793452512e-19 4.369120525300022e-17 -0.10763875987671818 -5.2013339586905025e-19 2.6006669793452512e-19 -5.2013339586905025e-19 -0.10764502349143941" free_energy=-162.74816043764858 pbc="T T T"
Si       0.00000000       0.00000000       0.00000000       0.00000000      -0.00000000       0.00000000
