1
Lattice="2.66882187930507 8.0914389808359e-17 2.8897509422081087e-52 1.3344109396525352 2.311267545653917 -3.1086494614848352e-50 -2.4762867661987324e-52 1.0388860400930985e-49 2.4717107394296667" Properties=species:S:1:pos:R:3:forces:R:3 cutoff=-1.0 nneightol=1.2 n_minim_iter=1 energy=-162.83511307951358 stress="0.006392991964837364 -1.3972083346532367e-16 4.551167213854191e-19 -1.3972083346532367e-16 0.006392991964837361 -3.640933771083353e-18 4.551167213854191e-19 -3.640933771083353e-18 -0.0014330594407887633" free_energy=-162.83511307951358 pbc="T T T"
Si       0.00000000       0.00000000       0.00000000       0.00000000       0.00000000      -0.00000000
