1
Lattice="2.4321948864209504 5.719997425329367e-17 6.229331605500724e-51 1.2160974432104752 2.1063425585951503 -1.4302553034791232e-50 -1.7413349775727417e-51 5.078939415143883e-49 2.3064379946045044" Properties=species:S:1:pos:R:3:forces:R:3 cutoff=-1.0 nneightol=1.2 n_minim_iter=1 energy=-162.46682605896424 stress="-0.27170332116800344 -9.101187460164567e-18 -1.1744947648655975e-18 -9.101187460164567e-18 -0.27170332116800083 4.1107316770295916e-18 -1.1744947648655975e-18 4.1107316770295916e-18 -0.27907435869877895" free_energy=-162.46682605896424 pbc="T T T"
Si       0.00000000       0.00000000       0.00000000      -0.00000000      -0.00000000       0.00000000
