1
Lattice="2.4580712422464215 5.78085302926348e-17 6.295606064870216e-51 1.2290356211232107 2.1287521400973732 -1.4454719275090146e-50 1.018032097711759e-50 4.747480690445216e-49 2.330976410736772" Properties=species:S:1:pos:R:3:forces:R:3 cutoff=-1.0 nneightol=1.2 n_minim_iter=2 energy=-162.5617659405756 stress="-0.225170274948743 8.962332701891578e-18 1.6497981150221443e-17 8.962332701891578e-18 -0.2251702749487443 -2.2755836069270955e-18 1.6497981150221443e-17 -2.2755836069270955e-18 -0.22516410927390387" free_energy=-162.5617659405756 pbc="T T T"
Si       0.00000000       0.00000000       0.00000000      -0.00000000      -0.00000000      -0.00000000
