1
Lattice="2.6688218793050695 8.0914389808359e-17 2.889750942208107e-52 1.3344109396525345 2.311267545653918 -3.108649461484837e-50 2.8763585291048746e-52 3.7090665226493892e-50 2.471710739429667" Properties=species:S:1:pos:R:3:forces:R:3 cutoff=-1.0 nneightol=1.2 n_minim_iter=2 energy=-162.83511308001084 stress="0.006392991923734327 0.006392991923735804 -0.0014330593536589645 -3.64093377108335e-18 3.64093377108335e-18 -1.5542236035312048e-16" pbc="T T T"
Si       0.00000000       0.00000000       0.00000000      -0.00000000      -0.00000000      -0.00000000
