2
Lattice="5.031782709075939 -6.881196650812418e-17 2.498321766306003e-15 -6.881196650810186e-17 5.031782709075939 -4.5726238394412804e-15 2.5158913545379686 2.515891354537971 1.5147341814312618" Properties=species:S:1:pos:R:3:forces:R:3 cutoff=-1.0 nneightol=1.2 n_minim_iter=1 energy=-325.4198959477493 stress="0.07077637125887613 8.966077031206938e-19 -1.0447217354814756e-16 8.966077031206938e-19 0.07077637125887601 -1.2820562346087231e-16 -1.0447217354814756e-16 -1.2820562346087231e-16 0.05908568712897851" free_energy=-325.4198959477493 pbc="T T T"
Si      -0.00000000      -1.25794568      -0.37868355       0.00000000       0.00000000      -0.00000000
Si      -0.00000000       1.25794568       0.37868355      -0.00000000      -0.00000000       0.00000000
