2
Lattice="4.929064443885946 -6.740724650475883e-17 2.447321297375086e-15 -6.740724650475007e-17 4.929064443885946 -4.4792787934982975e-15 2.464532221942972 2.464532221942975 1.483812562526701" Properties=species:S:1:pos:R:3:forces:R:3 cutoff=-1.0 nneightol=1.2 n_minim_iter=2 energy=-325.5497341673554 stress="0.04632063649499947 2.5673100819621442e-17 -3.456571955012199e-17 2.5673100819621442e-17 0.04632063649499896 -1.0272987275072278e-16 -3.456571955012199e-17 -1.0272987275072278e-16 0.046166055869714555" free_energy=-325.5497341673554 pbc="T T T"
Si      -0.00000000      -1.23226611      -0.37095314      -0.00000000      -0.00000000      -0.00000000
Si      -0.00000000       1.23226611       0.37095314       0.00000000       0.00000000       0.00000000
