2
Lattice="2.902606842762044 0.0 0.0 0.0 2.902606842762044 0.0 0.0 0.0 4.175161671342432" Properties=species:S:1:pos:R:3:tags:I:1 spacegroup="P 1" unit_cell=conventional n_minim_iter=1 energy=-1704.077633107077 free_energy=-1704.077633107077 pbc="T T T"
Ti       1.45130342       1.45130342       2.08758084        0
Al       0.00000000       0.00000000       0.00000001        1
