2
Lattice="2.9440782578117664 0.0 0.0 0.0 2.9440782578117664 0.0 0.0 0.0 4.234814897546215" Properties=species:S:1:pos:R:3:tags:I:1 spacegroup="P 1" unit_cell=conventional n_minim_iter=1 energy=-1703.9442750084074 free_energy=-1703.9442750084074 pbc="T T T"
Ti       1.47203913       1.47203913       2.11740745        0
Al       0.00000000       0.00000000       0.00000001        1
