2
Lattice="2.649872342450637 0.0 0.0 0.0 2.649872342450637 0.0 0.0 0.0 3.8116238393562156" Properties=species:S:1:pos:R:3:tags:I:1 spacegroup="P 1" unit_cell=conventional n_minim_iter=1 stress="-0.13039332753237468 -1.6349490406226473e-18 -6.017162134359169e-18 -1.6349490406226473e-18 -0.13039332753237473 1.0074560732895849e-17 -6.017162134359169e-18 1.0074560732895849e-17 -0.13686705225543236" pbc="T T T"
Ti       1.32493617       1.32493617       1.90581192        0
Al       0.00000000       0.00000000       0.00000000        1
