2
Lattice="2.7933813104280523 0.0 0.0 0.0 2.7933813104280523 0.0 0.0 0.0 4.018049709290105" Properties=species:S:1:pos:R:3:tags:I:1 spacegroup="P 1" unit_cell=conventional n_minim_iter=1 stress="0.01999386101988772 1.5769325575373202e-18 1.1836168406140104e-19 1.5769325575373202e-18 0.01999386101988772 2.9186160625471317e-18 1.1836168406140104e-19 2.9186160625471317e-18 0.017883612811122756" pbc="T T T"
Ti       1.39669066       1.39669066       2.00902486        0
Al       0.00000000       0.00000000       0.00000000        1
