2
Lattice="2.7472012359563753 0.0 0.0 0.0 2.7472012359563753 0.0 0.0 0.0 3.951623463036785" Properties=species:S:1:pos:R:3:tags:I:1 spacegroup="P 1" unit_cell=conventional n_minim_iter=1 stress="-0.02166629317275605 -4.880922793992649e-18 6.853161504354783e-19 -4.880922793992649e-18 -0.021666293172756125 -3.853537917070675e-18 6.853161504354783e-19 -3.853537917070675e-18 -0.022981949696006095" pbc="T T T"
Ti       1.37360062       1.37360062       1.97581174        0
Al       0.00000000       0.00000000       0.00000000        1
