2
Lattice="3.1218345389961586 -1.0018371911099733e-15 2.373413289374826e-41 -1.5609172694980784 2.7035880171823554 2.6968615084617144e-25 -1.8802846153848656e-40 -4.734696842686058e-25 4.746506117838672" Properties=species:S:1:pos:R:3 n_minim_iter=1 energy=-3186.8355208842368 free_energy=-3186.8355208842368 pbc="T T T"
Ti       0.00000000       0.00000000       0.00000000
Ti       0.00000000       1.80239201       2.37325306
