2
Lattice="2.760127758078956 -8.777918004513504e-16 4.703163917207525e-41 -1.3800638790394772 2.3903407561869656 2.3843936045353014e-25 -2.7655576292875582e-40 -4.360999794703193e-25 4.371876995129601" Properties=species:S:1:pos:R:3 n_minim_iter=1 stress="-0.11069514569095729 -3.298026316155451e-17 2.7740434770807546e-17 -3.298026316155451e-17 -0.11069514569095666 4.7782318834013266e-17 2.7740434770807546e-17 4.7782318834013266e-17 -0.10457180226671073" pbc="T T T"
Ti       0.00000000       0.00000000       0.00000000
Ti       0.00000000       1.59356050       2.18593850
