2
Lattice="2.9056599092499673 -9.24074777254161e-16 4.951145757967495e-41 -1.4528299546249828 2.5163752961684587 2.5101145714328447e-25 -1.9107158812323904e-40 -4.590940484775177e-25 4.6023912029933305" Properties=species:S:1:pos:R:3 n_minim_iter=1 stress="0.016739705796006404 -1.6687102206994417e-16 3.4887105969086923e-17 -1.6687102206994417e-16 0.01673970579600654 -5.4631375790245534e-17 3.4887105969086923e-17 -5.4631375790245534e-17 0.01770271481061261" pbc="T T T"
Ti       0.00000000       0.00000000       0.00000000
Ti       0.00000000       1.67758353       2.30119560
