2
Lattice="3.036261389931757 -9.743756577640448e-16 2.3083552452452956e-41 -1.518130694965878 2.6294794962107506 2.6229373689895894e-25 -3.0393099888005953e-40 -4.6049132447301505e-25 4.616398813789332" Properties=species:S:1:pos:R:3 n_minim_iter=2 stress="0.0639212219070661 -3.7026034726444645e-17 2.2312448442314568e-17 -3.7026034726444645e-17 0.0639212219070658 -4.5045886477880355e-18 2.2312448442314568e-17 -4.5045886477880355e-18 0.06461412128786187" pbc="T T T"
Ti      -0.00000000       0.00000000       0.00000000
Ti       0.00000000       1.75298633       2.30819941
