2
Lattice="2.6838387800179095 -8.313372784186178e-16 2.4396170682726263e-41 -1.341919390008954 2.324272563157345 2.318489788723565e-25 -2.3867180898089314e-40 -3.9718311807535445e-25 3.9817377172925688" Properties=species:S:1:pos:R:3 n_minim_iter=2 stress="-0.22163176595040154 4.8238293211064184e-17 1.0179969647952897e-16 4.8238293211064184e-17 -0.22163176595040165 -6.569692956111425e-17 1.0179969647952897e-16 -6.569692956111425e-17 -0.2272762631040975" pbc="T T T"
Ti      -0.00000000       0.00000000      -0.00000000
Ti       0.00000000       1.54951504       1.99086886
