2
Lattice="2.654664308721342 -8.223002879154746e-16 2.4130973910614377e-41 -1.3273321543606704 2.2990067298725383 2.2932868166612696e-25 -1.2701938805564639e-40 -3.928655683163882e-25 3.9384545314289094" Properties=species:S:1:pos:R:3 n_minim_iter=1 stress="-0.32402665465235436 -3.272107074620767e-17 -9.267419158700256e-17 -3.272107074620767e-17 -0.3240266546523538 -1.4094731582050775e-16 -9.267419158700256e-17 -1.4094731582050775e-16 -0.3198043132833005" pbc="T T T"
Ti       0.00000000       0.00000000       0.00000000
Ti       0.00000000       1.53267115       1.96922727
