2
Lattice="2.928540063173865 -9.313512561956432e-16 4.990132762840752e-41 -1.4642700315869317 2.536190090709052 2.529880066898495e-25 -2.5981213319421378e-40 -4.627091110873131e-25 4.638631995939282" Properties=species:S:1:pos:R:3 n_minim_iter=1 stress="0.032287006391293664 -3.1578730096626196e-16 3.52809684252357e-17 -3.1578730096626196e-16 0.03228700639129374 -2.86874337115473e-17 3.52809684252357e-17 -2.86874337115473e-17 0.03748981756715088" pbc="T T T"
Ti       0.00000000       0.00000000       0.00000000
Ti       0.00000000       1.69079339       2.31931600
