2
Lattice="2.7123923994822334 -8.401819558527494e-16 2.465572389406208e-41 -1.356196199741116 2.349000722983443 2.3431564250550855e-25 -2.4121106136119324e-40 -4.01408787551336e-25 4.0240998086494715" Properties=species:S:1:pos:R:3 n_minim_iter=2 stress="-0.22163176595040154 4.8238293211064184e-17 1.0179969647952897e-16 4.8238293211064184e-17 -0.22163176595040165 -6.569692956111425e-17 1.0179969647952897e-16 -6.569692956111425e-17 -0.2272762631040975" pbc="T T T"
Ti      -0.00000000       0.00000000      -0.00000000
Ti       0.00000000       1.56600048       2.01204990
