2
Lattice="2.8347616806251157 -9.01527312351038e-16 4.830337585343482e-41 -1.417380840312557 2.45497562909602 2.4488676663172495e-25 -2.514923693897575e-40 -4.478921336540894e-25 4.490092656734677" Properties=species:S:1:pos:R:3 n_minim_iter=1 stress="-0.02491950276545339 1.679262719849377e-16 -1.6640654581589347e-17 1.679262719849377e-16 -0.024919502765453107 2.0271342853936114e-16 -1.6640654581589347e-17 2.0271342853936114e-16 -0.02849162096541251" pbc="T T T"
Ti       0.00000000       0.00000000       0.00000000
Ti       0.00000000       1.63665042       2.24504633
