2
Lattice="2.9510681797375566 -9.385157781788516e-16 5.028519908013603e-41 -1.4755340898687774 2.555700011952626 2.5493414475898285e-25 -2.2793416529682635e-40 -4.662685518205089e-25 4.674315182799064" Properties=species:S:1:pos:R:3 n_minim_iter=1 stress="0.041238133388162165 6.66205541546134e-18 4.612301142971617e-17 6.66205541546134e-18 0.041238133388161985 -6.518240615042548e-17 4.612301142971617e-17 -6.518240615042548e-17 0.05374043557303853" pbc="T T T"
Ti       0.00000000       0.00000000       0.00000000
Ti       0.00000000       1.70380001       2.33715759
