4
Lattice="1.8531440083781887 -3.209739576252868 0.0 1.8531440083781887 3.209739576252868 0.0 0.0 0.0 6.0523430010355534" Properties=species:S:1:pos:R:3:forces:R:3 cutoff=-1.0 nneightol=1.2 n_minim_iter=1 energy=-17.04895095222792 stress="-0.07887519529209139 1.226149807908572e-16 1.0129281249605021e-16 1.226149807908572e-16 -0.07887519529209175 -2.3635809654842407e-16 1.0129281249605021e-16 -2.3635809654842407e-16 -0.07887519925089553" free_energy=-17.04895095222792 pbc="T T T"
Si       1.85314401       1.06991319       0.37827144      -0.00000000       0.00000000      -0.00000013
Si       1.85314401      -1.06991319       3.40444294      -0.00000000       0.00000000      -0.00000013
Si       1.85314401       1.06991319       2.64790006       0.00000000      -0.00000000       0.00000013
Si       1.85314401      -1.06991319      -0.37827144       0.00000000      -0.00000000       0.00000013
