4
Lattice="2.053715887781382 -3.557140261948777 0.0 2.053715887781382 3.557140261948777 0.0 0.0 0.0 6.707408017581597" Properties=species:S:1:pos:R:3:forces:R:3 cutoff=-1.0 nneightol=1.2 n_minim_iter=1 energy=-16.55918789189274 stress="0.08803815513049411 7.266072935754501e-17 2.7140773243444542e-17 7.266072935754501e-17 0.08803815513049382 -6.779018874702693e-17 2.7140773243444542e-17 -6.779018874702693e-17 0.08803815375608462" free_energy=-16.55918789189274 pbc="T T T"
Si       2.05371589       1.18571342       0.41921301       0.00000000       0.00000000      -0.00000010
Si       2.05371589      -1.18571342       3.77291701      -0.00000000       0.00000000      -0.00000010
Si       2.05371589       1.18571342       2.93449100       0.00000000      -0.00000000       0.00000010
Si       2.05371589      -1.18571342      -0.41921301      -0.00000000      -0.00000000       0.00000010
