4
Lattice="1.7630402777538765 -3.0536753368600595 0.0 1.7630402777538765 3.0536753368600595 0.0 0.0 0.0 5.75806544842996" Properties=species:S:1:pos:R:3:forces:R:3 cutoff=-1.0 nneightol=1.2 n_minim_iter=1 energy=-15.5789932383079 stress="-0.2168228862391569 0.0 3.8933574145386443e-17 0.0 -0.2168228862391575 -1.641317656104821e-16 3.8933574145386443e-17 -1.641317656104821e-16 -0.2163644049626181" free_energy=-15.5789932383079 pbc="T T T"
Si       1.76304028       1.01789178       0.35987909       0.00000000       0.00000000      -0.00395993
Si       1.76304028      -1.01789178       3.23891182       0.00000000       0.00000000      -0.00395993
Si       1.76304028       1.01789178       2.51915363      -0.00000000      -0.00000000       0.00395993
Si       1.76304028      -1.01789178      -0.35987909      -0.00000000      -0.00000000       0.00395993
