4
Lattice="1.8181706459518145 -3.1491639356188665 0.0 1.8181706459518145 3.1491639356188665 0.0 0.0 0.0 5.938120477396284" Properties=species:S:1:pos:R:3:forces:R:3 cutoff=-1.0 nneightol=1.2 n_minim_iter=1 energy=-16.86653158944645 stress="-0.10398702480902247 9.082591169693126e-18 -2.2014441949080455e-17 9.082591169693126e-18 -0.10398702480902304 -5.150831773229282e-17 -2.2014441949080455e-17 -5.150831773229282e-17 -0.10398702913917086" free_energy=-16.86653158944645 pbc="T T T"
Si       1.81817065       1.04972131       0.37113253       0.00000000       0.00000000      -0.00000014
Si       1.81817065      -1.04972131       3.34019277      -0.00000000      -0.00000000      -0.00000014
Si       1.81817065       1.04972131       2.59792770       0.00000000       0.00000000       0.00000014
Si       1.81817065      -1.04972131      -0.37113253      -0.00000000      -0.00000000       0.00000014
