4
Lattice="1.9508539905264979 -3.378978229740387 0.0 1.950853990526497 3.378978229740387 0.0 0.0 0.0 6.37146246714989" Properties=species:S:1:pos:R:3:forces:R:3 cutoff=-1.0 nneightol=1.2 n_minim_iter=1 energy=-17.33247223408078 stress="0.01438825933136239 -4.0303998315513246e-16 -4.491780655001586e-18 -4.0303998315513246e-16 0.014388259331362006 -5.961305799844597e-17 -4.491780655001586e-18 -5.961305799844597e-17 0.014388256768488804" free_energy=-17.33247223408078 pbc="T T T"
Si       1.95085399       1.12632608       0.39821641      -0.00000000       0.00000000      -0.00000012
Si       1.95085399      -1.12632608       3.58394764       0.00000000      -0.00000000      -0.00000012
Si       1.95085399       1.12632608       2.78751482      -0.00000000       0.00000000       0.00000012
Si       1.95085399      -1.12632608      -0.39821641       0.00000000      -0.00000000       0.00000012
