4
Lattice="1.800167773923236 -3.1179820465832084 0.0 1.8001677739232365 3.1179820465832084 0.0 0.0 0.0 5.879323343429311" Properties=species:S:1:pos:R:3:forces:R:3 cutoff=-1.0 nneightol=1.2 n_minim_iter=1 energy=-16.63116266412401 stress="-0.1318296041700303 -4.0871660263619066e-16 -2.392906535511278e-16 -4.0871660263619066e-16 -0.13182960417003114 -3.4684002158639773e-16 -2.392906535511278e-16 -3.4684002158639773e-16 -0.1318296089549668" free_energy=-16.63116266412401 pbc="T T T"
Si       1.80016777       1.03932735       0.36745771      -0.00000000       0.00000000      -0.00000014
Si       1.80016777      -1.03932735       3.30711938       0.00000000       0.00000000      -0.00000014
Si       1.80016777       1.03932735       2.57220396      -0.00000000      -0.00000000       0.00000014
Si       1.80016777      -1.03932735      -0.36745771       0.00000000      -0.00000000       0.00000014
