2
Lattice="2.8342243327325014 -5.61814065821158e-17 2.8342243327325014 2.8342243327325014 2.8342243327325014 1.32576459655329e-16 1.7310808184132965e-17 2.8342243327325014 2.8342243327325014" Properties=species:S:1:pos:R:3 n_minim_iter=1 energy=-326.2268141706093 free_energy=-326.2268141706093 pbc="T T T"
Si       0.00000000       0.00000000       0.00000000
Si       1.41711217       1.41711217       1.41711217
