2
Lattice="2.675164985702647 -5.3028452970446455e-17 2.675164985702647 2.675164985702647 2.675164985702647 1.2513614349518378e-16 1.6339309275409456e-17 2.675164985702647 2.675164985702647" Properties=species:S:1:pos:R:3 n_minim_iter=1 energy=-326.31065340660797 free_energy=-326.31065340660797 pbc="T T T"
Si       0.00000000       0.00000000       0.00000000
Si       1.33758249       1.33758249       1.33758249
