2
Lattice="2.600816045235939 -5.1554671235857176e-17 2.600816045235939 2.600816045235939 2.600816045235939 1.216583244699347e-16 1.5885202579531978e-17 2.600816045235939 2.600816045235939" Properties=species:S:1:pos:R:3 n_minim_iter=1 energy=-326.08736983873257 free_energy=-326.08736983873257 pbc="T T T"
Si       0.00000000       0.00000000       0.00000000
Si       1.30040802       1.30040802       1.30040802
