2
Lattice="2.600816045235939 -5.1554671235857176e-17 2.600816045235939 2.600816045235939 2.600816045235939 1.216583244699347e-16 1.5885202579531978e-17 2.600816045235939 2.600816045235939" Properties=species:S:1:pos:R:3 n_minim_iter=1 stress="-0.11023932941147896 6.040158472787503e-17 -7.176227484907986e-18 6.040158472787503e-17 -0.11023932941147888 5.254289036668192e-17 -7.176227484907986e-18 5.254289036668192e-17 -0.11023932941147911" pbc="T T T"
Si       0.00000000       0.00000000       0.00000000
Si       1.30040802       1.30040802       1.30040802
