2
Lattice="2.8972276153548626 -5.743028903511566e-17 2.8972276153548626 2.8972276153548626 2.8972276153548626 1.3552356305158121e-16 1.7695618140017764e-17 2.8972276153548626 2.8972276153548626" Properties=species:S:1:pos:R:3 n_minim_iter=1 stress="0.06367925254881054 1.9145635045894153e-17 2.342553540174604e-17 1.9145635045894153e-17 0.06367925254881054 2.0971511743674252e-17 2.342553540174604e-17 2.0971511743674252e-17 0.06367925254881056" pbc="T T T"
Si       0.00000000       0.00000000       0.00000000
Si       1.44861381       1.44861381       1.44861381
