2
Lattice="2.9576038181612474 -5.862709620333286e-17 2.9576038181612474 2.9576038181612474 2.9576038181612474 1.3834777958344109e-16 1.806438248008678e-17 2.9576038181612474 2.9576038181612474" Properties=species:S:1:pos:R:3 n_minim_iter=1 stress="0.07122063419348637 6.174705787793777e-17 3.697895425397041e-17 6.174705787793777e-17 0.07122063419348638 1.4778757963472236e-17 3.697895425397041e-17 1.4778757963472236e-17 0.07122063419348643" pbc="T T T"
Si       0.00000000       0.00000000       0.00000000
Si       1.47880191       1.47880191       1.47880191
