2
Lattice="2.7682880778215933 -5.487438529136274e-17 2.7682880778215933 2.7682880778215933 2.7682880778215933 1.2949216066810249e-16 1.690808428964068e-17 2.7682880778215933 2.7682880778215933" Properties=species:S:1:pos:R:3 n_minim_iter=1 stress="0.020608325836526036 1.1454979315379329e-17 2.110389288186493e-17 1.1454979315379329e-17 0.020608325836526064 1.5045763527401277e-17 2.110389288186493e-17 1.5045763527401277e-17 0.020608325836526067" pbc="T T T"
Si       0.00000000       0.00000000       0.00000000
Si       1.38414404       1.38414404       1.38414404
