2
Lattice="2.575063699857079 -5.104419541731888e-17 2.575063699857079 2.575063699857079 2.575063699857079 1.2045370748223883e-16 1.5727913014977577e-17 2.575063699857079 2.575063699857079" Properties=species:S:1:pos:R:3 n_minim_iter=1 stress="-0.1411038159277864 -1.337858922261789e-16 2.379622356650987e-16 -1.337858922261789e-16 -0.14110381592778629 2.1682930344649562e-16 2.379622356650987e-16 2.1682930344649562e-16 -0.14110381592778642" pbc="T T T"
Si       0.00000000       0.00000000       0.00000000
Si       1.28753185       1.28753185       1.28753185
