2
Lattice="2.7681664837192446 0.0 0.0 0.0 2.7681664837192446 0.0 0.0 0.0 3.98928467439468" Properties=species:S:1:pos:R:3:tags:I:1 spacegroup="P 1" unit_cell=conventional n_minim_iter=1 energy=-1704.2946061131993 free_energy=-1704.2946061131993 pbc="T T T"
Ti       1.38408324       1.38408324       1.99464234        0
Al       0.00000000       0.00000000       0.00000000        1
