2
Lattice="2.697156314967513 0.0 0.0 0.0 2.697156314967513 0.0 0.0 0.0 3.8869498691748556" Properties=species:S:1:pos:R:3:tags:I:1 spacegroup="P 1" unit_cell=conventional n_minim_iter=1 energy=-1704.2138503086942 free_energy=-1704.2138503086942 pbc="T T T"
Ti       1.34857816       1.34857816       1.94347494        0
Al       0.00000000       0.00000000       0.00000000        1
