2
Lattice="2.7910449301820055 0.0 0.0 0.0 2.7910449301820055 0.0 0.0 0.0 4.022255464404832" Properties=species:S:1:pos:R:3:tags:I:1 spacegroup="P 1" unit_cell=conventional n_minim_iter=1 energy=-1704.2872421724023 free_energy=-1704.2872421724023 pbc="T T T"
Ti       1.39552247       1.39552247       2.01112774        0
Al       0.00000000       0.00000000       0.00000000        1
