2
Lattice="2.9210444217144875 0.0 0.0 0.0 2.9210444217144875 0.0 0.0 0.0 4.209601486509997" Properties=species:S:1:pos:R:3:tags:I:1 spacegroup="P 1" unit_cell=conventional n_minim_iter=1 energy=-1704.0119053884353 free_energy=-1704.0119053884353 pbc="T T T"
Ti       1.46052221       1.46052221       2.10480075        0
Al       0.00000000       0.00000000       0.00000001        1
