2
Lattice="2.9819169501541594 0.0 0.0 0.0 2.9819169501541594 0.0 0.0 0.0 4.297326645464225" Properties=species:S:1:pos:R:3:tags:I:1 spacegroup="P 1" unit_cell=conventional n_minim_iter=1 energy=-1703.7717380358954 free_energy=-1703.7717380358954 pbc="T T T"
Ti       1.49095848       1.49095848       2.14866333        0
Al       0.00000000       0.00000000       0.00000001        1
