2
Lattice="2.879009161149436 0.0 0.0 0.0 2.879009161149436 0.0 0.0 0.0 4.149023258378628" Properties=species:S:1:pos:R:3:tags:I:1 spacegroup="P 1" unit_cell=conventional n_minim_iter=1 energy=-1704.1384312961627 free_energy=-1704.1384312961627 pbc="T T T"
Ti       1.43950458       1.43950458       2.07451163        0
Al       0.00000000       0.00000000       0.00000001        1
