2
Lattice="2.6476559929059693 0.0 0.0 0.0 2.6476559929059693 0.0 0.0 0.0 3.8156135253027923" Properties=species:S:1:pos:R:3:tags:I:1 spacegroup="P 1" unit_cell=conventional n_minim_iter=1 stress="-0.10184878330480637 -3.140057844976208e-17 2.1438145929556443e-18 -3.140057844976208e-17 -0.10184878330480637 9.58411229791935e-18 2.1438145929556443e-18 9.58411229791935e-18 -0.10352501546661073" pbc="T T T"
Ti       1.32382800       1.32382800       1.90780677        0
Al       0.00000000       0.00000000       0.00000000        1
