2
Lattice="2.9210444217144884 0.0 0.0 0.0 2.9210444217144884 0.0 0.0 0.0 4.209601486509998" Properties=species:S:1:pos:R:3:tags:I:1 spacegroup="P 1" unit_cell=conventional n_minim_iter=1 stress="0.08575648631290174 1.1882572478325376e-18 7.149495900034322e-18 1.1882572478325376e-18 0.08575648631290168 1.3298778248628934e-17 7.149495900034322e-18 1.3298778248628934e-17 0.08249161506290459" pbc="T T T"
Ti       1.46052221       1.46052221       2.10480075        0
Al       0.00000000       0.00000000       0.00000001        1
