2
Lattice="2.6476559929059693 0.0 0.0 0.0 2.6476559929059693 0.0 0.0 0.0 3.8156135253027923" Properties=species:S:1:pos:R:3:tags:I:1 spacegroup="P 1" unit_cell=conventional n_minim_iter=1 stress="-0.13566458527742992 -9.07968533487097e-19 1.1933300725830416e-17 -9.07968533487097e-19 -0.13566458527742992 -6.2260699439115216e-18 1.1933300725830416e-17 -6.2260699439115216e-18 -0.13758404050449421" pbc="T T T"
Ti       1.32382800       1.32382800       1.90780677        0
Al       0.00000000       0.00000000       0.00000000        1
