2
Lattice="2.515046160976986 0.0 0.0 0.0 2.515046160976986 0.0 0.0 0.0 3.6245056662561166" Properties=species:S:1:pos:R:3:tags:I:1 spacegroup="P 1" unit_cell=conventional n_minim_iter=1 stress="-0.31035613340195806 3.251113136034442e-17 2.7824842155249725e-17 3.251113136034442e-17 -0.3103561334019581 -2.174731084239255e-17 2.7824842155249725e-17 -2.174731084239255e-17 -0.31400720169248586" pbc="T T T"
Ti       1.25752308       1.25752308       1.81225284        0
Al       0.00000000       0.00000000       0.00000000        1
