2
Lattice="2.5697381280824794 0.0 0.0 0.0 2.5697381280824794 0.0 0.0 0.0 3.7033238397545896" Properties=species:S:1:pos:R:3:tags:I:1 spacegroup="P 1" unit_cell=conventional n_minim_iter=1 stress="-0.2594277998900845 2.468539450418043e-17 1.1349606668588704e-18 2.468539450418043e-17 -0.2594277998900843 1.404513825237852e-17 1.1349606668588704e-18 1.404513825237852e-17 -0.2633159124511779" pbc="T T T"
Ti       1.28486906       1.28486906       1.85166192        0
Al       0.00000000       0.00000000       0.00000000        1
