2
Lattice="2.697156314967513 0.0 0.0 0.0 2.697156314967513 0.0 0.0 0.0 3.8869498691748556" Properties=species:S:1:pos:R:3:tags:I:1 spacegroup="P 1" unit_cell=conventional n_minim_iter=1 stress="-0.07205066384013059 -8.772939208692889e-18 9.32508223581342e-18 -8.772939208692889e-18 -0.07205066384013079 5.398731820734085e-18 9.32508223581342e-18 5.398731820734085e-18 -0.07405601531069231" pbc="T T T"
Ti       1.34857816       1.34857816       1.94347494        0
Al       0.00000000       0.00000000       0.00000000        1
