22
Lattice="5.89721341262089 -1.6669034325586618 -1.895413368786548 -4.0778782203072055 9.60899081458864 -0.09523689418382536 -4.914554944991674 -1.8227187944735042 11.601263342835855" Properties=species:S:1:pos:R:3 unique_starting_index=18 config_type=initial n_minim_iter=13 energy=-3582.752476740251 free_energy=-3582.752476740251 pbc="T T T"
Si      -1.33357824       7.99973162       1.52904767
Si      -1.39728657       1.39087425       7.06423953
Si      -4.46342544      -2.02539811       9.84526619
Si       0.41079018      -0.82060915       9.32224120
Si      -6.11997665       3.06703442      11.00448802
Si       3.64153343       1.86376718       0.50777123
Si       2.26419722      -0.02272587      -0.20611076
Si      -3.05620110       2.74698586       9.79591111
Si      -1.56708780      -2.06289353       9.22870832
Si      -2.61054075       3.43634913       7.54904499
Si       1.43154782      -0.50693694       3.33071071
Si      -4.29762952       3.50479651       5.56327078
Si      -3.47096474       0.27643575       7.12173190
Si      -2.17059126       5.71724661       1.35063165
Si      -0.20578475       2.45082130       5.29065864
Si       0.58187545       6.30048505      -0.95754581
Si      -0.83495565      -0.06153362       2.73599400
Si       2.53755207      -3.63741777       5.80170993
Si      -0.24706722       2.18310983       1.96077417
Si      -4.81988212       5.47626526       8.61151054
Si      -2.05547675       3.91014190       4.69081796
Si      -3.88135719       0.51645746       9.50829466
