24
Lattice="8.83109889802317 1.5333609140847069 0.4379099457379623 -2.973028991013751 5.944067119284816 1.2932809763851372 0.04311656046905677 1.5755136398504013 8.810397892772071" Properties=species:S:1:pos:R:3 unique_starting_index=90 config_type=initial n_minim_iter=1 energy=-3909.186510211201 free_energy=-3909.186510211201 pbc="T T T"
Si       7.04409472       1.09736665       5.53885929
Si       2.01338489       3.94241312       0.55531874
Si       5.87768412       6.33980459       3.70846260
Si       2.05062609       0.03379280       1.95374944
Si       4.13650092       5.30079615      10.46036929
Si      -1.29929599       5.57174750       8.82967339
Si       1.14156754       2.44693102       4.52886449
Si       2.55919672       5.28276687       7.03213950
Si      -0.48308961       7.21152539       7.28487222
Si       5.85260743       2.94728107       6.40801535
Si       2.34891944       4.02378807       3.23698985
Si       4.13535517       7.53132265       4.57732078
Si       3.96758770       7.51653773       0.94086608
Si       8.34449311       5.03115253       8.49684986
Si       0.02967341       4.18847256       1.94459840
Si      -1.30977010       9.11825880      10.32147606
Si      -0.74370043       2.20917729       3.12071557
Si       5.39231701       7.26696413      10.32400168
Si       3.51241335       3.05692123       7.31170249
Si      -0.21821528       3.92896811       5.78360610
Si       0.67369727       6.06259829       5.56159457
Si       4.77771290       1.72435326       0.61161383
Si       6.65665186       4.72328184       5.12368147
Si       2.22387664       6.33754956       3.77026198
24
Lattice="8.830669182626744 1.5339393697241321 0.4380423638994839 -2.972663784157797 5.94505141126541 1.293629761915551 0.04320220776537181 1.5762522262991205 8.810787503140006" Properties=species:S:1:pos:R:3 unique_starting_index=90 config_type=initial n_minim_iter=2 stress="4.252515196863503e-05 9.06027474976374e-06 -5.593102394599341e-06 9.06027474976374e-06 0.00010720580340264499 9.79585516825524e-06 -5.593102394599341e-06 9.79585516825524e-06 5.279512944647181e-05" pbc="T T T"
Si       7.04375668       1.09806027       5.53914874
Si       2.01340366       3.94321577       0.55554941
Si       5.87755447       6.34133607       3.70900261
Si       2.05053042       0.03396374       1.95383301
Si       4.13650422       5.30246590      10.46101288
Si      -1.29903891       5.57311406       8.83025754
Si       1.14162710       2.44762625       4.52910905
Si       2.55925273       5.28412726       7.03268871
Si      -0.48280163       7.21310139       7.28550921
Si       5.85240052       2.94834013       6.40845443
Si       2.34897979       4.02469115       3.23728805
Si       4.13539993       7.53293395       4.57786080
Si       3.96761137       7.51804064       0.94133265
Si       8.34426891       5.03272966       8.49744101
Si       0.02979377       4.18930472       1.94490744
Si      -1.30932096       9.12031656      10.32231727
Si      -0.74356962       2.20970835       3.12091449
Si       5.39231156       7.26893426      10.32475864
Si       3.51236598       3.05794672       7.31212155
Si      -0.21806139       3.92995496       5.78401849
Si       0.67384681       6.06394621       5.56212183
Si       4.77748673       1.72483521       0.61176759
Si       6.65649575       4.72450311       5.12415565
Si       2.22400631       6.33889604       3.77073164
24
Lattice="8.829231813114731 1.534199807117648 0.4382503349776683 -2.9719841205552546 5.945059836472298 1.2938016425564298 0.04339305070800237 1.5767195351359204 8.810282262685092" Properties=species:S:1:pos:R:3 unique_starting_index=90 config_type=initial n_minim_iter=3 stress="-0.00016541746036706219 1.5477116443343175e-05 1.2122448935558896e-05 1.5477116443343175e-05 2.897282805761483e-05 3.933847705935629e-05 1.2122448935558896e-05 3.933847705935629e-05 -8.752803370435381e-05" pbc="T T T"
Si       7.04266271       1.09848787       5.53898558
Si       2.01316497       3.94337642       0.55573242
Si       5.87672383       6.34183070       3.70930502
Si       2.05023711       0.03409779       1.95375003
Si       4.13616775       5.30330297      10.46061794
Si      -1.29859074       5.57353073       8.82990207
Si       1.14163261       2.44790741       4.52884601
Si       2.55907111       5.28457902       7.03257655
Si      -0.48241546       7.21343417       7.28540153
Si       5.85158761       2.94888491       6.40836794
Si       2.34884229       4.02486500       3.23724153
Si       4.13498604       7.53318713       4.57794379
Si       3.96713626       7.51831278       0.94177539
Si       8.34320873       5.03338641       8.49727388
Si       0.02987257       4.18945161       1.94504479
Si      -1.30859437       9.12085407      10.32209486
Si      -0.74332403       2.20988705       3.12075061
Si       5.39178633       7.26964596      10.32453125
Si       3.51201101       3.05842863       7.31182802
Si      -0.21784149       3.93030935       5.78384151
Si       0.67389749       6.06425303       5.56210100
Si       4.77667864       1.72499992       0.61195852
Si       6.65566114       4.72477932       5.12421784
Si       2.22392665       6.33914023       3.77083307
24
Lattice="8.830697867947247 1.5343326863085447 0.43857347641430816 -2.9721500574395714 5.943844052847614 1.2942098819914944 0.04365235225462339 1.576715870664619 8.812189664456788" Properties=species:S:1:pos:R:3 unique_starting_index=90 config_type=initial n_minim_iter=4 stress="-7.774757203500238e-06 -1.6424716417153514e-05 9.904199150448275e-05 -1.6424716417153514e-05 -6.965368574217388e-05 3.759309780459517e-05 9.904199150448275e-05 3.759309780459517e-05 0.00017945519285439122" pbc="T T T"
Si       7.04367703       1.09843281       5.54051180
Si       2.01355979       3.94318853       0.55583615
Si       5.87752237       6.34184601       3.71118162
Si       2.05072422       0.03408296       1.95427420
Si       4.13756726       5.30396380      10.46272507
Si      -1.29885990       5.57248052       8.83165922
Si       1.14239225       2.44770702       4.52913787
Si       2.55976257       5.28391417       7.03453224
Si      -0.48210563       7.21188588       7.28725647
Si       5.85264271       2.94910645       6.41051327
Si       2.35012477       4.02385808       3.23754965
Si       4.13604773       7.53133916       4.57871797
Si       3.96800691       7.51778663       0.94259330
Si       8.34530192       5.03294664       8.49933190
Si       0.02967335       4.18895402       1.94593450
Si      -1.30756296       9.11946362      10.32465636
Si      -0.74323980       2.20969925       3.12102721
Si       5.39321096       7.26892300      10.32699466
Si       3.51300817       3.05822771       7.31332407
Si      -0.21772202       3.93008259       5.78523219
Si       0.67371125       6.06316415       5.56362356
Si       4.77707338       1.72497801       0.61266829
Si       6.65749093       4.72309769       5.12584347
Si       2.22507565       6.33789394       3.77175397
24
Lattice="8.83175805395909 1.5347168169682701 0.4367676046684979 -2.9725421172639517 5.944076284339154 1.2939862275396516 0.04212998627334112 1.5761604781212337 8.809988864480827" Properties=species:S:1:pos:R:3 unique_starting_index=90 config_type=initial n_minim_iter=5 stress="3.423649048069354e-05 1.5007279404776966e-05 -2.0297524579634345e-05 1.5007279404776966e-05 -1.5010765583209446e-05 1.6333165768520528e-06 -2.0297524579634345e-05 1.6333165768520528e-06 2.0808449066651067e-05" pbc="T T T"
Si       7.04351090       1.09824878       5.53789046
Si       2.01380290       3.94363446       0.55499510
Si       5.87773318       6.34236977       3.70894579
Si       2.05065471       0.03396572       1.95347294
Si       4.13645133       5.30397495      10.45899984
Si      -1.30053480       5.57210056       8.82933479
Si       1.14190307       2.44759507       4.52747929
Si       2.55895512       5.28384207       7.03207937
Si      -0.48326264       7.21174910       7.28510412
Si       5.85228007       2.94908852       6.40791181
Si       2.35015614       4.02387081       3.23590159
Si       4.13593805       7.53152150       4.57623864
Si       3.96854156       7.51857809       0.94117198
Si       8.34509031       5.03292216       8.49543087
Si       0.02935044       4.18916975       1.94521700
Si      -1.30908907       9.11931862      10.32180089
Si      -0.74380729       2.20961602       3.12013501
Si       5.39229623       7.26891891      10.32306976
Si       3.51227327       3.05799891       7.31068173
Si      -0.21869036       3.92997708       5.78362015
Si       0.67284228       6.06317724       5.56174324
Si       4.77748584       1.72525742       0.61165441
Si       6.65767985       4.72298008       5.12311277
Si       2.22499006       6.33804505       3.76996332
24
Lattice="8.83144858482512 1.5339022763231034 0.4372212483657068 -2.9730444865458465 5.945027749994488 1.2931700729073659 0.04257756765889174 1.575677622123101 8.808819389710159" Properties=species:S:1:pos:R:3 unique_starting_index=90 config_type=initial n_minim_iter=6 stress="-1.3797919392152397e-06 -5.461779412095587e-05 2.7051700233997013e-05 -5.461779412095587e-05 4.962334123799897e-05 -4.3282232922911085e-05 2.7051700233997013e-05 -4.3282232922911085e-05 -5.5124902706807825e-05" pbc="T T T"
Si       7.04355513       1.09717558       5.53764602
Si       2.01327318       3.94395286       0.55479378
Si       5.87745179       6.34201200       3.70847860
Si       2.05071115       0.03357099       1.95346597
Si       4.13655713       5.30343651      10.45752007
Si      -1.30054418       5.57219771       8.82775211
Si       1.14198471       2.44747850       4.52673684
Si       2.55878028       5.28365137       7.03101193
Si      -0.48360228       7.21212013       7.28368817
Si       5.85225880       2.94824446       6.40743367
Si       2.35000474       4.02383787       3.23528022
Si       4.13517006       7.53174440       4.57554029
Si       3.96765729       7.51906404       0.94091006
Si       8.34506367       5.03198082       8.49464492
Si       0.02897906       4.18953237       1.94463607
Si      -1.30920606       9.11985211      10.31981020
Si      -0.74385261       2.20964462       3.11943810
Si       5.39218568       7.26863347      10.32176517
Si       3.51239405       3.05739896       7.30978861
Si      -0.21868503       3.92994286       5.78256280
Si       0.67254493       6.06345452       5.56052474
Si       4.77721279       1.72499480       0.61183832
Si       6.65744610       4.72243097       5.12246527
Si       2.22447977       6.33809921       3.76925443
24
Lattice="8.830985484766254 1.5354315236360048 0.43653201361452104 -2.971944272867025 5.944642994546339 1.2941959859790846 0.041967683513226786 1.5768344396906118 8.808657435596576" Properties=species:S:1:pos:R:3 unique_starting_index=90 config_type=initial n_minim_iter=7 stress="-6.946100907771188e-05 3.1167730574612025e-05 -6.016446073085315e-05 3.1167730574612025e-05 1.7712366584287576e-05 5.227987305129948e-05 -6.016446073085315e-05 5.227987305129948e-05 -0.00014373217869060546" pbc="T T T"
Si       7.04225329       1.09903451       5.53692787
Si       2.01332698       3.94477971       0.55520737
Si       5.87873120       6.34263948       3.70892768
Si       2.05023669       0.03409481       1.95355272
Si       4.13624602       5.30584640      10.45681507
Si      -1.30059832       5.57283788       8.82816108
Si       1.14213145       2.44844728       4.52632095
Si       2.55857433       5.28483588       7.03112669
Si      -0.48343416       7.21290917       7.28450143
Si       5.85152458       2.94974944       6.40741631
Si       2.35068053       4.02452673       3.23501615
Si       4.13494609       7.53333152       4.57640200
Si       3.96835255       7.52011676       0.94212851
Si       8.34485633       5.03449340       8.49426142
Si       0.02924300       4.18978472       1.94499777
Si      -1.30801685       9.12118465      10.32087114
Si      -0.74386576       2.20955590       3.11918125
Si       5.39219505       7.27175557      10.32214790
Si       3.51195647       3.05883071       7.30936873
Si      -0.21845932       3.93024452       5.78261538
Si       0.67284468       6.06435674       5.56045633
Si       4.77688801       1.72625898       0.61186412
Si       6.65743600       4.72406775       5.12162078
Si       2.22488628       6.33810871       3.76992935
24
Lattice="8.830561214146698 1.5361282491920607 0.43621729862240277 -2.971261780501803 5.94425531909998 1.2931981237624854 0.042037679573347794 1.5751826398829922 8.809162805157573" Properties=species:S:1:pos:R:3 unique_starting_index=90 config_type=initial n_minim_iter=8 stress="-0.00011409872583115952 7.12207602579358e-05 -1.2344697326673354e-05 7.12207602579358e-05 3.458745547437031e-05 -0.00011199751856173423 -1.2344697326673354e-05 -0.00011199751856173423 -2.1782529816961766e-05" pbc="T T T"
Si       7.04145708       1.09836311       5.53734476
Si       2.01321966       3.94546241       0.55445218
Si       5.87903582       6.34265602       3.70866638
Si       2.05012752       0.03378005       1.95398335
Si       4.13663099       5.30520661      10.45616843
Si      -1.30049019       5.57088473       8.82772369
Si       1.14258938       2.44786938       4.52554989
Si       2.55860868       5.28371688       7.03082726
Si      -0.48310759       7.21138054       7.28388243
Si       5.85123943       2.94908268       6.40797748
Si       2.35152219       4.02385827       3.23395492
Si       4.13494731       7.53263915       4.57527877
Si       3.96856352       7.52103396       0.94132954
Si       8.34516508       5.03359411       8.49404817
Si       0.02919426       4.18963362       1.94446774
Si      -1.30653362       9.11948638      10.32026292
Si      -0.74368110       2.20878404       3.11849444
Si       5.39255900       7.27094433      10.32189410
Si       3.51204883       3.05770128       7.30921621
Si      -0.21812966       3.92913617       5.78225899
Si       0.67277530       6.06342843       5.55953277
Si       4.77639831       1.72683189       0.61200232
Si       6.65778703       4.72284241       5.12103018
Si       2.22543547       6.33708400       3.76906972
24
Lattice="8.831599372377612 1.5352076190731563 0.4362318908182881 -2.9723270663481114 5.9446358046853875 1.2938474193854745 0.041739089381499374 1.5761508899046983 8.808877500676605" Properties=species:S:1:pos:R:3 unique_starting_index=90 config_type=initial n_minim_iter=9 stress="-1.2121262864238671e-05 -6.203456675493076e-05 1.0074269061001678e-08 -6.203456675493076e-05 1.7996740324209002e-05 -1.3810670435887113e-05 1.0074269061001678e-08 -1.3810670435887113e-05 1.660312969313458e-05" pbc="T T T"
Si       7.04180507       1.09797001       5.53722955
Si       2.01275449       3.94580440       0.55478515
Si       5.87916829       6.34252667       3.70977260
Si       2.05042097       0.03369338       1.95411777
Si       4.13674562       5.30682800      10.45559421
Si      -1.30177847       5.57171371       8.82770796
Si       1.14278465       2.44835489       4.52483790
Si       2.55806875       5.28407338       7.03110010
Si      -0.48433274       7.21191274       7.28440598
Si       5.85152144       2.94918873       6.40845430
Si       2.35202411       4.02356205       3.23363821
Si       4.13433141       7.53223540       4.57573058
Si       3.96811986       7.52124952       0.94264003
Si       8.34609327       5.03349317       8.49403736
Si       0.02833043       4.18991425       1.94493623
Si      -1.30714412       9.12086292      10.32097791
Si      -0.74407181       2.20903649       3.11801793
Si       5.39249926       7.27195763      10.32231694
Si       3.51219122       3.05801727       7.30891685
Si      -0.21864474       3.92973003       5.78229254
Si       0.67159037       6.06383548       5.55966094
Si       4.77653356       1.72657206       0.61256628
Si       6.65849690       4.72166859       5.12114923
Si       2.22518311       6.33660954       3.76953826
24
Lattice="8.832406992481358 1.5359092859004742 0.4367688611446658 -2.971995859829797 5.944373303533964 1.293714336610796 0.04239869201876671 1.5763294230676017 8.808357891087693" Properties=species:S:1:pos:R:3 unique_starting_index=90 config_type=initial n_minim_iter=10 stress="4.532530049921543e-05 3.2136568046561048e-06 5.735797984373744e-05 3.2136568046561048e-06 1.1140390757999387e-05 -6.568905606337766e-06 5.735797984373744e-05 -6.568905606337766e-06 -2.455812222761434e-05" pbc="T T T"
Si       7.04263796       1.09861668       5.53736863
Si       2.01316817       3.94607341       0.55495775
Si       5.88032995       6.34301853       3.71017934
Si       2.05071617       0.03391317       1.95419924
Si       4.13816392       5.30752796      10.45514754
Si      -1.30093991       5.57172076       8.82715426
Si       1.14340407       2.44854675       4.52453069
Si       2.55902580       5.28434197       7.03090082
Si      -0.48343422       7.21194633       7.28406015
Si       5.85258359       2.94975458       6.40856593
Si       2.35284007       4.02372889       3.23355368
Si       4.13548062       7.53252589       4.57586587
Si       3.96903953       7.52164580       0.94314309
Si       8.34772828       5.03429457       8.49411018
Si       0.02871902       4.18992780       1.94488610
Si      -1.30573747       9.12096642      10.32051738
Si      -0.74375540       2.20894311       3.11768570
Si       5.39414199       7.27270794      10.32223314
Si       3.51314346       3.05840530       7.30870332
Si      -0.21794491       3.92974038       5.78195449
Si       0.67234082       6.06394763       5.55937781
Si       4.77703642       1.72699489       0.61297278
Si       6.65973710       4.72206550       5.12131849
Si       2.22608431       6.33668041       3.76955441
