6
Lattice="4.820392033732924 0.394045560782013 0.5727339873742365 -1.9345874483377994 4.432699253003941 -0.5727339873742038 -1.9345939372164853 -2.1194007847967837 3.9350936576693343" Properties=species:S:1:pos:R:3 unique_starting_index=74 config_type=initial n_minim_iter=7 energy=-977.8595249719375 free_energy=-977.8595249719375 pbc="T T T"
Si      -0.35794407       2.15564913       2.80817016
Si      -2.06829548      -0.70505385       2.80817016
Si      -0.06649931       0.03975848       1.81183643
Si      -2.35966487       1.41079174       3.80462162
Si       1.57648924       2.33350371       0.20867258
Si       2.75205346       1.63065972       2.04498984
