16
Lattice="11.010813464919497 1.5382498239042295 -0.8244362029021768 3.2540606955810647 6.73233246740745 -0.16187952292512087 1.6991153271022752 1.523317825764111 6.9478016041050354" Properties=species:S:1:pos:R:3 unique_starting_index=30 config_type=initial n_minim_iter=1 energy=-2603.7023649023486 free_energy=-2603.7023649023486 pbc="T T T"
Si       8.52556747       7.06475820       2.61204736
Si       7.43842202       2.72914191       3.34943852
Si       6.03052949       3.80409007       1.82694067
Si       9.93345999       5.98981005       4.13454520
Si       8.73528887       4.08668438       4.75999450
Si       7.22870062       5.70721574       1.20149138
Si       8.38671754       5.79199992      -0.83392199
Si       7.57727195       4.00190019       6.79540787
Si       3.96532074       4.18614648       2.74536146
Si      11.99866875       5.60775364       3.21612441
Si      13.12606159       6.41579081       1.81483285
Si       2.83792790       3.37810930       4.14665303
Si       4.85057489       2.59464656       3.43576797
Si      11.11341460       7.19925356       2.52571791
Si       9.82820445       7.14365878       0.56505995
Si       6.13578504       2.65024133       5.39642593
