20
Lattice="12.61281793520256 1.9480533215498097 3.565570329250098 -0.9654382313229918 13.03566240032744 0.08082196898678334 -2.508236526086168 -5.4264911444568025 3.8224503924828173" Properties=species:S:1:pos:R:3 unique_starting_index=76 config_type=initial n_minim_iter=4 energy=-3276.087641137758 free_energy=-3276.087641137758 pbc="T T T"
Si       8.72283029       2.43071424       5.63399844
Si      -2.55622154       1.10253521       3.28111405
Si       7.28220795       0.32989999       3.24491842
Si       0.80129241       6.07595198       1.18338216
Si      13.24541122       9.89749081       4.27563207
Si       7.15549999       2.93284882       4.48996744
Si       1.93701536       8.31057439       3.88265177
Si      -1.03417292       2.24211731       2.77912999
Si       8.63872751       1.72601720       3.83719264
Si      -0.82457392       0.23267570       3.20469933
Si       7.28948345       1.06021778       5.16328259
Si       2.10098478       8.34149181       1.97041427
Si       2.30780210       6.42940385       2.44265113
Si      -0.13659658       3.56887029       3.95120344
Si       2.40482938       7.04036181       0.54420067
Si       0.64907212       7.32403783       2.79888594
Si       7.13293583       2.21699586       2.56264122
Si       5.76289422       1.48625577       3.78766993
Si       2.05771574       6.46384091       4.35052870
Si       2.61775965       8.36370840       5.66024274
