16
Lattice="11.567704775372528 1.0625918886013983 2.093666327175216 4.0627917096441895 8.119307476674926 0.4405830946289234 4.798622157884037 0.7153119187640864 7.791005118177592" Properties=species:S:1:pos:R:3 unique_starting_index=92 config_type=initial n_minim_iter=16 energy=-2617.540404302695 free_energy=-2617.540404302695 pbc="T T T"
Si       7.33476020       8.04129242       3.51365505
Si       1.37186173       0.67562539       0.76326637
Si       8.65200365       6.81266551       5.01784476
Si       9.07167809       5.21878713       3.83482699
Si      18.99808353       7.01924208       8.37639806
Si       8.03506021       4.30666691       7.12648039
Si      10.61848924       4.16691477       4.48620697
Si       7.23741126       6.16784062       3.90867465
Si       9.11018985       6.52123563       7.10283848
Si       7.27182096       3.02412373       8.31851769
Si       9.26108905       5.07580921       5.78617892
Si       9.96648606       7.63294625       8.37626454
Si      13.53673174       2.39861505       4.63811077
Si       7.52402975       4.54992266       4.93620356
Si      17.64464838       8.33696959       4.37438034
Si       3.45371518       0.83272079       1.34946563
