12
Lattice="6.4043006000545875 -0.615572819717661 -1.8814767051137498 -2.0678964725325706 6.676366897349119 0.34113681895717407 -3.1325385537294013 -0.3680849407791837 6.6155159805888175" Properties=species:S:1:pos:R:3 unique_starting_index=44 config_type=initial n_minim_iter=6 energy=-1954.0963480629616 free_energy=-1954.0963480629616 pbc="T T T"
Si      -2.99738723       2.80087934       5.21590462
Si      -0.87176583       3.26654476       2.17660733
Si      -2.24156654       4.44643668       3.71372921
Si       0.82930573       2.59092604       3.59453787
Si       1.65255025       4.84048057       4.13023044
Si       1.75009615       0.45413738       2.96836508
Si       2.39567225       4.11178089       0.19589360
Si       0.09340852       4.63752284       0.56362124
Si      -0.54199314       1.78194903       5.38929587
Si       4.18392817       0.77461395      -0.13255345
Si      -2.34872929       0.60970039       4.06332393
Si       1.59084270      -1.16477609       4.77242823
