8
Lattice="7.267468618019278 -1.868230763570254e-15 -1.495891698157554e-48 -3.633734309009638 6.293812444410886 -9.227821673801223e-49 -1.2109948408988292e-48 3.222724757810385e-48 6.814683794806486" Properties=species:S:1:pos:R:3 unique_starting_index=80 config_type=initial n_minim_iter=9 energy=-1300.485066990334 free_energy=-1300.485066990334 pbc="T T T"
Si       3.63376551       4.08805717       4.86866869
Si       1.91022415       1.10290528       4.86866869
Si       5.35721220       1.10285062       4.86866869
Si       1.72347789       5.19096224       4.86866869
Si       0.00003120       2.20575569       4.86866869
Si      -1.72351016       5.19090758       4.86866869
Si       3.63373395       2.09793769       3.90623784
Si      -0.00000036       4.19587517       3.90623784
