22
Lattice="6.385650682408673 1.5282951783599184e-44 -6.213881175339247e-31 -1.9127904036355815e-44 8.322723039648524 8.129639621117315e-15 1.5656488860444021e-30 -1.5716015125405495e-14 16.089279140481775" Properties=species:S:1:pos:R:3 unique_starting_index=32 config_type=initial n_minim_iter=1 energy=-3591.1399094778517 free_energy=-3591.1399094778517 pbc="T T T"
Si       3.18459402       1.27307567       9.15054127
Si       3.20105666       7.04964737       9.15054127
Si       3.18459402       2.88828585       1.10590170
Si       3.20105666       5.43443719       1.10590170
Si       4.41645578       4.15359543      16.33444916
Si       1.96919490       4.16912761      16.33444916
Si       4.41645578       0.00776609       8.28980959
Si       1.96919490       8.31495695       8.28980959
Si       3.34354700       2.23275547      10.90820243
Si       3.04210368       6.08996757      10.90820243
Si       3.34354700       1.92860605       2.86356286
Si       3.04210368       6.39411699       2.86356286
Si       3.34438291       5.11762364       9.23969555
Si       3.04126778       3.20509940       9.23969555
Si       3.34438291       7.36646092       1.19505598
Si       3.04126778       0.95626212       1.19505598
Si       2.21375034      -0.12917012       2.65656688
Si       4.17190034       8.45189316       2.65656688
Si       2.21375034       4.29053164      10.70120645
Si       4.17190034       4.03219139      10.70120645
Si       3.19282534       4.16136152       2.54536514
Si       3.19282534      -0.00000000      10.59000471
22
Lattice="6.382195749317523 1.546246577794223e-44 -6.335458279263986e-31 -1.8883706860710836e-44 8.311350515618805 8.047193912346261e-15 1.5333190611753314e-30 -1.5846968508343933e-14 16.080512165645217" Properties=species:S:1:pos:R:3 unique_starting_index=32 config_type=initial n_minim_iter=2 stress="0.0010198376953630226 -1.449708621795936e-16 2.9434699074208904e-16 -1.449708621795936e-16 0.0015484478383971452 -1.8804607495879588e-16 2.9434699074208904e-16 -1.8804607495879588e-16 -0.0004419598243517086" pbc="T T T"
Si       3.18290098       1.27139251       9.14559178
Si       3.19929477       7.03995800       9.14559178
Si       3.18290098       2.88428274       1.10533570
Si       3.19929477       5.42706777       1.10533570
Si       4.41398158       4.14791610      16.32558983
Si       1.96821417       4.16343442      16.32558983
Si       4.41398158       0.00775916       8.28533375
Si       1.96821417       8.30359136       8.28533375
Si       3.34171491       2.22968349      10.90220161
Si       3.04048084       6.08166702      10.90220161
Si       3.34171491       1.92599177       2.86194553
Si       3.04048084       6.38535875       2.86194553
Si       3.34265043       5.11051642       9.23467323
Si       3.03954532       3.20083410       9.23467323
Si       3.34265043       7.35650935       1.19441715
Si       3.03954532       0.95484116       1.19441715
Si       2.21264749      -0.12886274       2.65512523
Si       4.16954825       8.44021326       2.65512523
Si       2.21264749       4.28453800      10.69538132
Si       4.16954825       4.02681252      10.69538132
Si       3.19109787       4.15567526       2.54389999
Si       3.19109787      -0.00000000      10.58415608
22
Lattice="6.37397198638809 1.5431240179716048e-44 -6.420961876589945e-31 -1.8881117656257327e-44 8.30252035403897 8.1329455687949e-15 1.5118502879084818e-30 -1.5689822892406587e-14 16.11007938366291" Properties=species:S:1:pos:R:3 unique_starting_index=32 config_type=initial n_minim_iter=3 stress="-9.136473653633392e-05 1.4861862553767653e-17 1.7491607479530419e-16 1.4861862553767653e-17 0.0005785621654499543 -1.4323338772533187e-16 1.7491607479530419e-16 -1.4323338772533187e-16 0.0022834468117611645" pbc="T T T"
Si       3.17900083       1.27045049       9.16238294
Si       3.19497116       7.03206986       9.16238294
Si       3.17900083       2.88080968       1.10734325
Si       3.19497116       5.42171067       1.10734325
Si       4.40792289       4.14348083      16.35574252
Si       1.96604909       4.15903953      16.35574252
Si       4.40792289       0.00777935       8.30070283
Si       1.96604909       8.29474100       8.30070283
Si       3.33727338       2.22691265      10.92220485
Si       3.03669861       6.07560770      10.92220485
Si       3.33727338       1.92434752       2.86716516
Si       3.03669861       6.37817283       2.86716516
Si       3.33899830       5.10448673       9.25134693
Si       3.03497369       3.19803363       9.25134693
Si       3.33899830       7.34929380       1.19630723
Si       3.03497369       0.95322655       1.19630723
Si       2.21013752      -0.12780171       2.66019674
Si       4.16383447       8.43032206       2.66019674
Si       2.21013752       4.27906188      10.71523643
Si       4.16383447       4.02345847      10.71523643
Si       3.18698599       4.15126018       2.54867579
Si       3.18698599      -0.00000000      10.60371548
22
Lattice="6.362987652529111 1.5397676004710143e-44 -6.471601788509227e-31 -1.891799737869376e-44 8.311967242841424 8.168338916766917e-15 1.4934276189096137e-30 -1.5609146225565892e-14 16.07965232701045" Properties=species:S:1:pos:R:3 unique_starting_index=32 config_type=initial n_minim_iter=4 stress="-0.002774135071232166 8.288136555740313e-17 1.3518426608969462e-16 8.288136555740313e-17 0.0010031348679864062 -8.698239394520484e-18 1.3518426608969462e-16 -8.698239394520484e-18 -0.000983816915734256" pbc="T T T"
Si       3.17506536       1.27422598       9.14647089
Si       3.18792229       7.03774126       9.14647089
Si       3.17506536       2.88175764       1.10664472
Si       3.18792229       5.43020960       1.10664472
Si       4.39807682       4.14803990      16.32552844
Si       1.96491083       4.16392734      16.32552844
Si       4.39807682       0.00794372       8.28570228
Si       1.96491083       8.30402353       8.28570228
Si       3.33032410       2.22676576      10.89959608
Si       3.03266356       6.08520148      10.89959608
Si       3.33032410       1.92921786       2.85976992
Si       3.03266356       6.38274939       2.85976992
Si       3.33829559       5.10751313       9.23293871
Si       3.02469207       3.20445411       9.23293871
Si       3.33829559       7.36043774       1.19311254
Si       3.02469207       0.95152951       1.19311254
Si       2.20787304      -0.12111114       2.65651671
Si       4.15511462       8.43307838       2.65651671
Si       2.20787304       4.27709476      10.69634287
Si       4.15511462       4.03487248      10.69634287
Si       3.18149383       4.15598362       2.54286434
Si       3.18149383      -0.00000000      10.58269050
22
Lattice="6.383538635621594 1.5503572529293965e-44 -6.478391678782275e-31 -1.8799337496696396e-44 8.299243017445066 8.303027744703704e-15 1.4969661089006347e-30 -1.5324910324698257e-14 16.084032071671867" Properties=species:S:1:pos:R:3 unique_starting_index=32 config_type=initial n_minim_iter=5 stress="0.00011912101335231364 -6.833777254288923e-17 3.859443801907678e-16 -6.833777254288923e-17 -0.0015466135079168243 -4.498708261464647e-16 3.859443801907678e-16 -4.498708261464647e-16 -0.0010281071959434287" pbc="T T T"
Si       3.18615866       1.27391065       9.14970726
Si       3.19737997       7.02533237       9.14970726
Si       3.18615866       2.87571086       1.10769122
Si       3.19737997       5.42353216       1.10769122
Si       4.41094752       4.14172925      16.33036688
Si       1.97259111       4.15751377      16.33036688
Si       4.41094752       0.00789226       8.28835085
Si       1.97259111       8.29135076       8.28835085
Si       3.34046671       2.22229151      10.90120230
Si       3.04307193       6.07695151      10.90120230
Si       3.34046671       1.92733000       2.85918627
Si       3.04307193       6.37191302       2.85918627
Si       3.35223883       5.09871137       9.23482580
Si       3.03129981       3.20053164       9.23482580
Si       3.35223883       7.35015315       1.19280977
Si       3.03129981       0.94908986       1.19280977
Si       2.21519844      -0.11715223       2.65840893
Si       4.16834019       8.41639525       2.65840893
Si       2.21519844       4.26677374      10.70042497
Si       4.16834019       4.03246928      10.70042497
Si       3.19176932       4.14962151       2.54292677
Si       3.19176932      -0.00000000      10.58494280
22
Lattice="6.384394646694873 1.5508004063034528e-44 -6.437677336591242e-31 -1.8783277507990795e-44 8.29569856084911 8.292014363102412e-15 1.5096189082152191e-30 -1.5361506632805892e-14 16.105678874819088" Properties=species:S:1:pos:R:3 unique_starting_index=32 config_type=initial n_minim_iter=6 stress="-0.0008851350300055702 -2.128022735724207e-16 1.7655048908830587e-16 -2.128022735724207e-16 -0.0017876642025607366 -3.56220359745571e-16 1.7655048908830587e-16 -3.56220359745571e-16 -0.0014555642076603125" pbc="T T T"
Si       3.18818861       1.27566476       9.16068046
Si       3.19620604       7.02003380       9.16068046
Si       3.18818861       2.87218452       1.10784102
Si       3.19620604       5.42351404       1.10784102
Si       4.40592621       4.14139044      16.35463729
Si       1.97846844       4.15430812      16.35463729
Si       4.40592621       0.00645884       8.30179785
Si       1.97846844       8.28923972       8.30179785
Si       3.34050418       2.22422938      10.91049121
Si       3.04389046       6.07146918      10.91049121
Si       3.34050418       1.92361990       2.85765177
Si       3.04389046       6.37207866       2.85765177
Si       3.36274206       5.09930932       9.24744926
Si       3.02165258       3.19638924       9.24744926
Si       3.36274206       7.34423852       1.19460982
Si       3.02165258       0.95146004       1.19460982
Si       2.21649607      -0.10962678       2.66676467
Si       4.16789857       8.40532534       2.66676467
Si       2.21649607       4.25747606      10.71960411
Si       4.16789857       4.03822251      10.71960411
Si       3.19219732       4.14784928       2.54526692
Si       3.19219732      -0.00000000      10.59810636
22
Lattice="6.4054813054429784 1.5543302296608578e-44 -6.380822262318433e-31 -1.8806446802562738e-44 8.302370721168721 8.310817428231233e-15 1.5331995989876883e-30 -1.5380107339252784e-14 16.14813826016177" Properties=species:S:1:pos:R:3 unique_starting_index=32 config_type=initial n_minim_iter=7 stress="-0.0002764264912313503 1.3747392319475742e-16 7.434905938619726e-17 1.3747392319475742e-16 5.771899491502673e-05 -4.962739744928296e-16 7.434905938619726e-17 -4.962739744928296e-16 -0.0005822278402577185" pbc="T T T"
Si       3.20045049       1.27486874       9.18431674
Si       3.20503082       7.02750198       9.18431674
Si       3.20045049       2.87631662       1.11024761
Si       3.20503082       5.42605411       1.11024761
Si       4.41491984       4.14746247      16.39978720
Si       1.99056146       4.15490825      16.39978720
Si       4.41491984       0.00372289       8.32571807
Si       1.99056146       8.29864783       8.32571807
Si       3.35323469       2.23278993      10.93450298
Si       3.05224662       6.06958079      10.93450298
Si       3.35323469       1.91839543       2.86043385
Si       3.05224662       6.38397529       2.86043385
Si       3.38624129       5.09830137       9.27289435
Si       3.01924002       3.20406935       9.27289435
Si       3.38624129       7.35525471       1.19882522
Si       3.01924002       0.94711601       1.19882522
Si       2.22587613      -0.10402739       2.67911607
Si       4.17960518       8.40639811       2.67911607
Si       2.22587613       4.25521275      10.75318520
Si       4.17960518       4.04715797      10.75318520
Si       3.20274065       4.15118536       2.54566561
Si       3.20274065      -0.00000000      10.61973474
22
Lattice="6.423812118872505 1.5570780092924155e-44 -6.300652059768271e-31 -1.8837936928209099e-44 8.314408956858516 8.365823520435267e-15 1.5643591020546924e-30 -1.5361846588130732e-14 16.21377772488687" Properties=species:S:1:pos:R:3 unique_starting_index=32 config_type=initial n_minim_iter=8 stress="0.00037620426592454827 -5.4999544725666424e-17 -9.236752466443255e-17 -5.4999544725666424e-17 0.0013388036802410852 -5.190877503795339e-16 -9.236752466443255e-17 -5.190877503795339e-16 0.0007315102103367746" pbc="T T T"
Si       3.21261676       1.28266002       9.22363205
Si       3.21119536       7.03174893       9.22363205
Si       3.21261676       2.87454445       1.11674318
Si       3.21119536       5.43986450       1.11674318
Si       4.42464394       4.15692155      16.46646981
Si       1.99916818       4.15748741      16.46646981
Si       4.42464394       0.00028293       8.35958095
Si       1.99916818       8.31412603       8.35958095
Si       3.36739118       2.24580583      10.97179395
Si       3.05642094       6.06860313      10.97179395
Si       3.36739118       1.91139865       2.86490509
Si       3.05642094       6.40301031       2.86490509
Si       3.41227700       5.09981398       9.31368610
Si       3.01153512       3.21459498       9.31368610
Si       3.41227700       7.37179946       1.20679723
Si       3.01153512       0.94260950       1.20679723
Si       2.23816815      -0.10009260       2.69564981
Si       4.18564397       8.41450156       2.69564981
Si       2.23816815       4.25729708      10.80253867
Si       4.18564397       4.05711188      10.80253867
Si       3.21190606       4.15720448       2.54883436
Si       3.21190606      -0.00000000      10.65572322
22
Lattice="6.4157630786652176 1.5557283536070287e-44 -6.295479892513777e-31 -1.8835704009642e-44 8.317611220982345 8.396694139792209e-15 1.5668672795638503e-30 -1.533847366740228e-14 16.243953267021865" Properties=species:S:1:pos:R:3 unique_starting_index=32 config_type=initial n_minim_iter=9 stress="0.0002795335943832301 -7.819108362410127e-17 4.962988518319286e-18 -7.819108362410127e-17 0.0007632918315151014 -2.458963191828745e-16 4.962988518319286e-18 -2.458963191828745e-16 0.0007755291176555231" pbc="T T T"
Si       3.21154034       1.28630990       9.24208057
Si       3.20422274       7.03130132       9.24208057
Si       3.21154034       2.87249571       1.12010393
Si       3.20422274       5.44511552       1.12010393
Si       4.41552352       4.16018378      16.49898347
Si       2.00023956       4.15742745      16.49898347
Si       4.41552352      -0.00137816       8.37700684
Si       2.00023956       8.31898939       8.37700684
Si       3.36759831       2.24983058      10.98930482
Si       3.04816477       6.06778064      10.98930482
Si       3.36759831       1.90897503       2.86732819
Si       3.04816477       6.40863619       2.86732819
Si       3.41896896       5.10050212       9.33068315
Si       2.99679412       3.21710910       9.33068315
Si       3.41896896       7.37591471       1.20870652
Si       2.99679412       0.94169651       1.20870652
Si       2.23434021      -0.09939386       2.70498049
Si       4.18142287       8.41700508       2.70498049
Si       2.23434021       4.25819947      10.82695712
Si       4.18142287       4.05941176      10.82695712
Si       3.20788154       4.15880561       2.54514097
Si       3.20788154      -0.00000000      10.66711760
22
Lattice="6.396145805247373 1.5493515919189117e-44 -6.320609221151371e-31 -1.8898601598804076e-44 8.332431581089557 8.41282467899102e-15 1.5588752447738263e-30 -1.5362315351846125e-14 16.2716837127519" Properties=species:S:1:pos:R:3 unique_starting_index=32 config_type=initial n_minim_iter=10 stress="-0.0004834477539482342 -6.275041918422345e-16 1.4319560202561193e-16 -6.275041918422345e-16 -0.0012300388034576332 -4.779904601945245e-17 1.4319560202561193e-16 -4.779904601945245e-17 -0.0007394153233543903" pbc="T T T"
Si       3.20907749       1.30028672       9.25573299
Si       3.18706832       7.03214486       9.25573299
Si       3.20907749       2.86592907       1.11989114
Si       3.18706832       5.46650251       1.11989114
Si       4.39220296       4.17267911      16.53330902
Si       2.00394284       4.15975247      16.53330902
Si       4.39220296      -0.00646332       8.39746716
Si       2.00394284       8.33889490       8.39746716
Si       3.36911274       2.26024345      10.99950536
Si       3.02703306       6.07218813      10.99950536
Si       3.36911274       1.90597234       2.86366350
Si       3.02703306       6.42645924       2.86366350
Si       3.43535510       5.10268156       9.34942661
Si       2.96079071       3.22975002       9.34942661
Si       3.43535510       7.39596581       1.21358475
Si       2.96079071       0.93646577       1.21358475
Si       2.22085396      -0.09779307       2.71888441
Si       4.17529185       8.43022465       2.71888441
Si       2.22085396       4.26400886      10.85472627
Si       4.17529185       4.06842272      10.85472627
Si       3.19807290       4.16621579       2.53433344
Si       3.19807290      -0.00000000      10.67017529
22
Lattice="6.384633438211548 1.5444528691696662e-44 -6.464536384382523e-31 -1.9072270043010522e-44 8.376038489928483 8.238148515891002e-15 1.524507344358758e-30 -1.582241793829127e-14 16.314110919400548" Properties=species:S:1:pos:R:3 unique_starting_index=32 config_type=initial n_minim_iter=11 stress="0.0009305946182417512 -4.975958060628467e-16 2.5189723916202744e-16 -4.975958060628467e-16 0.0012925204915935418 1.2188990594727153e-16 2.5189723916202744e-16 1.2188990594727153e-16 0.0010720069465879444" pbc="T T T"
Si       3.20931980       1.32811528       9.27344847
Si       3.17531363       7.04792321       9.27344847
Si       3.20931980       2.85990397       1.11639301
Si       3.17531363       5.51613452       1.11639301
Si       4.37988238       4.20481015      16.58446951
Si       2.00475106       4.17122834      16.58446951
Si       4.37988238      -0.01679091       8.42741405
Si       2.00475106       8.39282940       8.42741405
Si       3.37926041       2.27290885      11.02164607
Si       3.00537303       6.10312964      11.02164607
Si       3.37926041       1.91511039       2.86459061
Si       3.00537303       6.46092810       2.86459061
Si       3.44976518       5.12038152       9.38232458
Si       2.93486826       3.25565697       9.38232458
Si       3.44976518       7.44367622       1.22526912
Si       2.93486826       0.93236227       1.22526912
Si       2.21369586      -0.09806732       2.73702644
Si       4.17093757       8.47410581       2.73702644
Si       2.21369586       4.28608656      10.89408190
Si       4.17093757       4.08995193      10.89408190
Si       3.19231672       4.18801924       2.51160939
Si       3.19231672      -0.00000000      10.66866485
22
Lattice="6.381952273167307 1.550277953022775e-44 -6.7238488599940586e-31 -1.9222227018787324e-44 8.439464604283458 7.809643450604592e-15 1.4651879310323226e-30 -1.6830491949248283e-14 16.374272119024237" Properties=species:S:1:pos:R:3 unique_starting_index=32 config_type=initial n_minim_iter=12 stress="0.0013756443680893768 -6.205269146897757e-16 4.0082466261034184e-16 -6.205269146897757e-16 0.0012481957047067334 2.231911817306581e-16 4.0082466261034184e-16 2.231911817306581e-16 0.001960344160660733" pbc="T T T"
Si       3.22278043       1.36736920       9.28165333
Si       3.15917185       7.07209540       9.28165333
Si       3.22278043       2.85236310       1.09451727
Si       3.15917185       5.58710151       1.09451727
Si       4.37598856       4.24464119      16.66382860
Si       2.00596372       4.19482342      16.66382860
Si       4.37598856      -0.02490888       8.47669254
Si       2.00596372       8.46437349       8.47669254
Si       3.39873997       2.28742036      11.05466767
Si       2.98321231       6.15204424      11.05466767
Si       3.39873997       1.93231194       2.86753161
Si       2.98321231       6.50715267       2.86753161
Si       3.45394604       5.14740832       9.43901246
Si       2.92800624       3.29205628       9.43901246
Si       3.45394604       7.51178858       1.25187640
Si       2.92800624       0.92767602       1.25187640
Si       2.21156270      -0.09982180       2.76931522
Si       4.17038957       8.53928640       2.76931522
Si       2.21156270       4.31955410      10.95645128
Si       4.17038957       4.11991051      10.95645128
Si       3.19097614       4.21973230       2.46313153
Si       3.19097614      -0.00000000      10.65026759
22
Lattice="6.376566840170568 1.55647872871336e-44 -7.229720146688984e-31 -1.9454245787110289e-44 8.521510200555966 7.2079538026327e-15 1.3510031591989971e-30 -1.8272890894315775e-14 16.498451965858575" Properties=species:S:1:pos:R:3 unique_starting_index=32 config_type=initial n_minim_iter=13 stress="0.00040207663383214667 -7.096074566996555e-16 4.705387076055626e-16 -7.096074566996555e-16 0.0034432493376845602 -1.3370543205451789e-16 4.705387076055626e-16 -1.3370543205451789e-16 0.0013461734358853217" pbc="T T T"
Si       3.24024454       1.42071077       9.32298703
Si       3.13632230       7.10079943       9.32298703
Si       3.24024454       2.84004433       1.07376104
Si       3.13632230       5.68146587       1.07376104
Si       4.36049738       4.30110318      16.81587930
Si       2.01606946       4.22040702      16.81587930
Si       4.36049738      -0.04034808       8.56665332
Si       2.01606946       8.56185828       8.56665332
Si       3.42400699       2.31372130      11.12107487
Si       2.95255985       6.20778890      11.12107487
Si       3.42400699       1.94703380       2.87184889
Si       2.95255985       6.57447640       2.87184889
Si       3.48066957       5.18099856       9.53681612
Si       2.89589727       3.34051164       9.53681612
Si       3.48066957       7.60126675       1.28759014
Si       2.89589727       0.92024346       1.28759014
Si       2.20954296      -0.09269730       2.82592639
Si       4.16702388       8.61420750       2.82592639
Si       2.20954296       4.35345240      11.07515237
Si       4.16702388       4.16805780      11.07515237
Si       3.18828342       4.26075510       2.39977701
Si       3.18828342      -0.00000000      10.64900299
22
Lattice="6.383712651881793 1.5746851389917197e-44 -7.7205923118268566e-31 -1.9224512071415133e-44 8.488988668619196 7.095874452737139e-15 1.2289344798942184e-30 -1.8422140386159396e-14 16.501277014961243" Properties=species:S:1:pos:R:3 unique_starting_index=32 config_type=initial n_minim_iter=14 stress="-0.000589472089091159 -7.341892005099534e-16 4.3653494207574174e-16 -7.341892005099534e-16 0.00010165148194559452 -7.88964730720486e-17 4.3653494207574174e-16 -7.88964730720486e-17 -0.0001794417317768344" pbc="T T T"
Si       3.24023865       1.40370875       9.32968510
Si       3.14347400       7.08527992       9.32968510
Si       3.24023865       2.84078559       1.07904659
Si       3.14347400       5.64820308       1.07904659
Si       4.36534321       4.28056246      16.81509092
Si       2.01836944       4.20842621      16.81509092
Si       4.36534321      -0.03606813       8.56445241
Si       2.01836944       8.52505680       8.56445241
Si       3.41727792       2.30474698      11.12341500
Si       2.96643473       6.18424169      11.12341500
Si       3.41727792       1.93974735       2.87277650
Si       2.96643473       6.54924131       2.87277650
Si       3.47656146       5.16687695       9.53286810
Si       2.90715119       3.32211172       9.53286810
Si       3.47656146       7.56660606       1.28222959
Si       2.90715119       0.92238261       1.28222959
Si       2.21445109      -0.08964315       2.82328926
Si       4.16926156       8.57863181       2.82328926
Si       2.21445109       4.33413748      11.07392777
Si       4.16926156       4.15485119      11.07392777
Si       3.19185633       4.24449433       2.41385247
Si       3.19185633      -0.00000000      10.66449098
22
Lattice="6.386321996924494 1.590116524158359e-44 -8.181733683923133e-31 -1.907097632287682e-44 8.495475582082294 7.296657635690475e-15 1.1174469424025527e-30 -1.8075335978923843e-14 16.534141296256536" Properties=species:S:1:pos:R:3 unique_starting_index=32 config_type=initial n_minim_iter=15 stress="-0.00048670671093203937 -1.016092473688835e-15 4.191497481578391e-16 -1.016092473688835e-15 -0.00015146311191253348 -8.771300704472095e-17 4.191497481578391e-16 -8.771300704472095e-17 -0.00018401117746641755" pbc="T T T"
Si       3.24455787       1.41054398       9.34607880
Si       3.14176413       7.08493160       9.34607880
Si       3.24455787       2.83719381       1.07900815
Si       3.14176413       5.65828177       1.07900815
Si       4.36264697       4.28669058      16.85281475
Si       2.02367502       4.20878500      16.85281475
Si       4.36264697      -0.03895279       8.58574410
Si       2.02367502       8.53442837       8.58574410
Si       3.42119624       2.30786147      11.14083724
Si       2.96512576       6.18761411      11.14083724
Si       3.42119624       1.93987632       2.87376659
Si       2.96512576       6.55559926       2.87376659
Si       3.48591131       5.16818181       9.55394356
Si       2.90041068       3.32729377       9.55394356
Si       3.48591131       7.57503156       1.28687291
Si       2.90041068       0.92044402       1.28687291
Si       2.21506650      -0.08715335       2.83556289
Si       4.17125549       8.58262894       2.83556289
Si       2.21506650       4.33489114      11.10263354
Si       4.17125549       4.16058444      11.10263354
Si       3.19316100       4.24773779       2.40654798
Si       3.19316100      -0.00000000      10.67361863
22
Lattice="6.398568850896908 1.632058777983363e-44 -9.286770876995396e-31 -1.8639545147131683e-44 8.500964635928762 7.752889062148312e-15 8.449832953052601e-31 -1.7231382862634243e-14 16.56485685234672" Properties=species:S:1:pos:R:3 unique_starting_index=32 config_type=initial n_minim_iter=16 stress="0.00015700717146194975 -9.348492192617735e-16 1.9156238151469455e-16 -9.348492192617735e-16 -0.00014972134705481198 6.427011371648096e-16 1.9156238151469455e-16 6.427011371648096e-16 -0.00020663094227268294" pbc="T T T"
Si       3.25327643       1.41633007       9.36368060
Si       3.14529242       7.08463457       9.36368060
Si       3.25327643       2.83415225       1.08125217
Si       3.14529242       5.66681239       1.08125217
Si       4.36541445       4.29189455      16.88740603
Si       2.03315440       4.20907009      16.88740603
Si       4.36541445      -0.04141223       8.60497761
Si       2.03315440       8.54237687       8.60497761
Si       3.42720343       2.31118668      11.15684945
Si       2.97136542       6.18977796      11.15684945
Si       3.42720343       1.93929564       2.87442102
Si       2.97136542       6.56166900       2.87442102
Si       3.50096884       5.16851833       9.57233126
Si       2.89760001       3.33244631       9.57233126
Si       3.50096884       7.58292862       1.28990283
Si       2.89760001       0.91803601       1.28990283
Si       2.21994407      -0.08499288       2.84520545
Si       4.17862478       8.58595752       2.84520545
Si       2.21994407       4.33547520      11.12763388
Si       4.17862478       4.16548944      11.12763388
Si       3.19928443       4.25048232       2.40331203
Si       3.19928443      -0.00000000      10.68574045
22
Lattice="6.422518752897387 1.651991675115314e-44 -9.961690968905859e-31 -1.8636581161584798e-44 8.507646893624864 7.153243709185518e-15 6.845366445302916e-31 -1.844650839516382e-14 16.611789741981195" Properties=species:S:1:pos:R:3 unique_starting_index=32 config_type=initial n_minim_iter=17 stress="0.0005116856647553575 -5.3482141045343e-16 4.03829917198434e-17 -5.3482141045343e-16 -0.0002389987222797595 3.430127112112661e-16 4.03829917198434e-17 3.430127112112661e-16 0.00036437273074644313" pbc="T T T"
Si       3.26754453       1.41982428       9.39156824
Si       3.15497422       7.08782261       9.39156824
Si       3.26754453       2.83399917       1.08567337
Si       3.15497422       5.67364773       1.08567337
Si       4.37595171       4.29637432      16.93791203
Si       2.04656704       4.21127257      16.93791203
Si       4.37595171      -0.04255088       8.63201716
Si       2.04656704       8.55019777       8.63201716
Si       3.43183033       2.31566814      11.18523400
Si       2.99068842       6.19197875      11.18523400
Si       3.43183033       1.93815530       2.87933913
Si       2.99068842       6.56949159       2.87933913
Si       3.51586065       5.17013384       9.60045159
Si       2.90665810       3.33751305       9.60045159
Si       3.51586065       7.59133650       1.29455672
Si       2.90665810       0.91631039       1.29455672
Si       2.23271984      -0.08709046       2.85354763
Si       4.18979891       8.59473735       2.85354763
Si       2.23271984       4.34091391      11.15944250
Si       4.18979891       4.16673299      11.15944250
Si       3.21125938       4.25382345       2.40597898
Si       3.21125938      -0.00000000      10.71187385
22
Lattice="6.426851483730162 1.6701062612851057e-44 -1.0554253085086925e-30 -1.8480135780418922e-44 8.513407938674531 7.227384839209582e-15 5.3632576233457646e-31 -1.8319457217161512e-14 16.61641870500522" Properties=species:S:1:pos:R:3 unique_starting_index=32 config_type=initial n_minim_iter=18 stress="0.000246650918863198 -5.908562583738634e-16 1.496612357585691e-16 -5.908562583738634e-16 0.0007729536757758106 3.214769099277346e-16 1.496612357585691e-16 3.214769099277346e-16 0.00013595028551669576" pbc="T T T"
Si       3.26963021       1.41871151       9.39827173
Si       3.15722127       7.09469643       9.39827173
Si       3.26963021       2.83799246       1.09006237
Si       3.15722127       5.67541548       1.09006237
Si       4.37551041       4.29876188      16.94270392
Si       2.05134108       4.21464605      16.94270392
Si       4.37551041      -0.04205792       8.63449457
Si       2.05134108       8.55546585       8.63449457
Si       3.41996276       2.31577071      11.19299674
Si       3.00688873       6.19763723      11.19299674