18
Lattice="7.745440431483805 -0.8138923134566227 0.5368529372188298 -4.459684328380558 6.384785342262079 -0.5368529372189803 -2.0944349764217867 -2.5191147226917434 8.703426942045246" Properties=species:S:1:pos:R:3 unique_starting_index=64 config_type=initial n_minim_iter=14 energy=-2932.264473678898 free_energy=-2932.264473678898 pbc="T T T"
Si       0.25288277       3.07401850       5.20632228
Si       2.35200445      -0.85597248       1.12303528
Si      -1.40143498       0.31470012       3.26620326
Si       1.87204627      -0.59227032       7.88634320
Si       6.88132817      -3.31749182       6.58306121
Si       6.69293400       2.82014383       1.96292127
Si      -3.28528982       3.58878265       4.28031484
Si       0.18966394       1.99147039       0.19702783
Si      -2.52369849       2.22638424       2.51775404
Si      -0.34397107      -0.53501040       7.13789398
Si      -2.73451109       2.10887953       6.16205866
Si       1.75130511       2.22545180       2.07877166
Si       0.57861764       3.92553805       3.08767245
Si      -4.78974082       2.31264399       7.17095946
Si       3.68255046       1.09537245       1.32129910
Si      -0.81112843       0.96546925       5.40458610
Si      -1.70861199       4.19945281       5.89860361
Si       0.41805173       0.31615847       1.81531661
