24
Lattice="8.446079865303792 -3.1863805318459764 -1.3964618891915743 0.18429863701362809 9.76116924837613 2.6825045012062803 0.7401926928519986 6.307958576058607 11.293545594384376" Properties=species:S:1:pos:R:3 unique_starting_index=94 config_type=initial n_minim_iter=1 energy=-3925.040958820559 free_energy=-3925.040958820559 pbc="T T T"
Si       9.28141617       8.70809257       8.81618744
Si      -1.37086073       4.30381857       5.97759039
Si       1.57373820       8.88511430       1.43446453
Si       5.58644063      12.57495973       9.48095240
Si       4.60086465       1.06057157       1.98345712
Si       4.02095575       8.00579767      11.89799141
Si       5.80423197       1.80523670       3.23680004
Si       3.02088225      -0.01050427       1.52703791
Si       7.46742122       2.78426074       5.89089032
Si       8.78033583      10.99294231       8.46353366
Si       3.34341481      10.16222099      11.61273882
Si       5.84031904       2.97049684       4.79377390
Si       1.49337228       8.37460295       3.48028628
Si       2.45649337       8.60904130      10.93539370
Si       6.34034875       4.37503743       6.11806004
Si       5.23784665       6.46784311      11.55358296
Si       3.71788373       5.24320741      11.14234693
Si       2.47385254       7.16519569       1.55929466
Si       8.74485728       4.24623307       3.21650492
Si       3.80826863       6.98171553      10.21457559
Si       7.39688423       4.67855315       4.51659181
Si       1.63095340       0.44645583       0.21093965
Si       2.67240489      12.02128226      11.40902293
Si       7.58436207       2.84843295       3.81415248
24
Lattice="8.464610768371623 -3.183498399502911 -1.3974656399461218 0.19175611492630285 9.772892747826836 2.680195299463386 0.7454984338076163 6.3095596273380945 11.307258999536991" Properties=species:S:1:pos:R:3 unique_starting_index=94 config_type=initial n_minim_iter=2 stress="0.00221035937309535 0.001508755335210282 0.0008445676200770655 0.001508755335210282 0.004227829795290239 0.0018390134970247287 0.0008445676200770655 0.0018390134970247287 0.003810428775933495" pbc="T T T"
Si       9.30983091       8.72117180       8.82339074
Si      -1.37198125       4.30493290       5.98453383
Si       1.58405041       8.89766368       1.43080490
Si       5.60836244      12.58981499       9.48711069
Si       4.61229242       1.06404708       1.98515153
Si       4.03580099       8.01182718      11.91121599
Si       5.81998568       1.81019609       3.24067558
Si       3.02795599      -0.00957942       1.52910854
Si       7.48723084       2.78956030       5.89770120
Si       8.80921186      11.00880943       8.46844147
Si       3.35812119      10.17092162      11.62418980
Si       5.85626102       2.97549117       4.79863374
Si       1.50304298       8.38484522       3.48004950
Si       2.46755766       8.61560287      10.94652068
Si       6.35852918       4.38191264       6.12410401
Si       5.25455793       6.47292116      11.56693674
Si       3.72953830       5.24551973      11.15645908
Si       2.48518606       7.17575519       1.55659115
Si       8.76935362       4.25636256       3.21766879
Si       3.82185056       6.98749285      10.22554941
Si       7.41816596       4.68735149       4.52003050
Si       1.63493242       0.44778299       0.21093165
Si       2.68683656      12.03212142      11.41880895
Si       7.60483684       2.85534615       3.81753003
24
Lattice="8.476083551451643 -3.1782239475740193 -1.3958690331569028 0.18818208727280925 9.754588961125322 2.658894442790445 0.737417004111814 6.279012854317707 11.285262549749758" Properties=species:S:1:pos:R:3 unique_starting_index=94 config_type=initial n_minim_iter=3 stress="0.002807216936281393 0.0009540402291700621 -0.0024184406360340024 0.0009540402291700621 0.0012926888584662293 -0.0028530529830406185 -0.0024184406360340024 -0.0028530529830406185 0.0004205963371272724" pbc="T T T"
Si       9.31316144       8.69102726       8.79293235
Si      -1.37969224       4.28917137       5.97273250
Si       1.58320428       8.88319579       1.41232818
Si       5.60531611      12.55279906       9.45136598
Si       4.61532914       1.05815913       1.97839223
Si       4.03164922       7.97709121      11.88325638
Si       5.82509116       1.80088714       3.23161221
Si       3.02995126      -0.01400230       1.52518206
Si       7.49127607       2.77239960       5.88256541
Si       8.81136317      10.97564231       8.43308372
Si       3.35259816      10.13411629      11.59300542
Si       5.85917005       2.96020807       4.78440330
Si       1.50058777       8.36606793       3.46056085
Si       2.46079100       8.58336717      10.91838112
Si       6.36092958       4.36361140       6.10571668
Si       5.25207688       6.44109030      11.54082252
Si       3.72408895       5.21576198      11.13565457
Si       2.48581171       7.16246609       1.53931842
Si       8.77765505       4.24276972       3.19965494
Si       3.81823650       6.95825556      10.20062599
Si       7.42323500       4.67020753       4.50292233
Si       1.63566337       0.44494383       0.20921864
Si       2.68024928      11.99350383      11.38404289
Si       7.61108510       2.84243489       3.80387082
24
Lattice="8.479425064948249 -3.1780742379872065 -1.3857058710754546 0.18756698167661984 9.742940871845896 2.660742047020969 0.7494324694483765 6.272646368743451 11.28782170691251" Properties=species:S:1:pos:R:3 unique_starting_index=94 config_type=initial n_minim_iter=4 stress="0.0036219231054991 -0.0005598326008182106 0.004686634993866179 -0.0005598326008182106 -0.0016685141751567316 0.000299591486475518 0.004686634993866179 0.000299591486475518 0.00020434440118161134" pbc="T T T"
Si       9.32525791       8.67874186       8.80652687
Si      -1.37673498       4.28786364       5.97297608
Si       1.58203974       8.87264428       1.41746181
Si       5.61350903      12.53533559       9.46133524
Si       4.61770504       1.05573430       1.98447621
Si       4.04649810       7.96732382      11.89053302
Si       5.83288436       1.79766920       3.24120894
Si       3.03248876      -0.01634764       1.52803983
Si       7.50062786       2.76588523       5.89312273
Si       8.82117734      10.95923508       8.44431980
Si       3.36568791      10.12236219      11.60022773
Si       5.86665942       2.95349958       4.79173966
Si       1.50179388       8.35453696       3.46530204
Si       2.47132030       8.57473007      10.92200733
Si       6.36975959       4.35788653       6.11377150
Si       5.26726330       6.43315450      11.54803781
Si       3.73547412       5.20892166      11.14361619
Si       2.48626767       7.15240584       1.54282101
Si       8.78579151       4.23450957       3.20944272
Si       3.83017948       6.95064856      10.20644306
Si       7.43122762       4.66102612       4.51462810
Si       1.63497106       0.44143715       0.21208957
Si       2.69174307      11.97963311      11.38937841
Si       7.61925535       2.83605816       3.81431006
24
Lattice="8.455951531477272 -3.1810704497038493 -1.4117002809211194 0.1846246544088852 9.760169976759732 2.677608368918139 0.7235350806908031 6.296906803447875 11.312032592874807" Properties=species:S:1:pos:R:3 unique_starting_index=94 config_type=initial n_minim_iter=5 stress="-0.0012872054816382185 0.0005573885139019077 -0.000636783907933471 0.0005573885139019077 0.0023125736385564066 0.002240007940516781 -0.000636783907933471 0.002240007940516781 -0.0002902297695690747" pbc="T T T"
Si       9.28131918       8.70869774       8.81037931
Si      -1.38989505       4.30689410       5.99384701
Si       1.57751506       8.88901187       1.43160732
Si       5.57733018      12.56529685       9.48089912
Si       4.59736224       1.06409755       1.98030475
Si       4.01209998       7.99634185      11.91070867
Si       5.81081116       1.80733827       3.23640387
Si       3.01822978      -0.01575515       1.52116095
Si       7.46445125       2.77883824       5.88926765
Si       8.77891057      10.98805369       8.44692406
Si       3.33557011      10.15469107      11.62605410
Si       5.83967348       2.96373826       4.78863177
Si       1.49326829       8.36965339       3.48031544
Si       2.44074216       8.60431252      10.94191758
Si       6.33824747       4.37781421       6.11230404
Si       5.22910392       6.46068724      11.55967400
Si       3.69567353       5.23165515      11.16288913
Si       2.47884117       7.16422885       1.54716232
Si       8.75567709       4.24673019       3.19714039
Si       3.79798065       6.97759449      10.22162537
Si       7.40289462       4.67445561       4.51366490
Si       1.62685887       0.43899626       0.21093488
Si       2.66397411      12.01341260      11.41560366
Si       7.59162389       2.84769259       3.80648225
24
Lattice="8.449038941412509 -3.1787143281790375 -1.40696977286168 0.18067128409450933 9.73779669427862 2.680104091241298 0.7285151848522419 6.275963197545002 11.344705721426228" Properties=species:S:1:pos:R:3 unique_starting_index=94 config_type=initial n_minim_iter=6 stress="-0.0008840434833097815 -0.0008882770976373909 0.0005598724314690688 -0.0008882770976373909 -0.0007479158644791176 0.00080601778410859 0.0005598724314690688 0.00080601778410859 0.0021213297775857184" pbc="T T T"
Si       9.27624989       8.68230613       8.84078203
Si      -1.39328108       4.30150729       6.01315978
Si       1.57029216       8.86990309       1.43494799
Si       5.57001294      12.52692827       9.50836836
Si       4.59236752       1.06163791       1.99357761
Si       4.01558788       7.96945069      11.94709146
Si       5.80736348       1.79740339       3.24870359
Si       3.01656065      -0.02142021       1.52616950
Si       7.45941297       2.76280313       5.91378111
Si       8.77143923      10.95226727       8.46810689
Si       3.33969709      10.12484218      11.66197406
Si       5.83717986       2.94827663       4.80652436
Si       1.49264510       8.34806553       3.48777555
Si       2.44160362       8.57905836      10.97046804
Si       6.33455910       4.36337531       6.13142547
Si       5.23178278       6.43769819      11.59432973
Si       3.69488025       5.21011119      11.20255564
Si       2.47457124       7.14532115       1.54705381
Si       8.74561062       4.22548323       3.21303638
Si       3.79740872       6.95602651      10.25341865
Si       7.40183375       4.65385134       4.53422124
Si       1.62221022       0.43508582       0.21286654
Si       2.66655530      11.98007724      11.44472501
Si       7.59068414       2.83491324       3.82323061
24
Lattice="8.445697684440841 -3.155821183537086 -1.389606179931317 0.2116935318549669 9.743552077517137 2.6616657466775475 0.7604222887194841 6.269595023756726 11.310153407194868" Properties=species:S:1:pos:R:3 unique_starting_index=94 config_type=initial n_minim_iter=7 stress="-0.0031729225626724185 0.0006758449615410047 0.002532069888308477 0.0006758449615410047 0.003524720640672994 -0.0035158267965709976 0.002532069888308477 -0.0035158267965709976 -0.005140158912678263" pbc="T T T"
Si       9.32284848       8.71384899       8.81916155
Si      -1.39308121       4.30775732       6.00325944
Si       1.59288960       8.88197296       1.42676800
Si       5.61736004      12.53821010       9.47525232
Si       4.59491872       1.08058769       1.99798457
Si       4.05736114       7.97293311      11.91102949
Si       5.82060496       1.81054919       3.23939728
Si       3.02334490      -0.01919251       1.52067302
Si       7.47617864       2.77623954       5.90747817
Si       8.82243410      10.97135469       8.42957071
Si       3.39370375      10.12988606      11.63049839
Si       5.85825105       2.95680551       4.79882544
Si       1.52170531       8.34789009       3.47714553
Si       2.48300594       8.58032897      10.93195474
Si       6.35747145       4.38044738       6.11122011
Si       5.27050600       6.44772459      11.56127172
Si       3.72539309       5.20975750      11.17867661
Si       2.50140183       7.15484246       1.53158918
Si       8.76964479       4.24522938       3.20929939
Si       3.82684147       6.96363035      10.23030574
Si       7.43964661       4.66628896       4.53287814
Si       1.62057043       0.44382464       0.21182803
Si       2.72340600      11.98651407      11.40028182
Si       7.61692521       2.84980105       3.82110742
24
Lattice="8.494390515751629 -3.118168656209432 -1.4430036171095897 0.2165102353436287 9.665323581916685 2.70225415762859 0.7236936783045711 6.252624694803949 11.362682502514094" Properties=species:S:1:pos:R:3 unique_starting_index=94 config_type=initial n_minim_iter=8 stress="0.002033236294458147 0.002517458087183108 -0.003747646286082737 0.002517458087183108 -0.012022415624271659 0.0006332743921202637 -0.003747646286082737 0.0006332743921202637 -0.0021098580766340286" pbc="T T T"
Si       9.35482222       8.69398957       8.83318992
Si      -1.44968132       4.30714550       6.06224171
Si       1.60119381       8.81055179       1.46098345
Si       5.62073400      12.46223176       9.51871276
Si       4.59887872       1.09415815       1.99067211
Si       4.03971417       7.94815584      11.95443879
Si       5.84237697       1.81538350       3.22136609
Si       3.03794632      -0.01274839       1.50426381
Si       7.48917420       2.77934422       5.90601053
Si       8.85555707      10.90828308       8.42996611
Si       3.38844281      10.08239741      11.69284721
Si       5.87687877       2.94954857       4.79858461
Si       1.52814680       8.27823104       3.51832131
Si       2.46702478       8.54565594      10.97928719
Si       6.36725917       4.37442174       6.10581346
Si       5.26132194       6.44289246      11.59093965
Si       3.70448771       5.20396688      11.21774071
Si       2.52405635       7.09860228       1.54113950
Si       8.81286791       4.22466143       3.19207312
Si       3.80432825       6.94536927      10.27739098
Si       7.48832392       4.64189727       4.53976304
Si       1.62235123       0.44971310       0.20579994
Si       2.71742546      11.92556415      11.45601803
Si       7.65742290       2.84149408       3.81078717
24
Lattice="8.520353618303686 -3.1819230805320617 -1.4622415260836086 0.1469168788052397 9.690017639262853 2.704160996742692 0.6594166089821116 6.260188475119746 11.386468635111084" Properties=species:S:1:pos:R:3 unique_starting_index=94 config_type=initial n_minim_iter=9 stress="0.002108071397037207 -0.008941617367269963 -0.0038976432212322987 -0.008941617367269963 -0.004644692548557723 -0.0007586381031462446 -0.0038976432212322987 -0.0007586381031462446 -0.002373038621073609" pbc="T T T"
Si       9.28735777       8.66681860       8.83179217
Si      -1.52052648       4.34113986       6.10124794
Si       1.53279215       8.82425820       1.46456740
Si       5.51669014      12.45355491       9.52028350
Si       4.57139838       1.07269001       1.98560202
Si       3.96318159       7.94076008      11.97206463
Si       5.82630564       1.78424603       3.20955204
Si       3.04169764      -0.03506063       1.49610497
Si       7.45564319       2.73128429       5.91071633
Si       8.77309792      10.87034837       8.40505565
Si       3.30880947      10.07816464      11.71623151
Si       5.85168547       2.91118351       4.79691572
Si       1.47077022       8.28524462       3.52505642
Si       2.39673650       8.55502097      10.99454302
Si       6.32026500       4.34267385       6.09642492
Si       5.19863949       6.42521332      11.60524119
Si       3.64641148       5.18416209      11.23582267
Si       2.47896695       7.10185633       1.52969077
Si       8.78268827       4.17062908       3.17944290
Si       3.72811614       6.93768816      10.30050973
Si       7.47067486       4.59506099       4.54530793
Si       1.61307598       0.44360585       0.20439671
Si       2.62701632      11.94000266      11.46533186
Si       7.64130167       2.78727864       3.80654325
24
Lattice="8.477680250576855 -3.1569116250887697 -1.4583289153145045 0.17141440902406568 9.681591720758897 2.694840496908902 0.6744733877016786 6.243688054669598 11.393182327862398" Properties=species:S:1:pos:R:3 unique_starting_index=94 config_type=initial n_minim_iter=10 stress="-0.00272440628998507 -0.0013802130705036538 -0.0043238636793199205 -0.0013802130705036538 -0.005577281228070093 -0.004570817347350448 -0.0043238636793199205 -0.004570817347350448 -0.0035296497569663947" pbc="T T T"
Si       9.27887973       8.68750224       8.83296631
Si      -1.53230411       4.33876749       6.12764584
Si       1.54356966       8.81936931       1.46268458
Si       5.52517728      12.44640401       9.51110888
Si       4.53840725       1.08654586       1.98584514
Si       3.96855965       7.93382088      11.97865303
Si       5.80907212       1.79883418       3.20633127
Si       3.03454761      -0.03038107       1.49270010
Si       7.42974919       2.73691134       5.92376073
Si       8.77050746      10.87055110       8.38054578
Si       3.33241032      10.06025768      11.72420207
Si       5.83845557       2.91247897       4.79834072
Si       1.49417531       8.27911230       3.52016773
Si       2.41877393       8.54927111      10.99521461
Si       6.29965165       4.34689359       6.09002961
Si       5.19650866       6.42391211      11.61336797
Si       3.64268498       5.17142926      11.24245942
Si       2.49122217       7.10444578       1.51646975
Si       8.75998394       4.18068257       3.18014765
Si       3.72202970       6.93092318      10.31327944
Si       7.47344430       4.59623243       4.55785963
Si       1.60245494       0.44769590       0.20788520
Si       2.65979495      11.92915238      11.45658721
Si       7.62423545       2.78853820       3.81315878
24
Lattice="8.485622469782585 -3.148609357341163 -1.4545058930383266 0.18386939609452377 9.679769275062414 2.707904917699016 0.6931172685088085 6.253076128150253 11.4118932729182" Properties=species:S:1:pos:R:3 unique_starting_index=94 config_type=initial n_minim_iter=11 stress="0.00024869623786301305 -0.00045820867604826244 -0.003311841574103634 -0.00045820867604826244 -0.002704615596193981 -0.004418366832604336 -0.003311841574103634 -0.004418366832604336 9.290113056157201e-05" pbc="T T T"
Si       9.31548350       8.71482741       8.85963333
Si      -1.55468159       4.34618124       6.16291243
Si       1.55094738       8.81380587       1.48238088
Si       5.55462200      12.45460309       9.53119786
Si       4.54003071       1.10165390       1.99874510
Si       3.99399371       7.95123990      12.00640219
Si       5.81706353       1.81047789       3.20550697
Si       3.04144251      -0.02752934       1.49173981
Si       7.44935014       2.74564102       5.95044114
Si       8.80587508      10.88017236       8.38751626
Si       3.36833142      10.06601842      11.75516325
Si       5.85401169       2.91822436       4.80731100
Si       1.51383439       8.28151892       3.53534497
Si       2.44737702       8.56527871      11.01377706
Si       6.31191552       4.35411271       6.09776711
Si       5.22258987       6.44085672      11.63779738
Si       3.66125158       5.18083418      11.25744020
Si       2.50676779       7.10902083       1.52298647
Si       8.78632056       4.18861133       3.19390324
Si       3.73596888       6.94050716      10.33930367
Si       7.51349992       4.59631500       4.58687826
Si       1.59985762       0.44637827       0.21798382
Si       2.69831147      11.94146403      11.47469495
Si       7.64673050       2.78642196       3.83181138
24
Lattice="8.51374158852766 -3.16074323872093 -1.4548511523472016 0.18513522499348664 9.712683136470968 2.722226768578144 0.6963861612112479 6.308599798683156 11.347670569765048" Properties=species:S:1:pos:R:3 unique_starting_index=94 config_type=initial n_minim_iter=12 stress="0.0030752316317777403 0.0012030126934485233 -0.0017966778521198161 0.0012030126934485233 0.000994358114348747 -0.0013139621429964325 -0.0017966778521198161 -0.0013139621429964325 -0.003254638036315777" pbc="T T T"
Si       9.35319869       8.78097698       8.82269634
Si      -1.59019683       4.37386065       6.15742014
Si       1.55105646       8.83631530       1.50904125
Si       5.57629174      12.51712214       9.49294247
Si       4.54811390       1.11811604       1.99040495
Si       4.00737108       8.01942214      11.94715931
Si       5.83624994       1.83476980       3.18416572
Si       3.04799096      -0.02545543       1.47472772
Si       7.47607280       2.77284121       5.92585098
Si       8.83690011      10.93911198       8.34173284
Si       3.39012507      10.13045958      11.70707343
Si       5.87213891       2.94340238       4.77320356
Si       1.52333762       8.31676785       3.53917906
Si       2.45817640       8.62652882      10.95617828
Si       6.32688122       4.38253304       6.05786677
Si       5.23909703       6.49982380      11.57263936
Si       3.67678242       5.23418125      11.18333435
Si       2.51884425       7.13507430       1.53327370
Si       8.81624906       4.20252257       3.18668487
Si       3.74398816       6.99192317      10.28880900
Si       7.55897224       4.61210747       4.57989348
Si       1.60059514       0.44690327       0.22835240
Si       2.71981731      12.01452186      11.42109021
Si       7.68101352       2.80073886       3.81501853
24
Lattice="8.461539636829688 -3.161020105711107 -1.4490840880413927 0.18172538123057347 9.70243648691657 2.722730205192609 0.700914843596054 6.284357528018392 11.412656286972364" Properties=species:S:1:pos:R:3 unique_starting_index=94 config_type=initial n_minim_iter=13 stress="0.00042608034733335605 0.0012035938328534032 -5.774643879963021e-05 0.0012035938328534032 0.00244436579441358 -0.001595112398248455 -5.774643879963021e-05 -0.001595112398248455 0.0018760123726900436" pbc="T T T"
Si       9.30645068       8.76857950       8.87473565
Si      -1.60532645       4.35316617       6.21535689
Si       1.53279919       8.82469352       1.50939447
Si       5.54914666      12.48560566       9.52734135
Si       4.51848379       1.11575230       2.01195098
Si       3.98910442       7.99813892      12.01850300
Si       5.80359721       1.83428051       3.20590725
Si       3.02638858      -0.03395589       1.48726310
Si       7.43466063       2.75717635       5.97867795
Si       8.78155089      10.92143337       8.36566453
Si       3.38386366      10.09989703      11.77362571
Si       5.84055677       2.93596017       4.79816137
Si       1.51342861       8.30402194       3.55311713
Si       2.44985724       8.60048198      11.01252601
Si       6.28671437       4.36158984       6.08950069
Si       5.21151365       6.47494665      11.64375969
Si       3.66887246       5.20942136      11.24434007
Si       2.50416958       7.13018102       1.53058949
Si       8.76791490       4.18208575       3.20813106
Si       3.72406400       6.96686671      10.34994972
Si       7.53486691       4.58267273       4.62264936
Si       1.58568329       0.44942123       0.23829259
Si       2.72059318      11.98917621      11.46757026
Si       7.64136875       2.77798647       3.85105998
24
Lattice="8.46049445404039 -3.190410874797225 -1.455065405538855 0.15307257567887267 9.707620153354519 2.754671492478876 0.6868288753734177 6.316215360900776 11.436457352819332" Properties=species:S:1:pos:R:3 unique_starting_index=94 config_type=initial n_minim_iter=14 stress="0.0012070730425784992 -0.0015112196431158118 0.0017298392844965012 -0.0015112196431158118 0.004583720200985976 0.002175460350132644 0.0017298392844965012 0.002175460350132644 0.002350572480656146" pbc="T T T"
Si       9.28613684       8.79446769       8.90652272
Si      -1.67684994       4.37142748       6.27974432
Si       1.49098891       8.82075022       1.55346928
Si       5.51733527      12.47717807       9.54513494
Si       4.50475603       1.11584798       2.02999909
Si       3.96383098       8.02468402      12.05601203
Si       5.79495750       1.84194029       3.20862955
Si       3.01630816      -0.04434342       1.48782974
Si       7.41459352       2.75473551       6.00723608
Si       8.73609820      10.93678645       8.36333518
Si       3.36832495      10.11879885      11.81506989
Si       5.83349496       2.94898467       4.79713395
Si       1.49936903       8.31351749       3.57862463
Si       2.42182979       8.62419906      11.03643827
Si       6.25963644       4.36105840       6.09412576
Si       5.18372277       6.50119514      11.67054621
Si       3.66220490       5.23550372      11.25885995
Si       2.48638479       7.12593967       1.54872452
Si       8.75672344       4.14345249       3.22282129
Si       3.69343576       6.98994148      10.38105605
Si       7.55623055       4.54376556       4.67437301
Si       1.57143731       0.45184877       0.24772158
Si       2.71256536      12.02037646      11.48607854
Si       7.62712575       2.72273320       3.89124691
24
Lattice="8.450799372061153 -3.182144407278981 -1.463382124077315 0.15918509145055315 9.69262456589729 2.785330747437183 0.6923859279577043 6.3357074605446195 11.4606492033425" Properties=species:S:1:pos:R:3 unique_starting_index=94 config_type=initial n_minim_iter=15 stress="0.004189407827455706 8.980523795189186e-05 0.001352389165312868 8.980523795189186e-05 0.005556712721981627 0.00447209596592188 0.001352389165312868 0.00447209596592188 0.0044836006218511" pbc="T T T"
Si       9.30398771       8.84746327       8.93195956
Si      -1.76668354       4.37948391       6.36962659
Si       1.48386047       8.80113008       1.60747186
Si       5.53339421      12.44115496       9.54656323
Si       4.48631329       1.13003912       2.04797619
Si       3.96038744       8.04321182      12.09541074
Si       5.79306594       1.86656224       3.20211134
Si       3.00462294      -0.04182456       1.48687251
Si       7.39829241       2.77147283       6.03651044
Si       8.73046569      10.96514319       8.33988028
Si       3.38800610      10.12092326      11.85183235
Si       5.83168675       2.98382916       4.79125393
Si       1.50608023       8.29778621       3.61510817
Si       2.42753929       8.64527852      11.06091822
Si       6.24370196       4.39307258       6.10130926
Si       5.18365657       6.53710819      11.69662335
Si       3.66624281       5.25838522      11.27155763
Si       2.49631693       7.11968196       1.56486675
Si       8.76251800       4.11187662       3.23342536
Si       3.67843842       7.02296947      10.40936153
Si       7.62797446       4.50114414       4.72528987
Si       1.55643675       0.45858363       0.25471288
Si       2.75844069      12.03935555      11.49122818
Si       7.64462676       2.68647271       3.93525833
24
Lattice="8.398191001828318 -3.161240355286427 -1.443912503079444 0.17602601068683948 9.65994646600276 2.7851767337003954 0.7231654231576861 6.308352099349011 11.485231363469707" Properties=species:S:1:pos:R:3 unique_starting_index=94 config_type=initial n_minim_iter=16 stress="0.006098900155799761 0.0020495164223826466 0.0014316940763064558 0.0020495164223826466 0.0072225752111006415 0.003312224318918409 0.0014316940763064558 0.003312224318918409 0.0064667931082096515" pbc="T T T"
Si       9.30630451       8.86756816       8.95772372
Si      -1.82650587       4.36362410       6.45785768
Si       1.47775280       8.76696255       1.62741389
Si       5.56989553      12.34096498       9.50982674
Si       4.45901570       1.12805103       2.07753026
Si       3.95724515       8.01513253      12.13571949
Si       5.77388947       1.88020776       3.21651800
Si       2.97620404      -0.04526808       1.49843010
Si       7.35389166       2.77498408       6.07558503
Si       8.69594435      10.96969534       8.31385585
Si       3.41479003      10.07586901      11.87123451
Si       5.80849328       3.02343479       4.79203658
Si       1.51611031       8.26410392       3.63046350
Si       2.44791426       8.61696493      11.08546254
Si       6.22661776       4.41738754       6.12192169
Si       5.18902056       6.52568933      11.73121751
Si       3.68955954       5.25013861      11.30537160
Si       2.49959087       7.10272957       1.57006778
Si       8.74118007       4.05290288       3.24713519
Si       3.67986321       7.02104312      10.43258483
Si       7.67534562       4.43020854       4.80524173
Si       1.53770705       0.46205803       0.26646534
Si       2.82741724      12.01173304      11.47301757
Si       7.64038148       2.62630422       4.00251210
24
Lattice="8.346855898275075 -3.1481510500436514 -1.4268875394828036 0.18109020489165056 9.629392615945907 2.7681002247267923 0.7367815068325138 6.267063747068484 11.492193102131434" Properties=species:S:1:pos:R:3 unique_starting_index=94 config_type=initial n_minim_iter=17 stress="0.002136133658548949 0.0024751850211559624 0.0026116532283267423 0.0024751850211559624 0.004627668679903023 -0.0001705769806991599 0.0026116532283267423 -0.0001705769806991599 0.002081629288150453" pbc="T T T"
Si       9.28088341       8.85424080       8.95597633
Si      -1.85423625       4.35721371       6.50160383
Si       1.46995412       8.73799447       1.62090374
Si       5.58726537      12.24025204       9.45303039
Si       4.43273754       1.11511083       2.09251841
Si       3.94426881       7.96583856      12.15710326
Si       5.74298307       1.87385732       3.23183075
Si       2.95466451      -0.04823567       1.51856816
Si       7.29626368       2.76550369       6.09427202
Si       8.63989764      10.94958008       8.28171416
Si       3.41400249      10.02882102      11.86465133
Si       5.77669955       3.03946038       4.78190838
Si       1.51001149       8.22749402       3.62833126
Si       2.43610118       8.57088948      11.08379617
Si       6.19995692       4.42424945       6.13574229
Si       5.17687597       6.49268950      11.74339489
Si       3.69002294       5.22311160      11.31522241
Si       2.49243266       7.08340287       1.56823988
Si       8.70128745       4.00113453       3.25363205