8
Lattice="4.632560343003675 2.57490187933528e-16 1.554908789765084e-16 1.2929571021137407e-17 5.339423257153774 1.9748408627618805 -1.5075176599918097e-16 4.485963974730769 9.75770766068403" Properties=species:S:1:pos:R:3 unique_starting_index=34 config_type=initial n_minim_iter=1 energy=-1300.5696099680022 free_energy=-1300.5696099680022 pbc="T T T"
Si       1.12341277       5.05608255       6.99946753
Si       1.12341277       4.76930468       4.73308099
Si       1.16437324       8.94869096      10.87525875
Si       1.16437324       0.87669627       0.85728978
Si       3.50914757       4.34257504       8.62451439
Si       3.50914757       5.48281219       3.10803413
Si       3.46818711       5.78938988       6.72356404
Si       3.46818711       4.03599735       5.00898448
8
Lattice="4.598384854460742 2.585127528502282e-16 1.5297122876041094e-16 1.2586825731948557e-17 5.3431497752603905 1.9791521810624497 -1.5585846274381241e-16 4.460295622281959 9.85687504744283" Properties=species:S:1:pos:R:3 unique_starting_index=34 config_type=initial n_minim_iter=2 stress="-0.0009788774903419389 2.4025817311279996e-17 -1.2116171480760112e-17 2.4025817311279996e-17 0.0017716816182543939 0.0001622671574065466 -1.2116171480760112e-17 0.0001622671574065466 0.0025950130255795686" pbc="T T T"
Si       1.11805207       5.04082826       7.07012830
Si       1.11805207       4.76261714       4.76589893
Si       1.15777313       8.93162066      10.97134735
Si       1.15777313       0.87182473       0.86467988
Si       3.48033279       4.32119006       8.70476037
Si       3.48033279       5.48225534       3.13126686
Si       3.44061172       5.77354743       6.78269350
Si       3.44061172       4.02989797       5.05333373
8
Lattice="4.584779293235855 2.5829623943958534e-16 1.5273581513590082e-16 1.4556204620536123e-17 5.311457559482141 1.961435413516829 -1.5275574412765635e-16 4.40386949745777 9.849906276578698" Properties=species:S:1:pos:R:3 unique_starting_index=34 config_type=initial n_minim_iter=3 stress="-0.0062798639161081495 1.2404453720673171e-17 -3.319404096202485e-17 1.2404453720673171e-17 -0.0038293956314884425 -5.154533848532954e-05 -3.319404096202485e-17 -5.154533848532954e-05 -0.0006515213609839731" pbc="T T T"
Si       1.12059372       4.98879744       7.06896403
Si       1.12059372       4.72652962       4.74237766
Si       1.15818853       8.85865638      10.94762466
Si       1.15818853       0.85667068       0.86371703
Si       3.46418557       4.27273559       8.68661309
Si       3.46418557       5.44259147       3.12472860
Si       3.42659077       5.71433421       6.76938788
Si       3.42659077       4.00099285       5.04195381
8
Lattice="4.623775518088831 2.582068587698773e-16 1.535226321090748e-16 1.5236077797646787e-17 5.316424725892534 1.9432154818245322 -1.5112478162651718e-16 4.366362961891883 9.87257191595364" Properties=species:S:1:pos:R:3 unique_starting_index=34 config_type=initial n_minim_iter=4 stress="0.0044766100346076525 3.2583291121611436e-17 4.6587754203450185e-17 3.2583291121611436e-17 -0.0030876496943776583 -0.0015195325257505706 4.6587754203450185e-17 -0.0015195325257505706 0.004465402039570947" pbc="T T T"
Si       1.13943738       4.96159452       7.09191823
Si       1.13943738       4.72119316       4.72386917
Si       1.17401338       8.83998553      10.94964632
Si       1.17401338       0.84280216       0.86614108
Si       3.48433814       4.24616228       8.68854739
Si       3.48433814       5.43662541       3.12724001
Si       3.44976214       5.68419600       6.77403478
Si       3.44976214       3.99859169       5.04175262
8
Lattice="4.610788764612021 2.6008377782646105e-16 1.544414593436992e-16 1.371292386336233e-17 5.399331324305472 1.9273786718550052 -1.4841976950698897e-16 4.428504654390114 9.81463522417564" Properties=species:S:1:pos:R:3 unique_starting_index=34 config_type=initial n_minim_iter=5 stress="-0.002765509554469221 3.359733100507683e-17 1.8211953733734345e-17 3.359733100507683e-17 0.0007173988855504758 0.0021924218703890078 1.8211953733734345e-17 0.0021924218703890078 0.0015072566646870634" pbc="T T T"
Si       1.14635455       5.02777918       7.06540258
Si       1.14635455       4.80005680       4.67661131
Si       1.17687778       8.98687965      10.87607115
Si       1.17687778       0.84095632       0.86594274
Si       3.46443421       4.31464346       8.62023959
Si       3.46443421       5.51319252       3.12177431
Si       3.43391098       5.75487431       6.73694969
Si       3.43391098       4.07296166       5.00506421
8
Lattice="4.619535892121574 2.6028027905074475e-16 1.5507802551731162e-16 1.5625256442082104e-17 5.391571660020031 1.899212785926003 -1.4316962081945e-16 4.391814392775118 9.757041105425907" Properties=species:S:1:pos:R:3 unique_starting_index=34 config_type=initial n_minim_iter=6 stress="-0.000989839308002752 6.266738019800199e-17 8.16109648713658e-18 6.266738019800199e-17 -3.60053021662901e-05 -0.0012327910144026984 8.16109648713658e-18 -0.0012327910144026984 9.229360137605576e-05" pbc="T T T"
Si       1.14628083       5.00147431       7.01296288
Si       1.14628083       4.78191174       4.64329102
Si       1.17735184       8.94463848      10.79715368
Si       1.17735184       0.83874757       0.85910021
Si       3.47325506       4.28203311       8.57220518
Si       3.47325506       5.50135295       3.08404872
Si       3.44218406       5.73044060       6.68722716
Si       3.44218406       4.05294546       4.96902673
8
Lattice="4.6292255689357145 2.595732712373203e-16 1.5604622211941347e-16 1.5000977911479216e-17 5.390086474040099 1.908825848437212 -1.429704437568219e-16 4.4094548751032105 9.75347067155628" Properties=species:S:1:pos:R:3 unique_starting_index=34 config_type=initial n_minim_iter=7 stress="0.0004910503648394003 3.611103421070255e-18 -2.7821090707778487e-17 3.611103421070255e-18 -0.0003215320160319128 -0.0001340044774057534 -2.7821090707778487e-17 -0.0001340044774057534 -0.000268481455661119" pbc="T T T"
Si       1.14630037       5.01204216       7.01107837
Si       1.14630037       4.78749919       4.65121815
Si       1.17786660       8.95857091      10.80140001
Si       1.17786660       0.84097044       0.86089651
Si       3.48292519       4.29718339       8.57354056
Si       3.48292519       5.50235796       3.08875596
Si       3.45135897       5.74074111       6.69204477
Si       3.45135897       4.05880024       4.97025175
8
Lattice="4.640002728293333 2.5986738362546977e-16 1.5680477715355382e-16 1.4711949217047284e-17 5.4106906497892675 1.9042633819036854 -1.417147910359961e-16 4.423871314104064 9.738752982277829" Properties=species:S:1:pos:R:3 unique_starting_index=34 config_type=initial n_minim_iter=8 stress="0.001394770307314673 6.120247215578577e-17 -5.5379496503596685e-17 6.120247215578577e-17 0.000993636729165147 0.0012243555984204387 -5.5379496503596685e-17 0.0012243555984204387 -0.0012422988520314824" pbc="T T T"
Si       1.14881455       5.02388586       7.00041831
Si       1.14881455       4.81067611       4.64259805
Si       1.17857452       8.99834722      10.77655437
Si       1.17857452       0.83621474       0.86646200
Si       3.49118818       4.31726644       8.55984285
Si       3.49118818       5.51729552       3.08317351
Si       3.46142821       5.75349573       6.68797018
Si       3.46142821       4.08106624       4.95504619
8
Lattice="4.621581666885138 2.5982172225456993e-16 1.5439873996887942e-16 1.5885921148328622e-17 5.374866282389122 1.8947919071340174 -1.4516181468092326e-16 4.336448211326459 9.846945114980551" Properties=species:S:1:pos:R:3 unique_starting_index=34 config_type=initial n_minim_iter=9 stress="-0.0002952953278406416 2.1945571101066087e-17 -3.363196550530633e-17 2.1945571101066087e-17 3.598351729301833e-05 0.0005165188856475424 -3.363196550530633e-17 0.0005165188856475424 -0.0008086497421432103" pbc="T T T"
Si       1.14147913       4.93987036       7.06062576
Si       1.14147913       4.77144413       4.68111126
Si       1.16622089       8.90179295      10.85064460
Si       1.16622089       0.80952154       0.89109242
Si       3.48010254       4.25223510       8.65718786
Si       3.48010254       5.45907940       3.08454916
Si       3.45536078       5.66517879       6.76196093
Si       3.45536078       4.04613570       4.97977609
8
Lattice="4.609785609252296 2.5869610357944626e-16 1.535940414533914e-16 1.605164782431214e-17 5.345874778576747 1.887783884387791 -1.4707480005238671e-16 4.259601567609613 9.95423460942968" Properties=species:S:1:pos:R:3 unique_starting_index=34 config_type=initial n_minim_iter=10 stress="0.00019532438634513639 3.1189437652636306e-17 -3.218909911586183e-17 3.1189437652636306e-17 0.0003004191786782669 -0.00011518360295418506 -3.218909911586183e-17 -0.00011518360295418506 0.0009285757290939368" pbc="T T T"
Si       1.13660565       4.86474717       7.11842736
Si       1.13660565       4.74072918       4.72359113
Si       1.15588695       8.82128532      10.92572334
Si       1.15588695       0.78419103       0.91629516
Si       3.47317996       4.19759257       8.75681649
Si       3.47317996       5.40788377       3.08520200
Si       3.45389866       5.58692920       6.83730441
Si       3.45389866       4.01854714       5.00471409
8
Lattice="4.538023276959044 2.204450498788795e-16 2.0128432648104622e-16 3.021377289967947e-18 5.1866707353000505 1.8242197843473538 -7.605717673226419e-17 3.840322386671997 10.412137581922309" Properties=species:S:1:pos:R:3 unique_starting_index=34 config_type=initial n_minim_iter=11 stress="-0.006533021708980551 6.155431048201837e-17 1.1674619239974513e-17 6.155431048201837e-17 -0.008068390568396465 -0.004563267663986147 1.1674619239974513e-17 -0.004563267663986147 -0.0037814749287198956" pbc="T T T"
Si       1.13221305       4.43683321       7.30181702
Si       1.13221305       4.59015991       4.93454034
Si       1.10878782       8.39906441      11.18810335
Si       1.10878782       0.62792872       1.04825402
Si       3.40581023       3.91698574       9.22849924
Si       3.40581023       5.11000738       3.00785812
Si       3.42923545       5.14142528       7.16643270
Si       3.42923545       3.88556784       5.06992467
8
Lattice="4.52282028148996 2.0837901579993627e-16 2.1800376261248427e-16 -1.4949132200563468e-18 5.155455235523896 1.8077353549339827 -5.319794771579736e-17 3.7354612934692377 10.54329544587149" Properties=species:S:1:pos:R:3 unique_starting_index=34 config_type=initial n_minim_iter=12 stress="-0.006812226902309464 1.9659777427944192e-17 -8.911358129223883e-18 1.9659777427944192e-17 -0.011112800746329374 -0.006065925804966039 -8.911358129223883e-18 -0.006065925804966039 0.0007329802543147159" pbc="T T T"
Si       1.13343568       4.33130412       7.35806891
Si       1.13343568       4.55961240       4.99296189
Si       1.09814480       8.30697215      11.26263756
Si       1.09814480       0.58394438       1.08839325
Si       3.38938460       3.84961543       9.36074193
Si       3.38938460       5.04130110       2.99028887
Si       3.42467548       5.02940264       7.26390865
Si       3.42467548       3.86151389       5.08712215
8
Lattice="4.513364652365828 1.8960423001567656e-16 2.4470170947021526e-16 -9.05296937986396e-18 5.176411595302658 1.732919321174968 -1.5131136610209014e-17 3.5518343824085203 10.717708632932927" Properties=species:S:1:pos:R:3 unique_starting_index=34 config_type=initial n_minim_iter=13 stress="-0.002476259190036989 5.898044351537523e-17 -2.247319316928817e-17 5.898044351537523e-17 -0.008481910112885144 -0.006733674560306603 -2.247319316928817e-17 -0.006733674560306603 0.010057431488557747" pbc="T T T"
Si       1.16042785       4.13817808       7.38040891
Si       1.16042785       4.59006789       5.07021905
Si       1.08621806       8.27018854      11.26842336
Si       1.08621806       0.45805743       1.18220460
Si       3.35293680       3.77777929       9.56261370
Si       3.35293680       4.95046669       2.88801425
Si       3.42714659       4.82218042       7.40751858
Si       3.42714659       3.90606555       5.04310938
8
Lattice="4.5562467577378225 1.909364476065494e-16 2.4688584604264225e-16 -1.1014759453413739e-17 5.32092189770675 1.6904730483752666 -7.243684977407597e-18 3.639400985735231 10.599488743190074" Properties=species:S:1:pos:R:3 unique_starting_index=34 config_type=initial n_minim_iter=14 stress="0.006272776458071949 -2.909687391225482e-18 -1.1766048388268042e-16 -2.909687391225482e-18 -0.004059848043643441 0.0012404825016813976 -1.1766048388268042e-16 0.0012404825016813976 -0.003758180785963118" pbc="T T T"
Si       1.21196584       4.18916837       7.26352731
Si       1.21196584       4.77115451       5.02643449
Si       1.10925426       8.57233575      11.09494976
Si       1.10925426       0.38798713       1.19501203
Si       3.34428091       3.93039406       9.48094233
Si       3.34428091       5.02992883       2.80901946
Si       3.44699250       4.86814857       7.33999293
Si       3.44699250       4.09217431       4.94996886
8
Lattice="4.550583685909882 1.911693937888548e-16 2.476854604925558e-16 -1.1337496780263121e-17 5.434971728628598 1.609717667990699 -4.644199994746907e-18 3.5703375373836397 10.646274802314894" Properties=species:S:1:pos:R:3 unique_starting_index=34 config_type=initial n_minim_iter=15 stress="0.012997521452681298 2.92590804644174e-17 -5.1437463456445793e-17 2.92590804644174e-17 -0.0021730508493429195 0.0024378191914464363 -5.1437463456445793e-17 0.0024378191914464363 0.007371118432687349" pbc="T T T"
Si       1.24665830       4.10160060       7.21687094
Si       1.24665830       4.90370867       5.03912153
Si       1.10598353       8.75002348      10.99187743
Si       1.10598353       0.25528578       1.26411504
Si       3.30392539       3.97139157       9.55740009
Si       3.30392539       5.03391769       2.69859238
Si       3.44460015       4.75794042       7.39211128
Si       3.44460015       4.24736885       4.86388119
8
Lattice="4.508490422348801 1.9472796354455718e-16 2.449330639076697e-16 -1.1288337791564012e-17 5.591385271281202 1.5319456960090794 -4.747283155599739e-18 3.5779006727337337 10.596856425412959" Properties=species:S:1:pos:R:3 unique_starting_index=34 config_type=initial n_minim_iter=16 stress="0.0036144707389753248 -1.9692816837278188e-17 -4.636971406452132e-17 -1.9692816837278188e-17 -0.0006490862947543258 0.00219500555436168 -4.636971406452132e-17 0.00219500555436168 0.007863548597086333" pbc="T T T"
Si       1.25222141       4.10986303       7.13185769
Si       1.25222141       5.05942291       4.99694443
Si       1.09180394       9.00668387      10.83952387
Si       1.09180394       0.16260207       1.28927825
Si       3.25626901       4.05268061       9.52939979
Si       3.25626901       5.11660533       2.59940233
Si       3.41668648       4.74724505       7.35367931
Si       3.41668648       4.42204090       4.77512281
8
Lattice="4.447260235798643 2.064692398974527e-16 2.38382889841681e-16 -1.1256336052412526e-17 5.923997830628999 1.4534777731033128 -6.374779427073316e-18 3.786493740253483 10.400716180911076" Properties=species:S:1:pos:R:3 unique_starting_index=34 config_type=initial n_minim_iter=17 stress="-0.023758695729036293 -1.0010553990446233e-17 -7.263213061957099e-17 -1.0010553990446233e-17 0.0012708549803334631 0.004513839685609826 -7.263213061957099e-17 0.004513839685609826 -0.009454005034913653" pbc="T T T"
Si       1.21978703       4.34467052       6.97017767
Si       1.21978703       5.36582105       4.88401629
Si       1.06143389       9.61628784      10.61361005
Si       1.06143389       0.09420374       1.24058390
Si       3.22747321       4.29706901       9.35763549
Si       3.22747321       5.41342257       2.49655846
Si       3.38582635       4.94944952       7.16768088
Si       3.38582635       4.76104205       4.68651308
8
Lattice="4.4970409636417275 2.1272795431903595e-16 2.322449955677792e-16 -9.755011186996638e-18 6.103731520282401 1.353513526772227 -7.69719811298223e-18 3.79991450658026 10.278781197802548" Properties=species:S:1:pos:R:3 unique_starting_index=34 config_type=initial n_minim_iter=18 stress="-0.010790267745821409 8.251334085676282e-18 -3.4827059452529764e-17 8.251334085676282e-18 0.0015242165995087858 0.0033909387334362115 -3.4827059452529764e-17 0.0033909387334362115 -0.005309461279411652" pbc="T T T"
Si       1.22178641       4.38395487       6.84581209
Si       1.22178641       5.51969116       4.78648263
Si       1.05417520       9.91313667      10.38675613
Si       1.05417520      -0.00949064       1.24553859
Si       3.27525455       4.36778265       9.24911647
Si       3.27525455       5.53586337       2.38317826
Si       3.44286577       4.94233237       7.06168595
Si       3.44286577       4.96131366       4.57060877
8
Lattice="4.586572150122054 2.2250953625464267e-16 2.255787132410398e-16 -7.920018296887196e-18 6.33767226721753 1.2713813427750826 -8.903960768243484e-18 3.907542137140708 10.113379742986018" Properties=species:S:1:pos:R:3 unique_starting_index=34 config_type=initial n_minim_iter=19 stress="0.003709391687255771 4.071480056453255e-17 -6.140802598892577e-18 4.071480056453255e-17 0.001385285378144169 0.0017543917270108431 -6.140802598892577e-18 0.0017543917270108431 -0.005641494428650262" pbc="T T T"
Si       1.20436755       4.57740088       6.73998869
Si       1.20436755       5.66781353       4.64477240
Si       1.05874727      10.30019483      10.22120198
Si       1.05874727      -0.05498042       1.16355910
Si       3.38220460       4.45274846       9.06577160
Si       3.38220460       5.79246594       2.31898949
Si       3.52782488       5.06762678       6.85593965
Si       3.52782488       5.17758763       4.52882144
8
Lattice="4.589966629719327 2.296771870938321e-16 2.212513526388764e-16 -5.966067056973999e-18 6.535072597865463 1.181247558132697 -9.849572815892081e-18 3.922808083527161 10.075159094625702" Properties=species:S:1:pos:R:3 unique_starting_index=34 config_type=initial n_minim_iter=20 stress="0.004752239053135237 1.111682870995081e-16 -5.473204270440123e-17 1.111682870995081e-16 0.0018695429570696686 -0.0017599607158126414 -5.473204270440123e-17 -0.0017599607158126414 0.005256477513456105" pbc="T T T"
Si       1.20028373       4.64939498       6.68288403
Si       1.20028373       5.80848570       4.57352262
Si       1.05676021      10.62093301      10.10432613
Si       1.05676021      -0.16305233       1.15208052
Si       3.38968290       4.50235345       9.02047839
Si       3.38968290       5.95552723       2.23592826
Si       3.53320642       5.06588801       6.78028384
Si       3.53320642       5.39199267       4.47612281
8
Lattice="4.586308854871042 2.361098493491694e-16 2.18981418086789e-16 -4.683074108186615e-18 6.660637735345688 1.169310875741943 -1.0589488351945615e-17 4.0247475623223075 10.025792079931922" Properties=species:S:1:pos:R:3 unique_starting_index=34 config_type=initial n_minim_iter=21 stress="-0.0008789413252102438 4.099749164419956e-17 1.384457506177488e-17 4.099749164419956e-17 0.0008779083206573022 -0.000334005280211278 1.384457506177488e-17 -0.000334005280211278 -0.001674583322285736" pbc="T T T"
Si       1.19044137       4.81432490       6.66841021
Si       1.19044137       5.87106040       4.52669275
Si       1.07422549      10.88828571      10.09927770
Si       1.07422549      -0.20290042       1.09582526
Si       3.39586749       4.55311531       8.95493335
Si       3.39586749       6.13226998       2.24016960
Si       3.51208336       5.13979223       6.69337674
Si       3.51208336       5.54559307       4.50172622
