6
Lattice="4.768755995495318 -2.1281100504660974e-16 9.905118668591482e-13 2.143702601015804e-16 4.803696421030205 1.8468996213946275e-13 -1.0248855407582979e-12 -1.897092570219168e-13 4.934245848750232" Properties=species:S:1:pos:R:3 unique_starting_index=12 config_type=initial n_minim_iter=1 energy=-974.8308875704429 free_energy=-974.8308875704429 pbc="T T T"
Si       0.40987196       2.40184821       3.60074358
Si       0.40987196       2.40184821       1.33350227
Si       2.78745394       1.23383629       2.46712292
Si       2.78745394       3.56986013       2.46712292
Si       0.19312311       0.00000000       0.00000000
Si       2.57473352       0.00000000       0.00000000
6
Lattice="4.783202531390648 -2.136250011627144e-16 9.92572751094623e-13 2.1681795622224875e-16 4.86236701525984 1.869798128959891e-13 -1.0062762824386956e-12 -1.8604950522529623e-13 4.839971209972858" Properties=species:S:1:pos:R:3 unique_starting_index=12 config_type=initial n_minim_iter=2 stress="0.0019169952306687037 4.751318625155886e-18 5.037214062216354e-16 4.751318625155886e-18 0.0014567436566621393 1.341246710511094e-16 5.037214062216354e-16 1.341246710511094e-16 -0.0004943669861628765" pbc="T T T"
Si       0.41305417       2.43118351       3.58208279
Si       0.41305417       2.43118351       1.25788842
Si       2.80259630       1.25365681       2.41998560
Si       2.80259630       3.60871021       2.41998560
Si       0.18376029       0.00000000       0.00000000
Si       2.57520423       0.00000000       0.00000000
6
Lattice="4.768701997788882 -2.1321250112250155e-16 9.87766702354716e-13 2.1625713314163728e-16 4.855086623556723 1.867852058206352e-13 -1.0073873573960342e-12 -1.8582456858834872e-13 4.836398931605914" Properties=species:S:1:pos:R:3 unique_starting_index=12 config_type=initial n_minim_iter=3 stress="-0.0031250055105522673 1.1327760081326426e-17 4.369507024773018e-16 1.1327760081326426e-17 -0.003431664670874774 6.404382412556088e-17 4.369507024773018e-16 6.404382412556088e-17 -0.004967317933854342" pbc="T T T"
Si       0.41303344       2.42754331       3.58416182
Si       0.41303344       2.42754331       1.25223712
Si       2.79600373       1.25388061       2.41819947
Si       2.79600373       3.60120602       2.41819947
Si       0.18001512       0.00000000       0.00000000
Si       2.56431523       0.00000000       0.00000000
6
Lattice="4.754951955848713 -2.1277485638636483e-16 9.834497132328021e-13 2.1633187262948552e-16 4.860689461770429 1.8700524722644189e-13 -1.0145901285451193e-12 -1.8687906145286184e-13 4.86394150112969" Properties=species:S:1:pos:R:3 unique_starting_index=12 config_type=initial n_minim_iter=4 stress="-0.0003199972172182868 -5.99572771995991e-17 -3.781583108344009e-16 -5.99572771995991e-17 0.0011478373161917647 -3.677724698730415e-17 -3.781583108344009e-16 -3.677724698730415e-17 0.0012458225838007596" pbc="T T T"
Si       0.41580731       2.43034473       3.61514844
Si       0.41580731       2.43034473       1.24879306
Si       2.79360025       1.26124359       2.43197075
Si       2.79360025       3.59944588       2.43197075
Si       0.16979786       0.00000000       0.00000000
Si       2.54737289       0.00000000       0.00000000
6
Lattice="4.731212234719512 -2.1171852317132624e-16 9.78499349620426e-13 2.1423744138945204e-16 4.813887568165657 1.851902281086817e-13 -1.029764535589004e-12 -1.8971871406398494e-13 4.937312503129287" Properties=species:S:1:pos:R:3 unique_starting_index=12 config_type=initial n_minim_iter=5 stress="-0.002263042240341608 8.350350819939912e-17 -1.8982852177341753e-15 8.350350819939912e-17 -0.0034023174197201165 -3.806148593236457e-16 -1.8982852177341753e-15 -3.806148593236457e-16 0.006874977722863385" pbc="T T T"
Si       0.43009277       2.40694378       3.66408479
Si       0.43009277       2.40694378       1.27322772
Si       2.79783910       1.26212550       2.46865625
Si       2.79783910       3.55176207       2.46865625
Si       0.13471452       0.00000000       0.00000000
Si       2.49979502       0.00000000       0.00000000
6
Lattice="4.765099127582493 -2.1322676860804754e-16 9.855688368262793e-13 2.1368300523603217e-16 4.8015008230591 1.8474694255357058e-13 -1.0227990060589805e-12 -1.8838985347095368e-13 4.9036439440913595" Properties=species:S:1:pos:R:3 unique_starting_index=12 config_type=initial n_minim_iter=6 stress="-0.0002754991359873989 -5.787396920079956e-17 -3.577984009303875e-15 -5.787396920079956e-17 -0.03178075891913499 -1.4097887160002222e-15 -3.577984009303875e-15 -1.4097887160002222e-15 0.013353295101708348" pbc="T T T"
Si       0.67444026       2.40075041       3.70024814
Si       0.67444026       2.40075041       1.20339581
Si       3.08792446       1.36215569       2.45182197
Si       3.08792446       3.43934513       2.45182197
Si      -0.37672670       0.00000000      -0.00000000
Si       2.00747952       0.00000000       0.00000000
6
Lattice="4.772662133411481 -2.135633442729844e-16 9.87146140129618e-13 2.1424250756823575e-16 4.814004289307966 1.8517497187409666e-13 -1.0185932262600498e-12 -1.8766121948471594e-13 4.883309160214951" Properties=species:S:1:pos:R:3 unique_starting_index=12 config_type=initial n_minim_iter=7 stress="-1.1409870180779868e-06 -2.218641751972815e-17 -3.1320095019392014e-15 -2.218641751972815e-17 -0.03052507279240192 -1.292505845398436e-15 -3.1320095019392014e-15 -1.292505845398436e-15 0.011661949814795817" pbc="T T T"
Si       0.69472595       2.40700214       3.68765851
Si       0.69472595       2.40700214       1.19565065
Si       3.11359597       1.36968690       2.44165458
Si       3.11359597       3.44431739       2.44165458
Si      -0.41726324       0.00000000      -0.00000000
Si       1.97063296       0.00000000       0.00000000
6
Lattice="4.842825966188898 -2.1694748103556746e-16 1.001766931595453e-12 2.19836112693047e-16 4.944897282631494 1.9011756319068007e-13 -9.79003230618837e-13 -1.8038673059658344e-13 4.691831869250328" Properties=species:S:1:pos:R:3 unique_starting_index=12 config_type=initial n_minim_iter=8 stress="0.014943128917859098 2.0482407323022004e-18 5.143676217004668e-15 2.0482407323022004e-18 0.002255499833028645 6.393212140873248e-16 5.143676217004668e-15 6.393212140873248e-16 -0.013184101472948595" pbc="T T T"
Si       0.70952729       2.47244864       3.52436960
Si       0.70952729       2.47244864       1.16746227
Si       3.15801334       1.36624135       2.34591593
Si       3.15801334       3.57865593       2.34591593
Si      -0.42609370       0.00000000      -0.00000000
Si       1.99583613       0.00000000       0.00000000
6
Lattice="4.788530197792541 -2.1538862225260783e-16 9.919488180191772e-13 2.1922630207455562e-16 4.950460780095822 1.9039863168470688e-13 -9.848021644370601e-13 -1.816859183247278e-13 4.727405922891034" Properties=species:S:1:pos:R:3 unique_starting_index=12 config_type=initial n_minim_iter=9 stress="-0.0015574776732406271 -3.3348538857969765e-17 7.453673179355138e-16 -3.3348538857969765e-17 0.011458306341938453 5.700857878477129e-16 7.453673179355138e-16 5.700857878477129e-16 -0.007236175578663022" pbc="T T T"
Si       0.71548447       2.47523039       3.52511552
Si       0.71548447       2.47523039       1.20229040
Si       3.12977823       1.32721874       2.36370296
Si       3.12977823       3.62324204       2.36370296
Si      -0.44371711       0.00000000      -0.00000000
Si       1.95369356       0.00000000       0.00000000
6
Lattice="4.823352292275304 -2.1735490355451852e-16 1.0030455455165853e-12 2.137962333944634e-16 4.839539576962252 1.8624067289122395e-13 -9.900473689072573e-13 -1.832903673100849e-13 4.771913072402481" Properties=species:S:1:pos:R:3 unique_starting_index=12 config_type=initial n_minim_iter=10 stress="-0.003274928113885085 -1.0074113737425998e-17 1.9293772785515487e-15 -1.0074113737425998e-17 -0.0013745003065355607 4.500879910940731e-16 1.9293772785515487e-15 4.500879910940731e-16 -0.012203442006761718" pbc="T T T"
Si       0.74037899       2.41976979       3.56295843
Si       0.74037899       2.41976979       1.20895464
Si       3.16017632       1.21724375       2.38595654
Si       3.16017632       3.62229583       2.38595654
Si      -0.47874720       0.00000000      -0.00000000
Si       1.94504430       0.00000000       0.00000000
6
Lattice="4.802660502195207 -2.1640187830074532e-16 9.991324627085293e-13 2.1290923440790007e-16 4.818987542808717 1.85294334474534e-13 -1.0031061679992657e-12 -1.8593653185962222e-13 4.836530513594884" Properties=species:S:1:pos:R:3 unique_starting_index=12 config_type=initial n_minim_iter=11 stress="0.0012993567859862633 -6.812191707371301e-17 -9.352479076256006e-16 -6.812191707371301e-17 0.003837787419781499 -8.902525901917918e-17 -9.352479076256006e-16 -8.902525901917918e-17 0.006423518452405526" pbc="T T T"
Si       0.73213191       2.40949377       3.62698296
Si       0.73213191       2.40949377       1.20954756
Si       3.13851128       1.19908111       2.41826526
Si       3.13851128       3.61990644       2.41826526
Si      -0.46161872       0.00000000      -0.00000000
Si       1.94798363       0.00000000       0.00000000
6
Lattice="4.808497262344407 -2.1663006581886843e-16 1.0000463262471693e-12 2.129472645577412e-16 4.8191679563769165 1.8529830573003394e-13 -9.996796456730251e-13 -1.8524937281346986e-13 4.818578823224829" Properties=species:S:1:pos:R:3 unique_starting_index=12 config_type=initial n_minim_iter=12 stress="-0.0017780971799410401 -1.144252790998055e-16 -2.4976362716381443e-16 -1.144252790998055e-16 -0.00010276560030402307 2.4776789710785794e-17 -2.4976362716381443e-16 2.4776789710785794e-17 -0.00021439695604242727" pbc="T T T"
Si       0.73616400       2.40958398       3.61383233
Si       0.73616400       2.40958398       1.20474650
Si       3.14572045       1.20388333       2.40928941
Si       3.14572045       3.61528462       2.40928941
Si      -0.46764207       0.00000000      -0.00000000
Si       1.94273898       0.00000000       0.00000000
6
Lattice="4.817895620644593 -2.1701267959651122e-16 1.0021349477513864e-12 2.1285167729568376e-16 4.81631604195492 1.8530371472620667e-13 -9.988085726189744e-13 -1.849966595555311e-13 4.8150800062073" Properties=species:S:1:pos:R:3 unique_starting_index=12 config_type=initial n_minim_iter=13 stress="0.0007132239405205809 3.435417322286672e-17 1.735618140380915e-16 3.435417322286672e-17 0.000491713396456695 -2.7866064167316365e-17 1.735618140380915e-16 -2.7866064167316365e-17 0.0002788408825815824" pbc="T T T"
Si       0.73790920       2.40815802       3.61049259
Si       0.73790920       2.40815802       1.20458742
Si       3.15122859       1.20431683       2.40754000
Si       3.15122859       3.61199921       2.40754000
Si      -0.46705340       0.00000000      -0.00000000
Si       1.94570127       0.00000000       0.00000000
6
Lattice="4.817643167300423 -2.1697067922731984e-16 1.002387502907895e-12 2.1281078321878137e-16 4.8147186086105505 1.8524147763152984e-13 -9.984388175031741e-13 -1.8498751385763987e-13 4.814819212874119" Properties=species:S:1:pos:R:3 unique_starting_index=12 config_type=initial n_minim_iter=14 stress="-3.054779041157997e-05 -4.449716163926284e-17 3.7630622672871234e-16 -4.449716163926284e-17 -0.0004744023493091574 -1.0744998650683374e-16 3.7630622672871234e-16 -1.0744998650683374e-16 -0.00046620158452285006" pbc="T T T"
Si       0.73787875       2.40735930       3.61120909
Si       0.73787875       2.40735930       1.20361012
Si       3.14998017       1.20394796       2.40740961
Si       3.14998017       3.61077065       2.40740961
Si      -0.46494227       0.00000000      -0.00000000
Si       1.94566284       0.00000000       0.00000000
6
Lattice="4.816812511246891 -2.1690474308985407e-16 1.002520458060562e-12 2.1284872345751489e-16 4.814907430404281 1.8520727877737976e-13 -9.984103150355612e-13 -1.8508320501857557e-13 4.816199775790605" Properties=species:S:1:pos:R:3 unique_starting_index=12 config_type=initial n_minim_iter=15 stress="9.477188704415925e-05 7.936378334135302e-17 2.2422395911746487e-16 7.936378334135302e-17 -0.00020304237562506733 9.735234495643973e-17 2.2422395911746487e-16 9.735234495643973e-17 -6.122991874729795e-07" pbc="T T T"
Si       0.73859719       2.40745372       3.61267684
Si       0.73859719       2.40745372       1.20352294
Si       3.14911372       1.20391238       2.40809989
Si       3.14911372       3.61099505       2.40809989
Si      -0.46457628       0.00000000      -0.00000000
Si       1.94399688       0.00000000       0.00000000
6
Lattice="4.8160964693537 -2.1684378345736103e-16 1.002680789288658e-12 2.1290820820667592e-16 4.815572747865635 1.8531440327590792e-13 -9.981243973635584e-13 -1.8500562966376318e-13 4.816361022685182" Properties=species:S:1:pos:R:3 unique_starting_index=12 config_type=initial n_minim_iter=16 stress="2.1301506411030055e-05 -1.4772706203849536e-16 3.826569817171381e-16 -1.4772706203849536e-16 -6.321245808435775e-05 -9.518867043243927e-17 3.826569817171381e-16 -9.518867043243927e-17 6.23372065210818e-05" pbc="T T T"
Si       0.73895573       2.40778637       3.61248597
Si       0.73895573       2.40778637       1.20387505
Si       3.14810377       1.20388129       2.40818051
Si       3.14810377       3.61169146       2.40818051
Si      -0.46405427       0.00000000      -0.00000000
Si       1.94340193       0.00000000       0.00000000
