16
Lattice="11.575120332976406 1.0482517689935713 2.10707335196477 4.053945902849636 8.101382879215064 0.4601426677441161 4.8086547832196285 0.7220967550159668 7.794160975392426" Properties=species:S:1:pos:R:3 unique_starting_index=92 config_type=initial n_minim_iter=1 energy=-2617.533069985525 free_energy=-2617.533069985525 pbc="T T T"
Si       7.30618818       8.03930445       3.57682122
Si       1.33784588       0.67265622       0.76559575
Si       8.63569634       6.80164563       5.03674185
Si       9.07253673       5.21694655       3.85448159
Si      19.00615170       6.99491128       8.42644558
Si       8.04689806       4.29705988       7.15300559
Si      10.62476540       4.16407837       4.50040708
Si       7.23524001       6.15210530       3.91271772
Si       9.12700394       6.52614721       7.10103205
Si       7.28291630       3.01010900       8.33954227
Si       9.26112585       5.06493031       5.80312269
Si       9.94576769       7.61421099       8.41892303
Si      13.53641489       2.38703174       4.64595071
Si       7.52218655       4.54983507       4.96143002
Si      17.76365754       8.31062170       4.32997265
Si       3.44110807       0.79270043       1.36022599
16
Lattice="11.575760844903844 1.0472064972057178 2.1093560149032835 4.053249223237174 8.101755819855683 0.46149621294015614 4.810547340232444 0.7221205741683703 7.793299644269603" Properties=species:S:1:pos:R:3 unique_starting_index=92 config_type=initial n_minim_iter=2 stress="-0.0001623340923341341 -0.00020978757041551727 0.00016462562600722046 -0.00020978757041551727 -0.0002426651113447354 0.00014336271857029857 0.00016462562600722046 0.00014336271857029857 -0.00036059327013952374" pbc="T T T"
Si       7.30645954       8.03923996       3.57802624
Si       1.33792169       0.67272071       0.76575046
Si       8.63628679       6.80139916       5.03796051
Si       9.07304875       5.21659142       3.85602245
Si      19.00790020       6.99411658       8.42897294
Si       8.04825761       4.29698029       7.15318775
Si      10.62536709       4.16370237       4.50201786
Si       7.23570798       6.15259192       3.91407783
Si       9.12810747       6.52633429       7.10191978
Si       7.28481166       3.00989476       8.33926710
Si       9.26235563       5.06493037       5.80414467
Si       9.94722484       7.61443197       8.41942979
Si      13.53753335       2.38617860       4.64810703
Si       7.52298850       4.54955433       4.96218103
Si      17.76419494       8.30956569       4.33372081
Si       3.44136857       0.79257424       1.36067482
16
Lattice="11.577435757861815 1.0481123986634149 2.110088647580003 4.054335798038557 8.10393298895026 0.46130956599985357 4.811657222074055 0.7221840556099404 7.794013868727566" Properties=species:S:1:pos:R:3 unique_starting_index=92 config_type=initial n_minim_iter=3 stress="0.00021682946131502262 -8.308661003872056e-05 0.0002582670330977573 -8.308661003872056e-05 0.00043658822074069695 3.375098588054744e-05 0.0002582670330977573 3.375098588054744e-05 0.000201655651151629" pbc="T T T"
Si       7.30827290       8.04124323       3.57811530
Si       1.33812168       0.67299418       0.76583787
Si       8.63815977       6.80310971       5.03839887
Si       9.07475407       5.21813909       3.85650725
Si      19.01134578       6.99662736       8.43002658
Si       8.04992547       4.29814297       7.15370118
Si      10.62702246       4.16526648       4.50266231
Si       7.23729944       6.15467322       3.91466919
Si       9.13001766       6.52819765       7.10266348
Si       7.28647409       3.01037902       8.34006212
Si       9.26441344       5.06660212       5.80478254
Si       9.94957619       7.61652792       8.42000462
Si      13.53965858       2.38750925       4.64905064
Si       7.52449258       4.55068638       4.96264685
Si      17.76729207       8.31234086       4.33464307
Si       3.44190581       0.79300746       1.36081873
16
Lattice="11.577181899710663 1.0490311278523061 2.1088603794957796 4.055000359061944 8.103935486505996 0.46043331709128693 4.810952187161416 0.7221403783867835 7.793100765567235" Properties=species:S:1:pos:R:3 unique_starting_index=92 config_type=initial n_minim_iter=4 stress="-3.093954804231058e-06 -8.889059064125102e-05 -0.000122635423154404 -8.889059064125102e-05 6.139760303602135e-05 -0.000265131900741192 -0.000122635423154404 -0.000265131900741192 -0.0001344881909261872" pbc="T T T"
Si       7.30871456       8.04120161       3.57664597
Si       1.33805017       0.67307788       0.76565140
Si       8.63829337       6.80315295       5.03692077
Si       9.07473134       5.21845964       3.85516429
Si      19.01104465       6.99759670       8.42730688
Si       8.04948632       4.29828747       7.15218382
Si      10.62663291       4.16592005       4.50118988
Si       7.23744684       6.15511115       3.91371069
Si       9.12975858       6.52843949       7.10120308
Si       7.28595928       3.01020759       8.33876587
Si       9.26440429       5.06706914       5.80335681
Si       9.94946959       7.61670063       8.41807932
Si      13.53923837       2.38849881       4.64744818
Si       7.52434020       4.55078273       4.96139377
Si      17.76744203       8.31328467       4.33238071
Si       3.44178182       0.79329657       1.36029089
16
Lattice="11.577220695580401 1.050572776045605 2.109060662549128 4.055943278038331 8.103942548058619 0.46129570496771977 4.811014990757889 0.7234792559233322 7.793447394946638" Properties=species:S:1:pos:R:3 unique_starting_index=92 config_type=initial n_minim_iter=5 stress="8.431960126278734e-05 0.0001714357033159298 6.290638139484985e-06 0.0001714357033159298 -0.00018327718622889125 0.00014392974179532734 6.290638139484985e-06 0.00014392974179532734 4.775023994420469e-05" pbc="T T T"
Si       7.30974024       8.04183987       3.57747455
Si       1.33808364       0.67327891       0.76577544
Si       8.63919502       6.80415912       5.03782836
Si       9.07523658       5.21953435       3.85583648
Si      19.01182243       7.00026230       8.42827886
Si       8.04984277       4.29968605       7.15278819
Si      10.62684973       4.16748366       4.50178171
Si       7.23810700       6.15611061       3.91475440
Si       9.13034396       6.52989563       7.10224309
Si       7.28635156       3.01159550       8.33932165
Si       9.26508636       5.06858984       5.80415004
Si       9.95042830       7.61838104       8.41911804
Si      13.53939958       2.39053296       4.64791182
Si       7.52483879       4.55183420       4.96200314
Si      17.76829302       8.31524272       4.33347340
Si       3.44183785       0.79385645       1.36034634
16
Lattice="11.572121087216578 1.0511630504266751 2.1090872670457625 4.0542026882868765 8.107433853572036 0.4615845002473583 4.808879445553821 0.7240988960101769 7.793533292616668" Properties=species:S:1:pos:R:3 unique_starting_index=92 config_type=initial n_minim_iter=6 stress="-0.0003136740085710577 2.4954888159772356e-05 -0.00017515584296266338 2.4954888159772356e-05 0.00033839350430377353 0.00018754582087492506 -0.00017515584296266338 0.00018754582087492506 -8.42045123154998e-05" pbc="T T T"
Si       7.30745291       8.04538556       3.57636281
Si       1.33722216       0.67353500       0.76612840
Si       8.63702364       6.80682312       5.03829555
Si       9.07060704       5.22130286       3.85578942
Si      19.00406179       7.00329307       8.42809384
Si       8.04527106       4.30123091       7.15243236
Si      10.62052203       4.17017132       4.50187060
Si       7.23439357       6.15907562       3.91718396
Si       9.12515443       6.53350891       7.10363859
Si       7.28376647       3.01247668       8.33859368
Si       9.26190934       5.07194834       5.80499729
Si       9.94686139       7.62275454       8.41877693
Si      13.53322023       2.39239178       4.64827529
Si       7.52187217       4.55363599       4.96190871
Si      17.76030943       8.31847914       4.33417929
Si       3.44033985       0.79446177       1.35986044
16
Lattice="11.574617121071833 1.0502241312952352 2.111584105101166 4.054839566672098 8.105506348808214 0.4607823026879443 4.811391035872549 0.7221760180062973 7.795303061339982" Properties=species:S:1:pos:R:3 unique_starting_index=92 config_type=initial n_minim_iter=7 stress="6.609549239575249e-05 5.3245339660829095e-05 5.856311615624106e-05 5.3245339660829095e-05 -7.216627701326005e-05 -4.997719235194162e-05 5.856311615624106e-05 -4.997719235194162e-05 3.0092990911257344e-05" pbc="T T T"
Si       7.30986541       8.04259534       3.57600892
Si       1.33749850       0.67309933       0.76660039
Si       8.64047187       6.80400189       5.03936171
Si       9.07256320       5.21886912       3.85692934
Si      19.00927775       6.99926400       8.43136406
Si       8.04764629       4.29834716       7.15371027
Si      10.62249653       4.16837749       4.50374596
Si       7.23597448       6.15699564       3.91887941
Si       9.12762616       6.53064552       7.10565738
Si       7.28703059       3.00957282       8.33995484
Si       9.26506885       5.06985665       5.80695313
Si       9.95066964       7.61949931       8.41986198
Si      13.53650642       2.39081625       4.65129893
Si       7.52441429       4.55128844       4.96309003
Si      17.76399942       8.31511704       4.33682311
Si       3.44127988       0.79394679       1.36036401
16
Lattice="11.573816360684566 1.047799488132265 2.1116367737643973 4.052956857214462 8.10499681383694 0.46052685009929323 4.8110183155025075 0.7209426244575823 7.795500629648087" Properties=species:S:1:pos:R:3 unique_starting_index=92 config_type=initial n_minim_iter=8 stress="-1.7279426025992755e-05 -0.00011180569425286359 -1.4205813822051804e-05 -0.00011180569425286359 -5.8372900518618776e-05 -2.4622606138473285e-05 -1.4205813822051804e-05 -2.4622606138473285e-05 0.00011100255431030841" pbc="T T T"
Si       7.30855482       8.04097176       3.57525329
Si       1.33727248       0.67254197       0.76715625
Si       8.63962428       6.80253041       5.03907368
Si       9.07049519       5.21676456       3.85681683
Si      19.00689299       6.99507066       8.43116885
Si       8.04599491       4.29659064       7.15300387
Si      10.62033390       4.16638964       4.50374779
Si       7.23398749       6.15640765       3.92008866
Si       9.12500815       6.52880508       7.10623974
Si       7.28607842       3.00755909       8.33948035
Si       9.26367948       5.06810763       5.80729411
Si       9.94937686       7.61822305       8.41969792
Si      13.53539081       2.38803167       4.65138413
Si       7.52374362       4.54946225       4.96317892
Si      17.76081320       8.31150812       4.33661710
Si       3.44108687       0.79305416       1.36024551
16
Lattice="11.574324784762313 1.0499246282771353 2.1116444938693344 4.0543691093525265 8.106993083978816 0.4609262988867191 4.811541864399356 0.7221702850733168 7.793930928966725" Properties=species:S:1:pos:R:3 unique_starting_index=92 config_type=initial n_minim_iter=9 stress="3.127750422875811e-05 3.335649560576189e-05 1.4039896284427784e-05 3.335649560576189e-05 6.48863084136711e-05 6.1904533167456566e-06 1.4039896284427784e-05 6.1904533167456566e-06 -0.00010710977776521343" pbc="T T T"
Si       7.31053910       8.04360688       3.57476730
Si       1.33744096       0.67275133       0.76743627
Si       8.64162336       6.80545394       5.03849889
Si       9.07140641       5.21915192       3.85654708
Si      19.00863216       6.99968235       8.43006600
Si       8.04702097       4.29893772       7.15138345
Si      10.62111771       4.16896879       4.50332234
Si       7.23504798       6.15900647       3.92045000
Si       9.12629180       6.53175640       7.10580089
Si       7.28696363       3.00937491       8.33769832
Si       9.26492842       5.07068030       5.80657500
Si       9.95142287       7.62159774       8.41811296
Si      13.53644783       2.39071301       4.65090836
Si       7.52520067       4.55144217       4.96251733
Si      17.76233901       8.31590386       4.33667220
Si       3.44137737       0.79370686       1.36006924
16
Lattice="11.572871977026033 1.0504534351344745 2.1122717305383136 4.054228799740752 8.106374806932537 0.46137967268621477 4.810883228955794 0.7226520039552641 7.796495340999976" Properties=species:S:1:pos:R:3 unique_starting_index=92 config_type=initial n_minim_iter=10 stress="-9.747650377446862e-05 -6.617689658762914e-05 -3.2031820686215115e-06 -6.617689658762914e-05 -2.361538552907996e-05 5.489107391960121e-05 -3.2031820686215115e-06 5.489107391960121e-05 0.00017881651245631855" pbc="T T T"
Si       7.31042277       8.04315609       3.57574475
Si       1.33731391       0.67270805       0.76832169
Si       8.64131635       6.80571025       5.04040747
Si       9.07003818       5.21934032       3.85784861
Si      19.00622894       7.00095068       8.43237806
Si       8.04588386       4.29893451       7.15339060
Si      10.61973311       4.16895104       4.50495346
Si       7.23411185       6.15932567       3.92330806
Si       9.12486786       6.53159114       7.10907886
Si       7.28581545       3.00952824       8.33992168
Si       9.26389377       5.07094837       5.80865068
Si       9.95083568       7.62177477       8.42024235
Si      13.53534640       2.39098195       4.65247958
Si       7.52493359       4.55113593       4.96416424
Si      17.75991028       8.31624223       4.33881432
Si       3.44105524       0.79371892       1.36025870
16
Lattice="11.574819408721865 1.052776895623522 2.1119151157258353 4.056630840668283 8.107051978209316 0.46044955476269234 4.811827354631498 0.7228482267743462 7.795132653528631" Properties=species:S:1:pos:R:3 unique_starting_index=92 config_type=initial n_minim_iter=11 stress="-8.755058753967312e-05 6.413111551381276e-05 7.474981144784028e-05 6.413111551381276e-05 9.754952047339458e-06 -5.8527704060643334e-05 7.474981144784028e-05 -5.8527704060643334e-05 -7.100876840087134e-07" pbc="T T T"
Si       7.31378204       8.04419033       3.57377245
Si       1.33765229       0.67292438       0.76877195
Si       8.64464005       6.80728786       5.03905309
Si       9.07226615       5.22106340       3.85668398
Si      19.01052103       7.00479441       8.42954067
Si       8.04776522       4.29962052       7.15132527
Si      10.62214756       4.17034663       4.50393407
Si       7.23625147       6.16066388       3.92349506
Si       9.12701844       6.53200568       7.10761833
Si       7.28733224       3.01000849       8.33755225
Si       9.26640619       5.07252492       5.80716532
Si       9.95471040       7.62320500       8.41737817
Si      13.53852478       2.39309517       4.65163368
Si       7.52751718       4.55180033       4.96295969
Si      17.76387549       8.31968540       4.33807966
Si       3.44190042       0.79420131       1.35959806
16
Lattice="11.577772495202765 1.0524956396205687 2.110124219694753 4.057391709589831 8.10688310115263 0.46056293427257783 4.811996753491972 0.7233758270726025 7.7939579802742625" Properties=species:S:1:pos:R:3 unique_starting_index=92 config_type=initial n_minim_iter=12 stress="0.0002113841494374382 -4.5375159198735275e-05 -7.624067601569701e-05 -4.5375159198735275e-05 1.599804648613976e-05 6.291931261553555e-05 -7.624067601569701e-05 6.291931261553555e-05 -4.946548946067146e-05" pbc="T T T"
Si       7.31533805       8.04418368       3.57303038
Si       1.33784902       0.67303427       0.76880929
Si       8.64625696       6.80763945       5.03821108
Si       9.07403624       5.22117157       3.85553618
Si      19.01443784       7.00493668       8.42633221
Si       8.04854782       4.29997737       7.14977165
Si      10.62431326       4.17005844       4.50248726
Si       7.23727402       6.16081732       3.92341162
Si       9.12797542       6.53193899       7.10671574
Si       7.28788835       3.01045078       8.33576336
Si       9.26794749       5.07273541       5.80575909
Si       9.95629856       7.62358090       8.41559989
Si      13.54188855       2.39289640       4.64965032
Si       7.52885692       4.55170657       4.96205549
Si      17.76759276       8.31925596       4.33629516
Si       3.44280630       0.79416393       1.35868318
16
Lattice="11.575543451195262 1.0535161681011054 2.1104556114536286 4.057352451172687 8.10701512311869 0.46042045431035233 4.811204325867037 0.7235817580273706 7.794697259481559" Properties=species:S:1:pos:R:3 unique_starting_index=92 config_type=initial n_minim_iter=13 stress="-6.175536673956557e-07 5.5008995417861415e-06 3.1325282240238473e-06 5.5008995417861415e-06 3.397142167994742e-06 3.7643559342111292e-06 3.1325282240238473e-06 3.7643559342111292e-06 1.294553446374681e-05" pbc="T T T"
Si       7.31545545       8.04460559       3.57308812
Si       1.33750635       0.67343754       0.76916020
Si       8.64547615       6.80870646       5.03892314
Si       9.07271909       5.22213760       3.85591416
Si      19.01163687       7.00634628       8.42630235
Si       8.04684127       4.30076921       7.14975937
Si      10.62263288       4.17022929       4.50307384
Si       7.23610899       6.16142346       3.92491730
Si       9.12621582       6.53169740       7.10802654
Si       7.28651603       3.01077913       8.33566549
Si       9.26645458       5.07338207       5.80605246
Si       9.95584476       7.62407893       8.41544403
Si      13.54012205       2.39396993       4.65051681
Si       7.52805120       4.55164525       4.96287991
Si      17.76390713       8.32025628       4.33753414
Si       3.44240853       0.79453937       1.35794856
16
Lattice="11.574011293385045 1.054018271206347 2.1103794273181324 4.057218300502935 8.107122099753001 0.46007023430042093 4.810549893024049 0.7235005514223395 7.794726409629629" Properties=species:S:1:pos:R:3 unique_starting_index=92 config_type=initial n_minim_iter=14 stress="-8.135841971999799e-06 2.4044594665657793e-05 -1.1390644084619988e-06 2.4044594665657793e-05 1.7850663314787913e-05 5.773213320062538e-06 -1.1390644084619988e-06 5.773213320062538e-06 -4.2980580739511115e-06" pbc="T T T"
Si       7.31535154       8.04451217       3.57202967
Si       1.33719318       0.67366993       0.76923057
Si       8.64499225       6.80966753       5.03872331
Si       9.07177357       5.22287462       3.85602016
Si      19.00910398       7.00686045       8.42564039
Si       8.04528443       4.30110362       7.14938126
Si      10.62142465       4.16992621       4.50306985
Si       7.23527334       6.16179211       3.92528383
Si       9.12501420       6.53113883       7.10880450
Si       7.28551401       3.01091416       8.33474819
Si       9.26553145       5.07354320       5.80563507
Si       9.95582833       7.62428883       8.41486056
Si      13.53924635       2.39468777       4.65052222
Si       7.52703396       4.55094139       4.96260296
Si      17.76090907       8.32066496       4.33823514
Si       3.44189962       0.79490877       1.35723416
16
Lattice="11.573170740935312 1.0520090674807594 2.1104299275780836 4.055816781869915 8.10524274312726 0.4593731253151516 4.810140110501999 0.7220028092682393 7.795302627810453" Properties=species:S:1:pos:R:3 unique_starting_index=92 config_type=initial n_minim_iter=15 stress="1.743016733014439e-05 -1.453931379166138e-05 1.1974207820689566e-05 -1.453931379166138e-05 -2.912155624378166e-05 -1.0727487074716607e-05 1.1974207820689566e-05 -1.0727487074716607e-05 -1.495017681243327e-05" pbc="T T T"
Si       7.31469736       8.04185907       3.57069058
Si       1.33699560       0.67325247       0.76950802
Si       8.64368461       6.80751633       5.03890350
Si       9.07051095       5.22098484       3.85621013
Si      19.00671531       7.00253065       8.42500585
Si       8.04383367       4.29911477       7.14922728
Si      10.62017999       4.16666027       4.50325166
Si       7.23417386       6.15921427       3.92568286
Si       9.12330403       6.52727908       7.10999013
Si       7.28434298       3.00843847       8.33464003
Si       9.26427306       5.07112241       5.80578986
Si       9.95538111       7.62102678       8.41469419
Si      13.53892462       2.39256452       4.65060631
Si       7.52542530       4.54805381       4.96195545
Si      17.75679938       8.31620749       4.33864716
Si       3.44153602       0.79444687       1.35649222
16
Lattice="11.570078799780843 1.0520977669481026 2.1091953317405547 4.054826792737555 8.105606943962643 0.45875302593141903 4.807900094441911 0.7219294219885456 7.796051874184425" Properties=species:S:1:pos:R:3 unique_starting_index=92 config_type=initial n_minim_iter=16 stress="-2.5464642080362063e-05 -1.3935862648836986e-05 -5.527288201044233e-06 -1.3935862648836986e-05 -1.538791892394606e-05 -8.018361227181744e-06 -5.527288201044233e-06 -8.018361227181744e-06 -2.0962161655620236e-05" pbc="T T T"
Si       7.31352339       8.04180840       3.56891288
Si       1.33661467       0.67298999       0.77000222
Si       8.64134472       6.80835935       5.03937716
Si       9.06806689       5.22150383       3.85601100
Si      19.00092850       7.00293084       8.42279838
Si       8.04072403       4.29948264       7.14925558
Si      10.61677894       4.16628547       4.50273925
Si       7.23210347       6.15967963       3.92524393
Si       9.11971928       6.52648118       7.11112402
Si       7.28132042       3.00855517       8.33466839
Si       9.26091213       5.07157110       5.80549897
Si       9.95297267       7.62105035       8.41433074
Si      13.53573881       2.39354403       4.64932740
Si       7.52259540       4.54791015       4.96134088
Si      17.74981776       8.31656335       4.33804620
Si       3.44063244       0.79457292       1.35560379
16
Lattice="11.566639632186757 1.0533394488490186 2.1076029518342274 4.054437496479854 8.106747755819232 0.4581335468598384 4.804877822661318 0.7225470248315897 7.799033894582284" Properties=species:S:1:pos:R:3 unique_starting_index=92 config_type=initial n_minim_iter=17 stress="-9.542736691219837e-06 3.28942523375885e-05 2.0136025741672033e-05 3.28942523375885e-05 2.3739142163598982e-05 1.2158508043631637e-05 2.0136025741672033e-05 1.2158508043631637e-05 1.547633124230586e-05" pbc="T T T"
Si       7.31432917       8.04295072       3.56595864
Si       1.33623395       0.67276481       0.77145616
Si       8.63912471       6.81088917       5.04111217
Si       9.06580117       5.22358487       3.85722820
Si      18.99401868       7.00506420       8.42058365
Si       8.03681930       4.30118061       7.15116692
Si      10.61265814       4.16655917       4.50319355
Si       7.23144904       6.16167935       3.92611191
Si       9.11511106       6.52544309       7.11560971
Si       7.27769104       3.01031729       8.33616953
Si       9.25666352       5.07359345       5.80660119
Si       9.95146520       7.62203657       8.41516562
Si      13.53316942       2.39715801       4.64791321
Si       7.51912710       4.54904798       4.96130698
Si      17.73955853       8.31870131       4.33960773
Si       3.43986909       0.79506709       1.35426804
16
Lattice="11.566227966665837 1.051908096155342 2.1070350566912537 4.053325734676257 8.105904173446097 0.4582412529473793 4.804018089436715 0.7222702332387859 7.800363826514421" Properties=species:S:1:pos:R:3 unique_starting_index=92 config_type=initial n_minim_iter=18 stress="-5.872810718619993e-06 -6.873453879101922e-06 2.36157434034763e-05 -6.873453879101922e-06 1.7729616900574382e-05 2.8198977636759982e-05 2.36157434034763e-05 2.8198977636759982e-05 2.509191069287439e-05" pbc="T T T"
Si       7.31409890       8.04191286       3.56471088
Si       1.33622871       0.67276802       0.77214186
Si       8.63832238       6.81021400       5.04233339
Si       9.06490549       5.22257492       3.85816771
Si      18.99200248       7.00248504       8.42040197
Si       8.03548951       4.30080025       7.15188680
Si      10.61135380       4.16470661       4.50369202
Si       7.23085280       6.16102907       3.92648134
Si       9.11260273       6.52299141       7.11772898
Si       7.27640597       3.00954707       8.33726648
Si       9.25488839       5.07259592       5.80756295
Si       9.95049580       7.62043670       8.41560942
Si      13.53334269       2.39632089       4.64723629
Si       7.51782616       4.54811126       4.96133976
Si      17.73545827       8.31595675       4.34146651
Si       3.43970521       0.79491516       1.35365667
16
Lattice="11.5670017774965 1.0516418023449403 2.1055878099774885 4.053578673863601 8.105229852437713 0.45733609026123445 4.803461826942505 0.7217895814719674 7.799980012050303" Properties=species:S:1:pos:R:3 unique_starting_index=92 config_type=initial n_minim_iter=19 stress="-2.659383640544534e-06 -3.5628795469794487e-06 -1.0840780583894242e-05 -3.5628795469794487e-06 7.290969209073679e-06 5.511162316311741e-06 -1.0840780583894242e-05 5.511162316311741e-06 8.709275825399478e-06" pbc="T T T"
Si       7.31499663       8.04158232       3.56287389
Si       1.33650967       0.67274886       0.77221876
Si       8.63884898       6.80933246       5.04137320
Si       9.06540073       5.22179899       3.85737856
Si      18.99241166       7.00150881       8.41782794
Si       8.03516120       4.29977344       7.15098696
Si      10.61167476       4.16387124       4.50251674
Si       7.23136056       6.16077793       3.92500597
Si       9.11158209       6.52151960       7.11698645
Si       7.27617757       3.00881477       8.33634219
Si       9.25485821       5.07158742       5.80638977
Si       9.95055742       7.61938474       8.41377784
Si      13.53469003       2.39599316       4.64507074
Si       7.51795454       4.54742236       4.95998598
Si      17.73438541       8.31451770       4.34022916
Si       3.43995229       0.79537158       1.35254115
16
Lattice="11.569712956524159 1.0527054015984267 2.1045529788776967 4.055540048722038 8.104565270225702 0.45597160403028003 4.804077852737943 0.7212971185584904 7.799564819008909" Properties=species:S:1:pos:R:3 unique_starting_index=92 config_type=initial n_minim_iter=20 stress="-3.129627719257378e-06 -1.892248319906769e-05 -2.7900550015195177e-05 -1.892248319906769e-05 -3.6921853022354766e-05 -2.0022588709587395e-05 -2.7900550015195177e-05 -2.0022588709587395e-05 6.84846460713903e-06" pbc="T T T"
Si       7.31795456       8.04199584       3.55946789
Si       1.33748884       0.67232526       0.77189373
Si       8.64155154       6.80802510       5.04068605
Si       9.06839701       5.22105722       3.85621413
Si      18.99653548       7.00171917       8.41486551
Si       8.03694174       4.29915542       7.14924115
Si      10.61471968       4.16364514       4.50174919
Si       7.23461704       6.16122041       3.92309740
Si       9.11248020       6.52053459       7.11672985
Si       7.27764570       3.00873844       8.33503031
Si       9.25732502       5.06986751       5.80593260
Si       9.95350621       7.61925247       8.41152112
Si      13.53933402       2.39698993       4.64333366
Si       7.52028285       4.54758728       4.95815105
Si      17.73505442       8.31454650       4.34131852
Si       3.44185640       0.79662644       1.35067717
16
Lattice="11.570069482356873 1.0547417056974147 2.103539581149553 4.0572056997146495 8.105896008215925 0.4544533127687798 4.803816513156514 0.7211148245909417 7.798854051293012" Properties=species:S:1:pos:R:3 unique_starting_index=92 config_type=initial n_minim_iter=21 stress="1.1438309857595702e-05 -3.711441518681621e-06 4.737288939263775e-06 -3.711441518681621e-06 -5.372568527205409e-06 -9.38254916201788e-06 4.737288939263775e-06 -9.38254916201788e-06 1.2604236139145482e-05" pbc="T T T"
Si       7.32061936       8.04341771       3.55610900
Si       1.33844484       0.67243054       0.77183563
Si       8.64322552       6.80911729       5.03981129
Si       9.06980948       5.22216080       3.85518116
Si      18.99740409       7.00472811       8.41187465
Si       8.03693166       4.30017411       7.14723467
Si      10.61579322       4.16474286       4.50080242
Si       7.23652378       6.16310958       3.92149844
Si       9.11229862       6.52084082       7.11614499
Si       7.27736558       3.00985231       8.33291022
Si       9.25820357       5.07083737       5.80488690
Si       9.95530526       7.62072041       8.40866374
Si      13.54099457       2.39994292       4.64149577
Si       7.52125879       4.54876174       4.95548644
Si      17.73253153       8.31758570       4.34178797
Si       3.44307158       0.79774458       1.34899232
