4
Lattice="3.789072948743637 0.0 0.0 0.0 3.789072948743637 0.0 0.0 0.0 3.789072948743637" Properties=species:S:1:pos:R:3 n_minim_iter=1 stress="-0.10884438055225744 -8.261979764774832e-17 -1.9444498086078603e-18 -8.261979764774832e-17 -0.10884438055225751 -3.2350679529016044e-17 -1.9444498086078603e-18 -3.2350679529016044e-17 -0.10884438055225737" pbc="T T T"
Al       0.00000000       0.00000000       0.00000000
Al       1.89453647       1.89453647       0.00000000
Al       1.89453647       0.00000000       1.89453647
Al       0.00000000       1.89453647       1.89453647
