4
Lattice="4.250634276730445 0.0 0.0 0.0 4.250634276730445 0.0 0.0 0.0 4.250634276730445" Properties=species:S:1:pos:R:3 n_minim_iter=1 stress="0.06127328578291978 -2.2962390545867642e-17 7.569926822521968e-19 -2.2962390545867642e-17 0.06127328578291978 -3.901797684465844e-19 7.569926822521968e-19 -3.901797684465844e-19 0.0612732857829199" pbc="T T T"
Al       0.00000000       0.00000000       0.00000000
Al       2.12531714       2.12531714       0.00000000
Al       2.12531714       0.00000000       2.12531714
Al       0.00000000       2.12531714       2.12531714
