4
Lattice="4.308869380063768 0.0 0.0 0.0 4.308869380063768 0.0 0.0 0.0 4.308869380063768" Properties=species:S:1:pos:R:3 n_minim_iter=1 stress="0.07242980146937666 -1.0389095182077026e-17 2.667755952148635e-20 -1.0389095182077026e-17 0.07242980146937662 -5.438783483901582e-19 2.667755952148635e-20 -5.438783483901582e-19 0.07242980146937668" pbc="T T T"
Al       0.00000000       0.00000000       0.00000000
Al       2.15443469       2.15443469       0.00000000
Al       2.15443469       0.00000000       2.15443469
Al       0.00000000       2.15443469       2.15443469
