4
Lattice="3.966384965361551 0.0 0.0 0.0 3.966384965361551 0.0 0.0 0.0 3.966384965361551" Properties=species:S:1:pos:R:3 n_minim_iter=1 stress="-0.007072810885030671 -3.788336013876723e-19 -8.462571803845479e-18 -3.788336013876723e-19 -0.007072810885030757 -4.370868346039252e-18 -8.462571803845479e-18 -4.370868346039252e-18 -0.0070728108850306145" pbc="T T T"
Al       0.00000000       0.00000000       0.00000000
Al       1.98319248       1.98319248       0.00000000
Al       1.98319248       0.00000000       1.98319248
Al       0.00000000       1.98319248       1.98319248
