4
Lattice="3.897390320749315 0.0 0.0 0.0 3.897390320749315 0.0 0.0 0.0 3.897390320749315" Properties=species:S:1:pos:R:3 n_minim_iter=1 stress="-0.022792724123324445 -2.7133260266678387e-17 4.661797763041099e-18 -2.7133260266678387e-17 -0.022792724123324413 -1.465582406885593e-19 4.661797763041099e-18 -1.465582406885593e-19 -0.022792724123324677" pbc="T T T"
Al       0.00000000       0.00000000       0.00000000
Al       1.94869516       1.94869516       0.00000000
Al       1.94869516       0.00000000       1.94869516
Al       0.00000000       1.94869516       1.94869516
