4
Lattice="4.033059350436209 0.0 0.0 0.0 4.033059350436209 0.0 0.0 0.0 4.033059350436209" Properties=species:S:1:pos:R:3 n_minim_iter=1 stress="0.017858012068319707 -3.8943724238966335e-18 2.0086281223433643e-18 -3.8943724238966335e-18 0.01785801206831957 3.51502346503979e-19 2.0086281223433643e-18 3.51502346503979e-19 0.01785801206831946" pbc="T T T"
Al       0.00000000       0.00000000       0.00000000
Al       2.01652968       2.01652968       0.00000000
Al       2.01652968       0.00000000       2.01652968
Al       0.00000000       2.01652968       2.01652968
