4
Lattice="3.9321902899662327 0.0 0.0 0.0 3.9321902899662327 0.0 0.0 0.0 3.9321902899662327" Properties=species:S:1:pos:R:3 n_minim_iter=1 stress="-0.007072810885030671 -3.788336013876723e-19 -8.462571803845479e-18 -3.788336013876723e-19 -0.007072810885030757 -4.370868346039252e-18 -8.462571803845479e-18 -4.370868346039252e-18 -0.0070728108850306145" pbc="T T T"
Al       0.00000000       0.00000000       0.00000000
Al       1.96609514       1.96609514       0.00000000
Al       1.96609514       0.00000000       1.96609514
Al       0.00000000       1.96609514       1.96609514
