4
Lattice="4.129120461825467 0.0 0.0 0.0 4.129120461825467 0.0 0.0 0.0 4.129120461825467" Properties=species:S:1:pos:R:3 n_minim_iter=1 stress="0.036334921220502366 1.6794460307197864e-17 1.104835811869638e-17 1.6794460307197864e-17 0.03633492122050239 -2.844408147680928e-18 1.104835811869638e-17 -2.844408147680928e-18 0.036334921220502366" pbc="T T T"
Al       0.00000000       0.00000000       0.00000000
Al       2.06456023       2.06456023       0.00000000
Al       2.06456023       0.00000000       2.06456023
Al       0.00000000       2.06456023       2.06456023
