4
Lattice="3.7515549107338066 0.0 0.0 0.0 3.7515549107338066 0.0 0.0 0.0 3.7515549107338066" Properties=species:S:1:pos:R:3 n_minim_iter=1 stress="-0.13897545530946304 -3.4951103797896366e-17 5.982941667315546e-18 -3.4951103797896366e-17 -0.138975455309463 -3.935571749594164e-17 5.982941667315546e-18 -3.935571749594164e-17 -0.13897545530946268" pbc="T T T"
Al       0.00000000       0.00000000       0.00000000
Al       1.87577746       1.87577746       0.00000000
Al       1.87577746       0.00000000       1.87577746
Al       0.00000000       1.87577746       1.87577746
