4
Lattice="4.308869380063768 0.0 0.0 0.0 4.308869380063768 0.0 0.0 0.0 4.308869380063768" Properties=species:S:1:pos:R:3 n_minim_iter=1 stress="0.06936383598900861 -1.4285407167069246e-17 1.0171220322373588e-18 -1.4285407167069246e-17 0.0693638359890087 1.9310309033698688e-17 1.0171220322373588e-18 1.9310309033698688e-17 0.0693638359890087" pbc="T T T"
Al       0.00000000       0.00000000       0.00000000
Al       2.15443469       2.15443469       0.00000000
Al       2.15443469       0.00000000       2.15443469
Al       0.00000000       2.15443469       2.15443469
