1
Lattice="2.6368010632713146 2.753866256227742e-16 -1.1501183379532477e-50 1.3184005316356568 2.283536705518778 -4.201134949169464e-49 2.3083332522520174e-50 1.3416668711115087e-48 2.4620143800008623" Properties=species:S:1:pos:R:3:forces:R:3 cutoff=-1.0 nneightol=1.2 n_minim_iter=1 energy=-162.8335334487975 stress="-0.015667632933059866 3.042479242155193e-18 1.1233769509496318e-17 3.042479242155193e-18 -0.015667632933059304 -2.5744055125929062e-17 1.1233769509496318e-17 -2.5744055125929062e-17 -0.01441167546470989" free_energy=-162.8335334487975 pbc="T T T"
Si       0.00000000       0.00000000       0.00000000      -0.00000000      -0.00000000       0.00000000
