1
Lattice="2.403814624661277 1.832608065619935e-16 -8.522023707501928e-50 1.201907312330638 2.0817645309452217 -2.854972493673993e-50 2.178084873913573e-48 -4.719564964434111e-49 2.2808719461988645" Properties=species:S:1:pos:R:3:forces:R:3 cutoff=-1.0 nneightol=1.2 n_minim_iter=1 energy=-162.3398842505015 stress="-0.33354886712252824 1.8466401132516404e-15 -1.1809126109575324e-16 1.8466401132516404e-15 -0.33354886712253046 1.3131383473195727e-16 -1.1809126109575324e-16 1.3131383473195727e-16 -0.3430327843251555" free_energy=-162.3398842505015 pbc="T T T"
Si       0.00000000       0.00000000       0.00000000       0.00000000       0.00000000       0.00000000
