1
Lattice="2.725252323434527 2.07601064945297e-16 -1.1891049901171216e-49 1.3626261617172633 2.3601377438168654 -6.416853165686139e-50 5.734097887633916e-49 -2.561136496488074e-49 2.5435285305259927" Properties=species:S:1:pos:R:3:forces:R:3 cutoff=-1.0 nneightol=1.2 n_minim_iter=1 energy=-162.8225556596807 stress="0.028446844131942147 1.536120007818449e-16 1.3027166144043354e-18 1.536120007818449e-16 0.028446844131943032 4.2229730250273983e-17 1.3027166144043354e-18 4.2229730250273983e-17 0.037834357226755155" free_energy=-162.8225556596807 pbc="T T T"
Si       0.00000000       0.00000000       0.00000000      -0.00000000      -0.00000000       0.00000000
