1
Lattice="2.4623608680623303 1.8718380259238737e-16 -1.0303072007976349e-49 1.2311804340311652 2.132467065026681 -2.4773929332247525e-50 1.7163226964399703e-48 -3.200469360582765e-49 2.318612494725678" Properties=species:S:1:pos:R:3:forces:R:3 cutoff=-1.0 nneightol=1.2 n_minim_iter=1 energy=-162.6344675919714 stress="-0.17977839281280794 -6.41612605257288e-17 -3.3505476559869136e-18 -6.41612605257288e-17 -0.17977839281280866 -5.682114323812865e-17 -3.3505476559869136e-18 -5.682114323812865e-17 -0.19206481710952764" free_energy=-162.6344675919714 pbc="T T T"
Si       0.00000000       0.00000000       0.00000000      -0.00000000       0.00000000      -0.00000000
