1
Lattice="2.8072635453487287 2.1384841931334934e-16 -1.2248888154844841e-49 1.4036317726743641 2.4311615453899673 -6.609956007737372e-50 1.505234609064527e-48 -2.2196186723200078e-49 2.6200711247541792" Properties=species:S:1:pos:R:3:forces:R:3 cutoff=-1.0 nneightol=1.2 n_minim_iter=1 energy=-162.7393048772205 stress="0.07254047360012894 2.0616906419268712e-17 -1.1894369088039617e-17 2.0616906419268712e-17 0.07254047360012839 -3.964789696013215e-19 -1.1894369088039617e-17 -3.964789696013215e-19 0.07950456601773052" free_energy=-162.7393048772205 pbc="T T T"
Si       0.00000000       0.00000000       0.00000000       0.00000000       0.00000000       0.00000000
