4
Lattice="3.810180824101318 -5.650521817907425e-67 2.3341797277359727e-68 5.650521817907424e-67 3.810180824101318 -7.158910017709498e-51 -2.3341797277359727e-68 7.158910017709499e-51 3.810180824101318" Properties=species:S:1:pos:R:3:forces:R:3 n_minim_iter=1 energy=-650.3118704864747 stress="-0.022646791304959744 1.8738351088124807e-17 -1.2481780306399452e-17 1.8738351088124807e-17 -0.022646791304959685 -5.645026269225884e-18 -1.2481780306399452e-17 -5.645026269225884e-18 -0.022646791304959727" free_energy=-650.3118704864747 pbc="T T T"
Si       0.00000000       0.00000000       0.00000000       0.00000000       0.00000000      -0.00000000
Si       1.90509041       1.90509041      -0.00000000      -0.00000000      -0.00000000       0.00000000
Si       1.90509041       0.00000000       1.90509041      -0.00000000       0.00000000      -0.00000000
Si       0.00000000       1.90509041       1.90509041       0.00000000       0.00000000       0.00000000
