4
Lattice="4.031084413864305 -5.9781232130208e-67 2.4695089167726858e-68 5.978123213020802e-67 4.031084413864305 -7.573963526902266e-51 -2.469508916772686e-68 7.573963526902265e-51 4.031084413864305" Properties=species:S:1:pos:R:3:forces:R:3 n_minim_iter=1 energy=-650.1821956538266 stress="0.04543979960236226 7.117263058576456e-18 4.687462553927566e-18 7.117263058576456e-18 0.04543979960236226 -1.668418875126761e-18 4.687462553927566e-18 -1.668418875126761e-18 0.04543979960236234" free_energy=-650.1821956538266 pbc="T T T"
Si       0.00000000       0.00000000       0.00000000      -0.00000000       0.00000000       0.00000000
Si       2.01554221       2.01554221      -0.00000000       0.00000000      -0.00000000      -0.00000000
Si       2.01554221       0.00000000       2.01554221      -0.00000000       0.00000000       0.00000000
Si       0.00000000       2.01554221       2.01554221       0.00000000      -0.00000000      -0.00000000
