4
Lattice="3.7421272805486154 -5.549597990303743e-67 2.292489002519858e-68 5.549597990303744e-67 3.7421272805486154 -7.031044906532002e-51 -2.292489002519858e-68 7.031044906532001e-51 3.7421272805486154" Properties=species:S:1:pos:R:3:forces:R:3 n_minim_iter=1 energy=-650.2702254634022 stress="-0.034544927654084914 -7.891170355329273e-18 -1.6748606468453962e-18 -7.891170355329273e-18 -0.03454492765408487 -2.1386682105871987e-17 -1.6748606468453962e-18 -2.1386682105871987e-17 -0.0345449276540845" free_energy=-650.2702254634022 pbc="T T T"
Si       0.00000000       0.00000000       0.00000000       0.00000000       0.00000000       0.00000000
Si       1.87106364       1.87106364      -0.00000000       0.00000000      -0.00000000       0.00000000
Si       1.87106364       0.00000000       1.87106364      -0.00000000       0.00000000      -0.00000000
Si       0.00000000       1.87106364       1.87106364       0.00000000       0.00000000      -0.00000000
