4
Lattice="3.5214765956548306 -5.222371654681573e-67 2.1573147471847196e-68 5.222371654681573e-67 3.5214765956548306 -6.616466577727052e-51 -2.15731474718472e-68 6.616466577727052e-51 3.5214765956548306" Properties=species:S:1:pos:R:3:forces:R:3 n_minim_iter=1 energy=-650.0704146170109 stress="0.11481949633893322 -2.6448667882193802e-17 -3.690511797515414e-18 -2.6448667882193802e-17 0.11481949633893342 -3.1061807629088065e-17 -3.690511797515414e-18 -3.1061807629088065e-17 0.11481949633893286" free_energy=-650.0704146170109 pbc="T T T"
Si       0.00000000       0.00000000       0.00000000       0.00000000       0.00000000      -0.00000000
Si       1.76073830       1.76073830      -0.00000000      -0.00000000      -0.00000000       0.00000000
Si       1.76073830       0.00000000       1.76073830      -0.00000000       0.00000000      -0.00000000
Si       0.00000000       1.76073830       1.76073830       0.00000000       0.00000000      -0.00000000
