4
Lattice="3.970457392961369 -5.8882129646147887e-67 2.432367802038837e-68 5.888212964614789e-67 3.970457392961369 -7.460052033636512e-51 -2.4323678020388367e-68 7.46005203363651e-51 3.970457392961369" Properties=species:S:1:pos:R:3:forces:R:3 n_minim_iter=1 energy=-650.3127072326035 stress="0.01675735731293501 5.738736692081411e-18 1.3903490626056325e-18 5.738736692081411e-18 0.01675735731293501 8.342094375633795e-18 1.3903490626056325e-18 8.342094375633795e-18 0.016757357312934984" free_energy=-650.3127072326035 pbc="T T T"
Si       0.00000000       0.00000000       0.00000000       0.00000000      -0.00000000      -0.00000000
Si       1.98522870       1.98522870      -0.00000000      -0.00000000       0.00000000      -0.00000000
Si       1.98522870       0.00000000       1.98522870       0.00000000      -0.00000000       0.00000000
Si       0.00000000       1.98522870       1.98522870       0.00000000       0.00000000       0.00000000
