4
Lattice="4.0010005731912015 -5.933508690525029e-67 2.4510790589067775e-68 5.9335086905250296e-67 4.0010005731912015 -7.517439304481231e-51 -2.4510790589067775e-68 7.517439304481233e-51 4.0010005731912015" Properties=species:S:1:pos:R:3:forces:R:3 n_minim_iter=1 energy=-650.2827492292009 stress="0.024680280467587367 1.97466519689006e-18 1.1917277679476852e-18 1.97466519689006e-18 0.024680280467587377 1.1390700293639504e-17 1.1917277679476852e-18 1.1390700293639504e-17 0.02468028046758747" free_energy=-650.2827492292009 pbc="T T T"
Si       0.00000000       0.00000000       0.00000000      -0.00000000      -0.00000000      -0.00000000
Si       2.00050029       2.00050029      -0.00000000       0.00000000       0.00000000      -0.00000000
Si       2.00050029       0.00000000       2.00050029       0.00000000      -0.00000000       0.00000000
Si       0.00000000       2.00050029       2.00050029      -0.00000000       0.00000000       0.00000000
