2
Lattice="5.006116578333811 -3.2703147128324006e-17 2.4082261669707027e-15 -3.2703147128319575e-17 5.0061165783338115 -4.188308654869245e-15 2.5030582891669044 2.503058289166907 1.438813251829913" Properties=species:S:1:pos:R:3:forces:R:3 cutoff=-1.0 nneightol=1.2 n_minim_iter=1 energy=-325.5186930472798 stress="0.06531002686980776 9.351380604026737e-17 -6.434474664928218e-17 9.351380604026737e-17 0.06531002686980764 -5.4125111488354404e-18 -6.434474664928218e-17 -5.4125111488354404e-18 0.05705809521943825" free_energy=-325.5186930472798 pbc="T T T"
Si      -0.00000000      -1.25152914      -0.35970331       0.00000000       0.00000000      -0.00000000
Si      -0.00000000       1.25152915       0.35970331      -0.00000000      -0.00000000      -0.00000000
