4
Lattice="3.789072948743637 0.0 0.0 0.0 3.789072948743637 0.0 0.0 0.0 3.789072948743637" Properties=species:S:1:pos:R:3 n_minim_iter=1 energy=-438.6822983992536 free_energy=-438.6822983992536 pbc="T T T"
Al       0.00000000       0.00000000       0.00000000
Al       1.89453647       1.89453647       0.00000000
Al       1.89453647       0.00000000       1.89453647
Al       0.00000000       1.89453647       1.89453647
