4
Lattice="4.279949922260316 0.0 0.0 0.0 4.279949922260316 0.0 0.0 0.0 4.279949922260316" Properties=species:S:1:pos:R:3 n_minim_iter=1 energy=-438.51541359493694 free_energy=-438.51541359493694 pbc="T T T"
Al       0.00000000       0.00000000       0.00000000
Al       2.13997496       2.13997496       0.00000000
Al       2.13997496       0.00000000       2.13997496
Al       0.00000000       2.13997496       2.13997496
