4
Lattice="3.9321902899662327 0.0 0.0 0.0 3.9321902899662327 0.0 0.0 0.0 3.9321902899662327" Properties=species:S:1:pos:R:3 n_minim_iter=1 stress="-0.020005755777371525 3.169037968278296e-19 5.79566581936851e-19 3.169037968278296e-19 -0.02000575577737152 -8.037950819883018e-19 5.79566581936851e-19 -8.037950819883018e-19 -0.020005755777371504" pbc="T T T"
Al       0.00000000       0.00000000       0.00000000
Al       1.96609514       1.96609514       0.00000000
Al       1.96609514       0.00000000       1.96609514
Al       0.00000000       1.96609514       1.96609514
