4
Lattice="4.097599229036532 0.0 0.0 0.0 4.097599229036532 0.0 0.0 0.0 4.097599229036532" Properties=species:S:1:pos:R:3 n_minim_iter=1 stress="0.028465571670623874 1.1999249145497576e-18 5.702377003885743e-19 1.1999249145497576e-18 0.028465571670623874 9.1653050820821e-19 5.702377003885743e-19 9.1653050820821e-19 0.02846557167062389" pbc="T T T"
Al       0.00000000       0.00000000       0.00000000
Al       2.04879961       2.04879961       0.00000000
Al       2.04879961       0.00000000       2.04879961
Al       0.00000000       2.04879961       2.04879961
