4
Lattice="3.789072948743637 0.0 0.0 0.0 3.789072948743637 0.0 0.0 0.0 3.789072948743637" Properties=species:S:1:pos:R:3 n_minim_iter=1 stress="-0.09689224600489638 8.077908931948081e-20 5.552743882953203e-19 8.077908931948081e-20 -0.09689224600489638 1.1073889523953145e-18 5.552743882953203e-19 1.1073889523953145e-18 -0.09689224600489638" pbc="T T T"
Al       0.00000000       0.00000000       0.00000000
Al       1.89453647       1.89453647       0.00000000
Al       1.89453647       0.00000000       1.89453647
Al       0.00000000       1.89453647       1.89453647
