1
Lattice="2.8729274762011365 6.42172266435322e-17 9.820234959891982e-50 1.4364637381005683 2.4880281776204973 -3.81235045868016e-49 -1.7162633882257358e-48 9.3319926492467e-48 2.677304116623298" Properties=species:S:1:pos:R:3 cutoff=-1.0 nneightol=1.2 n_minim_iter=1 energy=-162.61955006814713 free_energy=-162.61955006814713 pbc="T T T"
Si       0.00000000       0.00000000       0.00000000
