1
Lattice="2.4428443748061746 5.135738559829266e-17 6.865228441424522e-50 1.2214221874030873 2.115565286074062 -1.620523541564234e-49 -1.3674857040120394e-48 6.576290705888281e-48 2.295869084891982" Properties=species:S:1:pos:R:3 cutoff=-1.0 nneightol=1.2 n_minim_iter=1 stress="-0.2942869258827871 -3.339312035272814e-16 -2.9240910991881036e-17 -3.339312035272814e-16 -0.29428692588279454 -5.8481821983762074e-18 -2.9240910991881036e-17 -5.8481821983762074e-18 -0.29224791386718174" pbc="T T T"
Si       0.00000000       0.00000000       0.00000000
