1
Lattice="2.710718532072016 6.0591444713763e-17 9.265772671115278e-50 1.355359266036008 2.3475511112836287 -3.5971005619544736e-49 -2.3778545315452954e-49 1.8142459244071077e-48 2.526140302894081" Properties=species:S:1:pos:R:3 cutoff=-1.0 nneightol=1.2 n_minim_iter=1 stress="0.03398011818869976 2.5436931615419763e-16 -3.96664675211243e-17 2.5436931615419763e-16 0.03398011818869834 2.8315349926135844e-17 -3.96664675211243e-17 2.8315349926135844e-17 0.03883722325149082" pbc="T T T"
Si       0.00000000       0.00000000       0.00000000
