1
Lattice="2.442844374806175 5.1357385598292664e-17 6.865228441424521e-50 1.2214221874030875 2.115565286074062 -1.6205235415642343e-49 -1.2384421521432194e-48 6.150060117112348e-48 2.295869084891982" Properties=species:S:1:pos:R:3 cutoff=-1.0 nneightol=1.2 n_minim_iter=1 stress="-0.22169846882740957 -1.8044383417396102e-16 -3.7561777726008214e-16 -1.8044383417396102e-16 -0.22169846882740388 -5.04222958916249e-16 -3.7561777726008214e-16 -5.04222958916249e-16 -0.23336327449919542" pbc="T T T"
Si       0.00000000       0.00000000       0.00000000
