1
Lattice="2.853645502766348 6.378622555894037e-17 9.754325356816867e-50 1.4268227513831742 2.4713294987908743 -3.786763443039384e-49 -1.3411391390777979e-48 7.429496189917157e-48 2.659335091201938" Properties=species:S:1:pos:R:3 cutoff=-1.0 nneightol=1.2 n_minim_iter=1 stress="0.07159200579067111 -1.873367697546512e-16 1.2101265937378807e-17 -1.873367697546512e-16 0.07159200579067033 5.949331108281064e-18 1.2101265937378807e-17 5.949331108281064e-18 0.08489682049342744" pbc="T T T"
Si       0.00000000       0.00000000       0.00000000
