1
Lattice="2.494287723158661 5.2438910031471317e-17 7.009801850141812e-50 1.2471438615793304 2.1601165326030474 -1.6546498076178003e-49 -1.1327611931780936e-48 5.84436645626078e-48 2.344217311379054" Properties=species:S:1:pos:R:3 cutoff=-1.0 nneightol=1.2 n_minim_iter=1 stress="-0.16935550448759987 3.1400197203194404e-17 1.5890662947663607e-16 3.1400197203194404e-17 -0.1693555044875978 -5.701822577979729e-16 1.5890662947663607e-16 -5.701822577979729e-16 -0.18331632664199746" pbc="T T T"
Si       0.00000000       0.00000000       0.00000000
