1
Lattice="2.7530803514742805 6.15383389810644e-17 9.410573757569723e-50 1.3765401757371405 2.3842375230365174 -3.653314337960505e-49 -4.168972316463305e-49 2.730110706539276e-48 2.5656176215569606" Properties=species:S:1:pos:R:3 cutoff=-1.0 nneightol=1.2 n_minim_iter=1 stress="0.04434719105929478 6.046557925021442e-16 1.3473835664554934e-17 6.046557925021442e-16 0.04434719105929473 1.1840620063849012e-16 1.3473835664554934e-17 1.1840620063849012e-16 0.05187976676592656" pbc="T T T"
Si       0.00000000       0.00000000       0.00000000
