1
Lattice="2.6217776704867597 5.860339053780312e-17 8.961755195722066e-50 1.3108888352433798 2.2705260657163207 -3.4790767909860836e-49 -3.970141489814441e-49 2.5999035169927103e-48 2.443255601894564" Properties=species:S:1:pos:R:3 cutoff=-1.0 nneightol=1.2 n_minim_iter=1 stress="-0.02727461960898113 4.895577223035909e-16 -7.836198829753477e-17 4.895577223035909e-16 -0.027274619608979422 3.7347530879507316e-17 -7.836198829753477e-17 3.7347530879507316e-17 -0.03241802720536975" pbc="T T T"
Si       0.00000000       0.00000000       0.00000000
