1
Lattice="2.834099372193205 6.334931989131825e-17 9.687512812339132e-50 1.4170496860966026 2.4544020531688435 -3.760825893110528e-49 -1.1513955512457742e-48 6.464976859130514e-48 2.641119895628421" Properties=species:S:1:pos:R:3 cutoff=-1.0 nneightol=1.2 n_minim_iter=1 stress="0.06794705336990675 2.5921134373738964e-16 -3.091929777059122e-17 2.5921134373738964e-16 0.06794705336990654 3.6938626591398184e-17 -3.091929777059122e-17 3.6938626591398184e-17 0.0812328403437598" pbc="T T T"
Si       0.00000000       0.00000000       0.00000000
