1
Lattice="2.773637115385319 1.2942418821183603e-16 7.190709992774465e-50 1.3868185576926593 2.4020402028030765 -7.452932528702559e-50 -6.094523487333142e-49 1.1049011861160323e-48 2.583958827510371" Properties=species:S:1:pos:R:3 cutoff=-1.0 nneightol=1.2 n_minim_iter=1 energy=-162.7607225680342 free_energy=-162.7607225680342 pbc="T T T"
Si       0.00000000       0.00000000       0.00000000
