1
Lattice="2.598440102984267 1.2124909891072697e-16 6.736508215336306e-50 1.2992200514921335 2.250315139396628 -6.98216744360457e-50 -4.454397511343774e-49 8.124237894351719e-49 2.420742859481961" Properties=species:S:1:pos:R:3 cutoff=-1.0 nneightol=1.2 n_minim_iter=1 energy=-162.81154614120118 free_energy=-162.81154614120118 pbc="T T T"
Si       0.00000000       0.00000000       0.00000000
