1
Lattice="2.710577937256285 1.2648170417404143e-16 7.027227805507303e-50 1.3552889686281424 2.347429352601565 -7.283488661188606e-50 -2.027965547141836e-49 3.828917459590293e-49 2.5252120220691574" Properties=species:S:1:pos:R:3 cutoff=-1.0 nneightol=1.2 n_minim_iter=1 stress="0.033544661261802014 3.677361002668292e-16 -1.4467613455351728e-18 3.677361002668292e-16 0.03354466126180065 2.6161304092443387e-17 -1.4467613455351728e-18 2.6161304092443387e-17 0.038066395604585995" pbc="T T T"
Si       0.00000000       0.00000000       0.00000000
