1
Lattice="2.8141338808807 1.3131385898757365e-16 7.295698671613303e-50 1.4070669404403495 2.437111430493178 -7.561749813845442e-50 -8.902216836770861e-49 1.6033757523201818e-48 2.621686176234889" Properties=species:S:1:pos:R:3 cutoff=-1.0 nneightol=1.2 n_minim_iter=1 stress="0.06828376634374825 7.039053005186723e-16 -2.472147444383321e-17 7.039053005186723e-16 0.06828376634374689 -6.2802594094175645e-18 -2.472147444383321e-17 -6.2802594094175645e-18 0.08122238473669188" pbc="T T T"
Si       0.00000000       0.00000000       0.00000000
