1
Lattice="2.442452885851497 1.069419613111223e-16 1.0357069717691277e-49 1.2212264429257487 2.1152262466940095 9.574435148013863e-49 -1.394220922427158e-48 -5.110859243048484e-48 2.29552305894715" Properties=species:S:1:pos:R:3 cutoff=-1.0 nneightol=1.2 n_minim_iter=1 stress="-0.22227384619445967 -3.3448857982153466e-16 -3.984672257818917e-16 -3.3448857982153466e-16 -0.22227384619446144 3.5028840047398166e-16 -3.984672257818917e-16 3.5028840047398166e-16 -0.23370233617283354" pbc="T T T"
Si       0.00000000       0.00000000       0.00000000
