8
Lattice="7.4650961119575685 0.0 0.0 0.0 5.542613656069966 8.182587577093956e-20 0.0 -1.1020757804522322e-19 7.4650961119575685" Properties=species:S:1:pos:R:3 unique_starting_index=2 config_type=initial n_minim_iter=1 energy=-1302.8120716468409 free_energy=-1302.8120716468409 pbc="T T T"
Si       3.91916032       1.70973113       5.19432223
Si       3.54581812       1.70973113       2.27100380
Si       5.19414843       3.83325138       3.54599191
Si       2.27083001       3.83325138       3.91933411
Si       7.27836618       3.83325138       1.46177417
Si       0.18661226       3.83325138       6.00355186
Si       6.00337806       1.70973113       7.27853997
Si       1.46160038       1.70973113       0.18678606
8
Lattice="7.479988293450627 2.715943058155296e-90 -1.2140817334821322e-72 -1.348572227212935e-92 5.498732759523588 -1.221759990179566e-17 1.5176021668526657e-72 -1.6643291761584367e-17 7.479988293450627" Properties=species:S:1:pos:R:3 unique_starting_index=2 config_type=initial n_minim_iter=2 stress="0.0004925370264651344 6.062546209479891e-17 -5.196468179554192e-17 6.062546209479891e-17 -0.0017480141088753798 2.2770634870129826e-16 -5.196468179554192e-17 2.2770634870129826e-16 0.000492537026466601" pbc="T T T"
Si       3.92518549       1.69825165       5.20158502
Si       3.55468490       1.69825165       2.27863364
Si       5.20141088       3.80084705       3.55485904
Si       2.27845950       3.80084705       3.92535963
Si       7.29467904       3.80084705       1.46159088
Si       0.18519134       3.80084705       6.01862779
Si       6.01845365       1.69825165       7.29485318
Si       1.46141673       1.69825165       0.18536548
8
Lattice="7.469845140098138 2.727495341808491e-90 -1.212435391706979e-72 -1.351648777703625e-92 5.522553649870359 -1.2200361531085085e-17 1.5155442396337245e-72 -1.6714488137306095e-17 7.469845140098138" Properties=species:S:1:pos:R:3 unique_starting_index=2 config_type=initial n_minim_iter=3 stress="-0.003240845442762618 -1.2537944219330183e-16 -1.7293716164593354e-17 -1.2537944219330183e-16 -0.0021373293198992246 -1.5852573150877242e-16 -1.7293716164593354e-17 -1.5852573150877242e-16 -0.0032408454427623815" pbc="T T T"
Si       3.91677530       1.70883946       5.19033071
Si       3.55295209       1.70883946       2.27974449
Si       5.19015680       3.81408172       3.55312600
Si       2.27957059       3.81408172       3.91694920
Si       7.28787466       3.81408172       1.45540814
Si       0.18185273       3.81408172       6.01466706
Si       6.01449316       1.70883946       7.28804857
Si       1.45523423       1.70883946       0.18202663
8
Lattice="7.4815306970920386 3.397845409047807e-90 -1.214332082013872e-72 -1.353763041721051e-92 5.542569684329973 -1.5231363659000803e-17 1.5179151025173405e-72 -2.0844208124494975e-17 7.4815306970920386" Properties=species:S:1:pos:R:3 unique_starting_index=2 config_type=initial n_minim_iter=4 stress="0.001069894804596022 7.157282166420985e-18 5.725825733136788e-18 7.157282166420985e-18 -0.0005946811365037776 -1.6748040269425105e-16 5.725825733136788e-18 -1.6748040269425105e-16 0.0010698948045953405" pbc="T T T"
Si       3.92093797       1.71689368       5.19622895
Si       3.56047480       1.71689368       2.28553217
Si       5.19605477       3.82604486       3.56064897
Si       2.28535799       3.82604486       3.92111215
Si       7.30124014       3.82604486       1.45546360
Si       0.18017262       3.82604486       6.02629752
Si       6.02612334       1.71689368       7.30141432
Si       1.45528942       1.71689368       0.18034680
8
Lattice="7.471394124582018 3.242376178881173e-90 -1.212686808379512e-72 -1.3631144879795023e-92 5.614873226667394 -1.435019659710591e-17 1.5158585104743908e-72 -1.9886115892474745e-17 7.471394124582018" Properties=species:S:1:pos:R:3 unique_starting_index=2 config_type=initial n_minim_iter=5 stress="-0.0008796763162918723 2.3378191786504186e-16 6.71591691321393e-16 2.3378191786504186e-16 0.0007052637254843144 -1.6754370780328e-16 6.71591691321393e-16 -1.6754370780328e-16 -0.0008796763162918949" pbc="T T T"
Si       3.90705743       1.75002011       5.18628231
Si       3.56421892       1.75002011       2.28534192
Si       5.18610837       3.86522679       3.56439286
Si       2.28516798       3.86522679       3.90723137
Si       7.29991598       3.86522679       1.45058525
Si       0.17136037       3.86522679       6.02103898
Si       6.02086504       1.75002011       7.30008992
Si       1.45041131       1.75002011       0.17153431
8
Lattice="7.425443242299281 1.5161945833443375e-82 -1.2052284887344482e-72 -1.088120315033733e-79 5.85338968720958 -5.583723424384964e-18 -1.465338673181577e-63 -8.767558985439376e-18 7.425443242299281" Properties=species:S:1:pos:R:3 unique_starting_index=2 config_type=initial n_minim_iter=6 stress="-0.008024576955593247 9.631990762890989e-17 2.3254377698979675e-16 9.631990762890989e-17 0.004786244688760453 -2.4501376503103953e-16 2.3254377698979675e-16 -2.4501376503103953e-16 -0.00802457695559306" pbc="T T T"
Si       3.82674143       1.91171872       5.20207090
Si       3.59858476       1.91171872       2.22360103
Si       5.20189803       3.94206052       3.59875763
Si       2.22342816       3.94206052       3.82691430
Si       7.31130638       3.94206052       1.48934928
Si       0.11401981       3.94206052       5.93632266
Si       5.93614978       1.91171872       7.31147925
Si       1.48917641       1.91171872       0.11419268
8
Lattice="7.422054013011715 3.15687578932001e-81 8.148876025908561e-65 -1.0665740678784193e-79 5.891536240014153 1.3423146714201009e-17 -1.464750899210744e-63 1.67713655379846e-17 7.422054013011715" Properties=species:S:1:pos:R:3 unique_starting_index=2 config_type=initial n_minim_iter=7 stress="-0.007657279222865594 2.0388238956011902e-16 2.3809084418430006e-16 2.0388238956011902e-16 0.007273768666258834 -4.127677656090245e-16 2.3809084418430006e-16 -4.127677656090245e-16 -0.007657279222865282" pbc="T T T"
Si       3.81478819       1.93979337       5.20636618
Si       3.60714882       1.93979337       2.21591642
Si       5.20619339       3.95213495       3.60732162
Si       2.21574362       3.95213495       3.81496099
Si       7.31817583       3.95213495       1.49533918
Si       0.10376119       3.95213495       5.92694342
Si       5.92677063       1.93979337       7.31834862
Si       1.49516639       1.93979337       0.10393398
8
Lattice="7.446307646751859 5.61899210479022e-81 8.175504753506046e-65 -1.0516229124857157e-79 5.841870943451028 1.8828344990421076e-17 -1.4695373817353558e-63 2.370121541900183e-17 7.446307646751859" Properties=species:S:1:pos:R:3 unique_starting_index=2 config_type=initial n_minim_iter=8 stress="-0.0007775454343734133 3.749675134213884e-16 4.46259325845199e-16 3.749675134213884e-16 0.006115384712871915 -9.96543002991487e-17 4.46259325845199e-16 -9.96543002991487e-17 -0.0007775454343729416" pbc="T T T"
Si       3.80741605       1.95280446       5.23698562
Si       3.63877421       1.95280446       2.20955136
Si       5.23681226       3.88945526       3.63894757
Si       2.20937800       3.88945526       3.80758941
Si       7.36192804       3.88945526       1.51383180
Si       0.08426223       3.88945526       5.93270518
Si       5.93253183       1.95280446       7.36210139
Si       1.51365844       1.95280446       0.08443559
8
Lattice="7.461837081328649 -1.8729794244304348e-79 -5.693360837515634e-64 4.238555720083202e-80 5.749879834182435 1.8143329893307098e-17 -8.213405003223843e-64 2.235249300884575e-17 7.461837081328649" Properties=species:S:1:pos:R:3 unique_starting_index=2 config_type=initial n_minim_iter=9 stress="-0.0015087808424572916 1.6645665896690454e-17 -6.38083859373134e-17 1.6645665896690454e-17 -0.0034060207984785906 -9.770659096651115e-17 -6.38083859373134e-17 -9.770659096651115e-17 -0.0015087808424577743" pbc="T T T"
Si       3.80576447       1.93198299       5.25063811
Si       3.65595499       1.93198299       2.21142879
Si       5.25046439       3.81827950       3.65612871
Si       2.21125507       3.81827950       3.80593818
Si       7.38687353       3.81827950       1.51971957
Si       0.07484593       3.81827950       5.94234733
Si       5.94217361       1.93198299       7.38704725
Si       1.51954585       1.93198299       0.07501964
8
Lattice="7.458470118431018 -9.6308184467188e-52 -9.674674221385545e-36 1.4045994585463542e-51 5.779925411185733 5.830427508571478e-17 3.224891407128515e-36 7.665347462772519e-17 7.458470118431018" Properties=species:S:1:pos:R:3 unique_starting_index=2 config_type=initial n_minim_iter=10 stress="-0.0016239995114282703 -2.5551723976863234e-16 8.977632748627624e-18 -2.5551723976863234e-16 -0.0007040690458373465 -2.4256873099657327e-17 8.977632748627624e-18 -2.4256873099657327e-17 -0.0016239995114287454" pbc="T T T"
Si       3.79976420       1.94527000       5.24773450
Si       3.65858834       1.94527000       2.21096533
Si       5.24756086       3.83504006       3.65876198
Si       2.21079169       3.83504006       3.79993785
Si       7.38782340       3.83504006       1.51849944
Si       0.07052915       3.83504006       5.94020039
Si       5.94002675       1.94527000       7.38799704
Si       1.51832580       1.94527000       0.07070279
8
Lattice="7.461106985514496 -1.0123249404984464e-51 -3.2268895527724354e-36 1.3219956268881476e-51 5.818011768723721 5.56675959605277e-17 -3.2251735173183596e-36 7.357958993384068e-17 7.461106985514496" Properties=species:S:1:pos:R:3 unique_starting_index=2 config_type=initial n_minim_iter=11 stress="0.002085527559993481 9.59814111754159e-18 8.021303648231187e-17 9.59814111754159e-18 0.0033957168058171964 1.2387600879827115e-16 8.021303648231187e-17 1.2387600879827115e-16 0.0020855275599936073" pbc="T T T"
Si       3.79241079       1.95414981       5.24530969
Si       3.66857859       1.95414981       2.21602709
Si       5.24513599       3.86424915       3.66875229
Si       2.21585339       3.86424915       3.79258449
Si       7.39913208       3.86424915       1.51475620
Si       0.06185729       3.86424915       5.94658058
Si       5.94640688       1.95414981       7.39930578
Si       1.51458249       1.95414981       0.06203100
8
Lattice="7.445387601561097 -2.7966378860601266e-51 5.161933037063511e-35 -7.588041665385598e-52 5.791227155157635 1.0385967680194467e-16 -9.02958690580369e-35 1.3827415691905065e-16 7.445387601561097" Properties=species:S:1:pos:R:3 unique_starting_index=2 config_type=initial n_minim_iter=12 stress="-0.0033578087786791367 -8.299964751496713e-17 -1.1671825431792252e-17 -8.299964751496713e-17 -0.0003318310249041609 -1.1109308289454487e-16 -1.1671825431792252e-17 -1.1109308289454487e-16 -0.0033578087786792802" pbc="T T T"
Si       3.73501665       1.95027183       5.24018923
Si       3.71025359       1.95027183       2.20542768
Si       5.24001589       3.84134073       3.71042693
Si       2.20525435       3.84134073       3.73518998
Si       7.43294739       3.84134073       1.51749543
Si       0.01232285       3.84134073       5.92812148
Si       5.92794815       1.95027183       7.43312073
Si       1.51732209       1.95027183       0.01249618
8
Lattice="7.450626017915245 -3.101816203870638e-51 4.843075722641973e-35 -7.283257106453875e-52 5.787504876709041 6.936682731775908e-17 -8.713450790379762e-35 9.165949637783535e-17 7.450626017915245" Properties=species:S:1:pos:R:3 unique_starting_index=2 config_type=initial n_minim_iter=13 stress="-0.00018019733890553221 -2.2531023796398956e-16 4.4664644565714184e-17 -2.2531023796398956e-16 -0.00039343371513270934 -1.3224989595600066e-16 4.4664644565714184e-17 -1.3224989595600066e-16 -0.00018019733890568704" pbc="T T T"
Si       3.73415765       1.93987837       5.24044950
Si       3.71635092       1.93987837       2.21040599
Si       5.24027604       3.84801167       3.71652438
Si       2.21023253       3.84801167       3.73433110
Si       7.44166393       3.84801167       1.51513649
Si       0.00884464       3.84801167       5.93571899
Si       5.93554554       1.93987837       7.44183739
Si       1.51496303       1.93987837       0.00901810
8
Lattice="7.450976652984886 -3.3994964081497904e-51 4.84330364338168e-35 -7.58224021982727e-52 5.78988920917797 3.831465158119598e-17 -8.723938641089674e-35 4.986314116054521e-17 7.450976652984886" Properties=species:S:1:pos:R:3 unique_starting_index=2 config_type=initial n_minim_iter=14 stress="-0.00013587804953884078 3.315773102346035e-17 1.182971132868247e-17 3.315773102346035e-17 -6.321615056324343e-05 -3.386470738480041e-18 1.182971132868247e-17 -3.386470738480041e-18 -0.0001358780495389679" pbc="T T T"
Si       3.72775659       1.94246146       5.24147115
Si       3.72310261       1.94246146       2.20973498
Si       5.24129769       3.84781307       3.72327608
Si       2.20956152       3.84781307       3.72793006
Si       7.44859094       3.84781307       1.51598282
Si       0.00226826       3.84781307       5.93522331
Si       5.93504984       1.94246146       7.44876440
Si       1.51580936       1.94246146       0.00244173
