20
Lattice="8.155767154597111 -1.218581509898245e-11 2.1989806960477247e-13 4.077883577309109 7.0631015432257325 -2.4639509166501017e-13 4.077883577301692 2.354367181071899 14.180122603481275" Properties=species:S:1:pos:R:3 unique_starting_index=8 config_type=initial n_minim_iter=1 energy=-3257.025488964486 free_energy=-3257.025488964486 pbc="T T T"
Si       9.40713727       4.01870549       6.46965029
Si       8.12766463       6.13746711       6.46965029
Si       6.93249957       3.97003049       6.46965029
Si       6.46107852       5.52789614       8.97938494
Si       8.29369657       2.83151006       8.97938494
Si       9.71252639       5.76679689       8.97938494
Si       7.72685988       3.08300326      11.71997936
Si       9.77814523       5.15015531      11.71997936
Si       6.96229637       5.89304451      11.71997936
Si       5.04263645       6.08939503      -0.18634055
Si       8.51664530       1.32235375      -0.18634055
Si      10.90801973       6.71445430      -0.18634055
Si      12.38054348       5.84920740      10.70120657
Si      13.21146753       7.79726146      10.70120657
Si      11.10894120       7.54283577      10.70120657
Si       8.17001299       1.41236628       5.00187721
Si      11.00338274       6.36925565       5.00187721
Si       5.29390575       6.34458115       5.00187721
Si      12.23365073       7.06310154       3.07892467
Si      12.23365073       7.06310154       7.48409737
20
Lattice="8.16075652967598 -1.2196324793468474e-11 2.2004203309885154e-13 4.080378264848554 7.067422468793035 -2.4666969623263243e-13 4.080378264841132 2.3558074895943313 14.180261239622714" Properties=species:S:1:pos:R:3 unique_starting_index=8 config_type=initial n_minim_iter=2 stress="0.0003682813541788318 -4.351684499301675e-15 2.818016502891054e-16 -4.351684499301675e-15 0.00036828135417798905 6.361784896280784e-16 2.818016502891054e-16 6.361784896280784e-16 0.0007914124901803604" pbc="T T T"
Si       9.41287866       4.02116129       6.46971883
Si       8.13264591       6.14121139       6.46971883
Si       6.93674503       3.97247226       6.46971883
Si       6.46505365       5.53131608       8.97947998
Si       8.29872600       2.83324266       8.97947998
Si       9.71848995       5.77028621       8.97947998
Si       7.73156540       3.08488563      11.72011798
Si       9.78414104       5.15328923      11.72011798
Si       6.96656316       5.89667007      11.72011798
Si       5.04579010       6.09303736      -0.18638202
Si       8.52189288       1.32326373      -0.18638202
Si      10.91458662       6.71854386      -0.18638202
Si      12.38812283       5.85251594      10.70131955
Si      13.21978070       7.80217110      10.70131955
Si      11.11550086       7.54758037      10.70131955
Si       8.17501747       1.41323409       5.00192163
Si      11.01010771       6.37315576       5.00192163
Si       5.29714442       6.34845509       5.00192163
Si      12.24113480       7.06742247       3.07893432
Si      12.24113480       7.06742247       7.48418863
20
Lattice="8.160120069612585 -1.2200097545999118e-11 2.2012037862338886e-13 4.08006003481686 7.066871278209637 -2.4665228102731193e-13 4.080060034809438 2.355623759399863 14.1496625819702" Properties=species:S:1:pos:R:3 unique_starting_index=8 config_type=initial n_minim_iter=3 stress="-0.0001650292074218975 -6.2114853931085075e-15 6.362090702222592e-16 -6.2114853931085075e-15 -0.0001650292074324952 -1.4085277649417617e-16 6.362090702222592e-16 -1.4085277649417617e-16 -0.004184957938619549" pbc="T T T"
Si       9.41171504       4.02085946       6.45591631
Si       8.13221619       6.14035459       6.45591631
Si       6.93642899       3.97252851       6.45591631
Si       6.46516982       5.53194758       8.96027028
Si       8.29684810       2.83302751       8.96027028
Si       9.71834230       5.76876747       8.96027028
Si       7.73038392       3.08444579      11.69548731
Si       9.78383977       5.15248596      11.69548731
Si       6.96613652       5.89681081      11.69548731
Si       5.04717921       6.09039517      -0.18712684
Si       8.52221360       1.32578783      -0.18712684
Si      10.91096741       6.71755956      -0.18712684
Si      12.38644608       5.85163088      10.67844775
Si      13.21947618       7.80116152      10.67844775
Si      11.11461807       7.54782143      10.67844775
Si       8.17453297       1.41270568       4.99095964
Si      11.00953465       6.37300038       4.99095964
Si       5.29629259       6.34803650       4.99095964
Si      12.24018011       7.06687128       3.07209913
Si      12.24018011       7.06687128       7.46856570
20
Lattice="8.159881659689741 -1.2223180058023939e-11 2.200566767804194e-13 4.0799408298554605 7.0666648091599304 -2.4660830064895113e-13 4.079940829848024 2.3555549363832875 14.180457372700593" Properties=species:S:1:pos:R:3 unique_starting_index=8 config_type=initial n_minim_iter=4 stress="6.77742335841813e-05 1.143909187851604e-15 1.4726637507175867e-16 1.143909187851604e-15 6.77742335774338e-05 1.7922553328293347e-16 1.4726637507175867e-16 1.7922553328293347e-16 -0.00016272356174925704" pbc="T T T"
Si       9.40964683       4.02074217       6.47045189
Si       8.13287505       6.13862211       6.47045189
Si       6.93712311       3.97396534       6.47045189
Si       6.46760018       5.53622292       8.98060367
Si       8.29145354       2.83299459       8.98060367
Si       9.72059127       5.76411210       8.98060367
Si       7.72781600       3.08363198      11.72371046
Si       9.78535169       5.15066898      11.72371046
Si       6.96647730       5.89902866      11.72371046
Si       5.05399642       6.08163238      -0.19215798
Si       8.52591698       1.33607310      -0.19215798
Si      10.89973159       6.71562414      -0.19215798
Si      12.38295171       5.85146286      10.70269907
Si      13.22065364       7.79821932      10.70269907
Si      11.11586213       7.55031225      10.70269907
Si       8.17493950       1.41130582       5.00153823
Si      11.01006689       6.37405237       5.00153823
Si       5.29463860       6.34797144       5.00153823
Si      12.23982249       7.06666481       3.07621478
Si      12.23982249       7.06666481       7.48681730
20
Lattice="8.141111449652504 -1.220938444640341e-11 2.1957199196061106e-13 4.070555724836827 7.050409330433321 -2.4603726369653565e-13 4.070555724829398 2.350136443474424 14.208635552110241" Properties=species:S:1:pos:R:3 unique_starting_index=8 config_type=initial n_minim_iter=5 stress="-0.0009915074018192389 -1.5039168775074458e-15 1.1843417262217153e-16 -1.5039168775074458e-15 -0.0009915074018246363 3.7713941700916676e-16 1.1843417262217153e-16 3.7713941700916676e-16 0.0006297361063818725" pbc="T T T"
Si       9.38668260       4.01095874       6.48411914
Si       8.11528944       6.12362622       6.48411914
Si       6.92136232       3.96623370       6.48411914
Si       6.45570332       5.52908479       8.99960353
Si       8.26604335       2.82626067       8.99960353
Si       9.70158769       5.74547319       8.99960353
Si       7.70827513       3.07624854      11.74902779
Si       9.76397596       5.13743781      11.74902779
Si       6.95108327       5.88713231      11.74902779
Si       5.04137339       6.06688089      -0.19611338
Si       8.50746324       1.33251698      -0.19611338
Si      10.87449773       6.70142079      -0.19611338
Si      12.35218753       5.83428243      10.72421720
Si      13.19460379       7.78016698      10.72421720
Si      11.08821021       7.53677859      10.72421720
Si       8.15687333       1.40913745       5.01044802
Si      10.98343741       6.35949080       5.01044802
Si       5.28302361       6.33219042       5.01044802
Si      12.21166718       7.05040933       3.08154902
Si      12.21166718       7.05040933       7.50357295
20
Lattice="8.142245516543587 -1.2246978558714914e-11 2.196117485112495e-13 4.071122758282402 7.051391461170568 -2.460596487225282e-13 4.071122758274952 2.3504638203868278 14.204989515590709" Properties=species:S:1:pos:R:3 unique_starting_index=8 config_type=initial n_minim_iter=6 stress="0.0005618427011091228 1.7001817321537483e-15 1.3175634979788248e-16 1.7001817321537483e-15 0.0005618427011129258 -8.356970122421662e-17 1.3175634979788248e-16 -8.356970122421662e-17 0.0002346360161202383" pbc="T T T"
Si       9.38509506       4.00840120       6.48555817
Si       8.12056624       6.12353013       6.48555817
Si       6.92107526       3.97085159       6.48555817
Si       6.46634407       5.54887135       9.00121788
Si       8.24585545       2.82558256       9.00121788
Si       9.71453704       5.72832901       9.00121788
Si       7.70365126       3.07681325      11.75219604
Si       9.76806697       5.13315106      11.75219604
Si       6.95501833       5.89281861      11.75219604
Si       5.03709449       6.06681272      -0.20693796
Si       8.51192986       1.32884543      -0.20693796
Si      10.87771221       6.70712478      -0.20693796
Si      12.34611087       5.83474151      10.72168702
Si      13.20064675       7.77467489      10.72168702
Si      11.09334722       7.54475798      10.72168702
Si       8.16062890       1.41774878       5.00477091
Si      10.97637013       6.35843754       5.00477091
Si       5.28973753       6.32659660       5.00477091
Si      12.21336828       7.05139146       3.07991838
Si      12.21336828       7.05139146       7.50799184
20
Lattice="8.152654966907072 -1.22784909691435e-11 2.198746626298597e-13 4.076327483464171 7.060406309624763 -2.4639521660473844e-13 4.0763274834567 2.353468769871549 14.20014255169072" Properties=species:S:1:pos:R:3 unique_starting_index=8 config_type=initial n_minim_iter=7 stress="0.0007969292390387589 4.9496341090647336e-15 2.673252542246775e-16 4.9496341090647336e-15 0.0007969292390412016 -1.5126325383721923e-17 2.673252542246775e-16 -1.5126325383721923e-17 0.00038501915323868423" pbc="T T T"
Si       9.39904704       4.01061939       6.48390797
Si       8.13248814       6.13450381       6.48390797
Si       6.92642972       3.97568942       6.48390797
Si       6.47787653       5.56494063       9.00040933
Si       8.24699172       2.82753532       9.00040933
Si       9.73309667       5.72833667       9.00040933
Si       7.71246686       3.08148261      11.74980784
Si       9.78043429       5.13845092      11.74980784
Si       6.96506376       5.90087909      11.74980784
Si       5.04062113       6.07497064      -0.20976307
Si       8.52392047       1.32782063      -0.20976307
Si      10.89342330       6.71802135      -0.20976307
Si      12.36216148       5.84394418      10.71732355
Si      13.21588005       7.78397379      10.71732355
Si      11.10890583       7.55330096      10.71732355
Si       8.17161656       1.41478686       5.00105219
Si      10.99426029       6.36943410       5.00105219
Si       5.29208805       6.33659166       5.00105219
Si      12.22898245       7.06040631       3.07943091
Si      12.22898245       7.06040631       7.50835970
20
Lattice="8.16171908657125 -1.2323770765898623e-11 2.2012627194692156e-13 4.080859543296301 7.068256067516861 -2.4666861926929177e-13 4.0808595432888035 2.3560853558355648 14.160741283048642" Properties=species:S:1:pos:R:3 unique_starting_index=8 config_type=initial n_minim_iter=8 stress="-0.00018779798679427698 5.65310580335432e-15 -1.4004197865223218e-17 5.65310580335432e-15 -0.00018779798680250076 -7.079346472995583e-17 -1.4004197865223218e-17 -7.079346472995583e-17 -0.0006589455039432154" pbc="T T T"
Si       9.41163109       4.01040969       6.46750963
Si       8.14450596       6.14550677       6.46750963
Si       6.92902022       3.98059568       6.46750963
Si       6.49238654       5.59163895       8.98048473
Si       8.23474353       2.82675220       8.98048473
Si       9.75802720       5.71812099       8.98048473
Si       7.71956787       3.08570814      11.71988921
Si       9.79135261       5.14248781      11.71988921
Si       6.97423679       5.90831619      11.71988921
Si       5.04059100       6.08170694      -0.21460547
Si       8.53622997       1.32442638      -0.21460547
Si      10.90833630       6.73037881      -0.21460547
Si      12.37749708       5.85212321      10.68612773
Si      13.22832135       7.79316530      10.68612773
Si      11.12191746       7.55947969      10.68612773
Si       8.18143538       1.41068533       4.98684053
Si      11.01103116       6.37998822       4.98684053
Si       5.29269073       6.34583860       4.98684053
Si      12.24257863       7.06825607       3.05757697
Si      12.24257863       7.06825607       7.49451391
20
Lattice="8.157559847337192 -1.2338679983659829e-11 2.2001381546246887e-13 4.078779923679284 7.064654060679742 -2.4654698310668985e-13 4.078779923671777 2.354884686889855 14.179689997153515" Properties=species:S:1:pos:R:3 unique_starting_index=8 config_type=initial n_minim_iter=9 stress="-0.00024773985647453075 3.6523303876995545e-15 -1.9404340430939394e-17 3.6523303876995545e-15 -0.0002477398564786696 -2.7626871331219766e-16 -1.9404340430939394e-17 -2.7626871331219766e-16 -3.229757512758849e-05" pbc="T T T"
Si       9.40470151       4.00822001       6.47615098
Si       8.14154859       6.14060042       6.47615098
Si       6.92642945       3.98048769       6.47615098
Si       6.49311414       5.59798184       8.99540770
Si       8.22056815       2.82421087       8.99540770
Si       9.75899726       5.70711541       8.99540770
Si       7.71557367       3.08360346      11.73631086
Si       9.78685393       5.14008107      11.73631086
Si       6.97025195       5.90562359      11.73631086
Si       5.03672877       6.07717524      -0.21776297
Si       8.53376717       1.32334745      -0.21776297
Si      10.90218361       6.72878543      -0.21776297
Si      12.37173594       5.84851732      10.70070193
Si      13.22184700       7.78997895      10.70070193
Si      11.11543638       7.55546591      10.70070193
Si       8.17715982       1.41103706       4.99058871
Si      11.00454585       6.37610960       4.99058871
Si       5.29097388       6.34216146       4.99058871
Si      12.23633977       7.06465406       3.06553338
Si      12.23633977       7.06465406       7.50634144
20
Lattice="8.15096408040827 -1.2371333314194793e-11 2.19829999304048e-13 4.07548204021485 7.058941958961839 -2.4634934847785695e-13 4.075482040207324 2.3529806529838755 14.190792637967057" Properties=species:S:1:pos:R:3 unique_starting_index=8 config_type=initial n_minim_iter=10 stress="0.0002675775159767559 2.00500051726624e-15 3.8687936281389584e-17 2.00500051726624e-15 0.0002675775159734055 3.402784646291172e-16 3.8687936281389584e-17 3.402784646291172e-16 0.0005624531889399906" pbc="T T T"
Si       9.39278501       4.00590708       6.47976788
Si       8.13631836       6.13143689       6.47976788
Si       6.92378888       3.98053995       6.47976788
Si       6.49659301       5.61385464       9.00990159
Si       8.19189093       2.81928726       9.00990159
Si       9.76440831       5.68474201       9.00990159
Si       7.71283676       3.07955298      11.74327695
Si       9.77853867       5.13973607      11.74327695
Si       6.96151682       5.89859486      11.74327695
Si       5.03069766       6.06820542      -0.21991799
Si       8.53135928       1.32260926      -0.21991799
Si      10.89083531       6.72706923      -0.21991799
Si      12.36665105       5.84327222      10.70977158
Si      13.20914454       7.78819786      10.70977158
Si      11.10354278       7.54535580      10.70977158
Si       8.16803177       1.41309053       4.99103674
Si      10.99413998       6.36717774       4.99103674
Si       5.29072050       6.33761564       4.99103674
Si      12.22644612       7.05894196       3.06921367
Si      12.22644612       7.05894196       7.51387839
20
Lattice="8.147420303273089 -1.240309427670106e-11 2.197386946040362e-13 4.073710151647289 7.055872957937407 -2.462291397022656e-13 4.0737101516397445 2.3519576526423855 14.160561561815317" Properties=species:S:1:pos:R:3 unique_starting_index=8 config_type=initial n_minim_iter=11 stress="0.00011533917279877831 1.09194707118705e-15 -4.961431107541874e-16 1.09194707118705e-15 0.00011533917279337102 -4.0234696356911195e-16 -4.961431107541874e-16 -4.0234696356911195e-16 -0.00054008584721418" pbc="T T T"
Si       9.39089915       4.00326985       6.46213321
Si       8.13245764       6.13112230       6.46213321
Si       6.91890412       3.97735376       6.46213321
Si       6.50484510       5.63397660       9.00006473
Si       8.16325120       2.81637280       9.00006473
Si       9.77416462       5.66139652       9.00006473
Si       7.71715321       3.07927691      11.71060647
Si       9.76953198       5.14361227      11.71060647
Si       6.95557573       5.88885674      11.71060647
Si       5.02571230       6.06135938      -0.21551813
Si       8.53269326       1.32171484      -0.21551813
Si      10.88385536       6.72867171      -0.21551813
Si      12.36648936       5.84081153      10.68741265
Si      13.20072507       7.78928818      10.68741265
Si      11.09617694       7.53751917      10.68741265
Si       8.15796051       1.41273262       4.98154238
Si      10.99239802       6.35863473       4.98154238
Si       5.29190239       6.34037857       4.98154238
Si      12.22113046       7.05587296       3.05535061
Si      12.22113046       7.05587296       7.49499854
20
Lattice="8.133899373376577 -1.2419011324107094e-11 2.193784526128751e-13 4.066949686699044 7.044163489164226 -2.458427115545083e-13 4.066949686691489 2.348054496384654 14.17283107087008" Properties=species:S:1:pos:R:3 unique_starting_index=8 config_type=initial n_minim_iter=12 stress="-0.0014570931131924752 -4.500958529242749e-15 -2.479565629248384e-17 -4.500958529242749e-15 -0.001457093113196988 -7.67171866991504e-17 -2.479565629248384e-17 -7.67171866991504e-17 0.0002963672218325797" pbc="T T T"
Si       9.37949193       3.99520459       6.46234580
Si       8.11810411       6.12527599       6.46234580
Si       6.90410208       3.96784640       6.46234580
Si       6.50756994       5.63759741       9.01539666
Si       8.13171121       2.81692218       9.01539666
Si       9.76241698       5.63380740       9.01539666
Si       7.71087817       3.07964539      11.71106107
Si       9.74530853       5.13799369      11.71106107
Si       6.94551143       5.87068791      11.71106107
Si       5.01755924       6.04549441      -0.21001313
Si       8.52346740       1.32258656      -0.21001313
Si      10.86067149       6.72024602      -0.21001313
Si      12.33959183       5.82847213      10.69763414
Si      13.18429728       7.77216393      10.69763414
Si      11.07865808       7.53185441      10.69763414
Si       8.13582724       1.41481207       4.98771044
Si      10.97462194       6.33842703       4.98771044
Si       5.29124895       6.33508788       4.98771044
Si      12.20084906       7.04416349       3.06231612
Si      12.20084906       7.04416349       7.49429476
20
Lattice="8.141893178052687 -1.24401722550546e-11 2.195876853252251e-13 4.070946589037119 7.051086327086615 -2.4610728547622907e-13 4.0709465890295515 2.3503621090254425 14.163595729778137" Properties=species:S:1:pos:R:3 unique_starting_index=8 config_type=initial n_minim_iter=13 stress="9.563352699566424e-05 -3.587038292308033e-15 -1.346293481944272e-16 -3.587038292308033e-15 9.56335269953584e-05 -2.724320257906141e-16 -1.346293481944272e-16 -2.724320257906141e-16 0.0001713431638912618" pbc="T T T"
Si       9.38726591       3.99838217       6.45841284
Si       8.12745287       6.13041967       6.45841284
Si       6.91096076       3.97337082       6.45841284
Si       6.51544133       5.64565792       9.00997357
Si       8.13678251       2.81970875       9.00997357
Si       9.77345570       5.63680599       9.00997357
Si       7.71697049       3.08223174      11.70435335
Si       9.75601013       5.14197661      11.70435335
Si       6.95269893       5.87796430      11.70435335
Si       5.02102866       6.05220962      -0.21150040
Si       8.53190475       1.32223356      -0.21150040
Si      10.87274614       6.72772947      -0.21150040
Si      12.35205051       5.83538149      10.68994481
Si      13.19606568       7.77949878      10.68994481
Si      11.09040313       7.53837871      10.68994481
Si       8.14428897       1.41427913       4.98442361
Si      10.98684023       6.34602158       4.98442361
Si       5.29455035       6.34187195       4.98442361
Si      12.21283977       7.05108633       3.06005599
Si      12.21283977       7.05108633       7.49185477
20
Lattice="8.149882895512464 -1.2476757101123785e-11 2.1981862170674281e-13 4.07494144776704 7.058005625375829 -2.4636795358928583e-13 4.0749414477594526 2.3526685417885003 14.146045116981716" Properties=species:S:1:pos:R:3 unique_starting_index=8 config_type=initial n_minim_iter=14 stress="0.0011942417130792753 -1.060343732383399e-15 -8.125301059658468e-17 -1.060343732383399e-15 0.001194241713076053 1.511978741340955e-17 -8.125301059658468e-17 1.511978741340955e-17 -0.0003761160892741149" pbc="T T T"
Si       9.39225256       4.00058524       6.44757418
Si       8.13903107       6.13363670       6.44757418
Si       6.91836507       3.98178932       6.44757418
Si       6.52975942       5.65451979       9.00124251
Si       8.13792830       2.82767765       9.00124251
Si       9.78196097       5.63381382       9.00124251
Si       7.72316544       3.08589983      11.68651241
Si       9.76571543       5.14550755      11.68651241
Si       6.96076782       5.88460387      11.68651241
Si       5.02387414       6.05843893      -0.21093918
Si       8.54106670       1.32158316      -0.21093918
Si      10.88470785       6.73598916      -0.21093918
Si      12.36261298       5.84199572      10.67452573
Si      13.20902550       7.78533903      10.67452573
Si      11.10283456       7.54668213      10.67452573
Si       8.14899003       1.41311732       4.98243313
Si      11.00147528       6.35067371       4.98243313
Si       5.29918339       6.35222022       4.98243313
Si      12.22482435       7.05800563       3.05798516
Si      12.22482435       7.05800563       7.48513349
20
Lattice="8.144532718793227 -1.2495170617583389e-11 2.1970975674127012e-13 4.072266359407438 7.0533722364222236 -2.4620980873746807e-13 4.072266359399841 2.351124078803958 14.147679007722852" Properties=species:S:1:pos:R:3 unique_starting_index=8 config_type=initial n_minim_iter=15 stress="-0.0003002179501429095 -1.0605901332059312e-15 -6.486294875974129e-17 -1.0605901332059312e-15 -0.00030021795014531586 2.8485929340970216e-16 -6.486294875974129e-17 2.8485929340970216e-16 0.00017331925475109805" pbc="T T T"
Si       9.38424367       3.99597288       6.44378747
Si       8.13632958       6.12900697       6.44378747
Si       6.91302492       3.98176462       6.44378747
Si       6.53496147       5.65597421       9.00651180
Si       8.12336736       2.83145554       9.00651180
Si       9.77526933       5.61931473       9.00651180
Si       7.71960819       3.08425352      11.68254515
Si       9.75821945       5.14325004      11.68254515
Si       6.95577053       5.87924092      11.68254515
Si       5.02052297       6.05216549      -0.20989311
Si       8.53747489       1.32181769      -0.20989311
Si      10.87560030       6.73276130      -0.20989311
Si      12.35355342       5.83742492      10.67437225
Si      13.20146318       7.77977862      10.67437225
Si      11.09538065       7.54291317      10.67437225
Si       8.13835668       1.41376484       4.98815408
Si      10.99553084       6.34114121       4.98815408
Si       5.29971065       6.35183843       4.98815408
Si      12.21679908       7.05337224       3.06147495
Si      12.21679908       7.05337224       7.48522953
20
Lattice="8.143242909578376 -1.2504816595608647e-11 2.1967195923707216e-13 4.071621454800023 7.052255228876126 -2.462133075215787e-13 4.071621454792418 2.350751742955255 14.147214404432233" Properties=species:S:1:pos:R:3 unique_starting_index=8 config_type=initial n_minim_iter=16 stress="-0.0003110788471234364 -5.241808610353314e-15 -1.9316715917383464e-16 -5.241808610353314e-15 -0.00031107884712493845 5.114389601865508e-17 -1.9316715917383464e-16 5.114389601865508e-17 -0.00016218273450806377" pbc="T T T"
Si       9.38274568       3.99254374       6.44175866
Si       8.13746868       6.12942425       6.44175866
Si       6.90951438       3.98254248       6.44175866
Si       6.53691820       5.65556207       9.00738283
Si       8.12016630       2.83335619       9.00738283
Si       9.77264424       5.61559220       9.00738283
Si       7.71715757       3.08219715      11.68277186
Si       9.75864601       5.14215593      11.68277186
Si       6.95392516       5.88015739      11.68277186
Si       5.01967023       6.05176862      -0.21327199
Si       8.53566535       1.32127762      -0.21327199
Si      10.87439316       6.73146422      -0.21327199
Si      12.35319467       5.83643416      10.67199031
Si      13.19863115       7.77996333      10.67199031
Si      11.09276728       7.54036821      10.67199031
Si       8.13628342       1.41387651       4.99201818
Si      10.99389114       6.33928987       4.99201818
Si       5.29955418       6.35134407       4.99201818
Si      12.21486437       7.05225523       3.06440852
Si      12.21486437       7.05225523       7.48623752
20
Lattice="8.143513512376103 -1.2512326586774768e-11 2.1971611981106646e-13 4.071756756198896 7.052489577773289 -2.462218525070061e-13 4.071756756191285 2.350829859254306 14.146715048142125" Properties=species:S:1:pos:R:3 unique_starting_index=8 config_type=initial n_minim_iter=17 stress="1.1948088292362206e-05 -8.512429729826901e-15 -1.9554556773748808e-16 -8.512429729826901e-15 1.194808830037519e-05 -4.403263142396992e-16 -1.9554556773748808e-16 -4.403263142396992e-16 -1.2624494719407348e-05" pbc="T T T"
Si       9.38318167       3.99243191       6.44108809
Si       8.13788874       6.12985774       6.44108809
Si       6.90947014       3.98268951       6.44108809
Si       6.53862201       5.65771393       9.00817048
Si       8.11799203       2.83375580       9.00817048
Si       9.77392650       5.61350943       9.00817048
Si       7.71789088       3.08273970      11.68187910
Si       9.75835069       5.14251972      11.68187910
Si       6.95429897       5.87971974      11.68187910
Si       5.01977573       6.05173412      -0.21360113
Si       8.53618368       1.32138625      -0.21360113
Si      10.87458113       6.73185880      -0.21360113
Si      12.35378893       5.83668661      10.67114829
Si      13.19892720       7.78035174      10.67114829
Si      11.09309469       7.54043039      10.67114829
Si       8.13595712       1.41414772       4.99246473
Si      10.99436062       6.33887168       4.99246473
Si       5.30022281       6.35195975       4.99246473
Si      12.21527027       7.05248958       3.06477216
Si      12.21527027       7.05248958       7.48549320
20
Lattice="8.143728196959675 -1.2529826023974701e-11 2.197548123163098e-13 4.071864098490698 7.052675500076456 -2.4616197087088903e-13 4.071864098483075 2.3508918333553557 14.146512780269395" Properties=species:S:1:pos:R:3 unique_starting_index=8 config_type=initial n_minim_iter=18 stress="0.0003104528900614925 -9.118655703532647e-15 9.600827360197132e-17 -9.118655703532647e-15 0.00031045289006769936 -4.576335799077034e-16 9.600827360197132e-17 -4.576335799077034e-16 0.0001259960144107344" pbc="T T T"
Si       9.38344648       3.99271609       6.44077975
Si       8.13793959       6.12994498       6.44077975
Si       6.90979852       3.98268993       6.44077975
Si       6.54014713       5.65921685       9.00961484
Si       8.11635727       2.83432513       9.00961484
Si       9.77468019       5.61180902       9.00961484
Si       7.71870236       3.08390818      11.68133399
Si       9.75736239       5.14263824      11.68133399
Si       6.95511985       5.87880458      11.68133399
Si       5.02048655       6.05221530      -0.21454962
Si       8.53584093       1.32176124      -0.21454962
Si      10.87485712       6.73137447      -0.21454962
Si      12.35449389       5.83690358      10.66951671
Si      13.19903087       7.78085377      10.66951671
Si      11.09325213       7.54026916      10.66951671
Si       8.13581871       1.41438443       4.99403555
Si      10.99465420       6.33863347       4.99403555
Si       5.30071169       6.35233311       4.99403555
Si      12.21559230       7.05267550       3.06588570
Si      12.21559230       7.05267550       7.48365736
20
Lattice="8.143856287021109 -1.2538762809175707e-11 2.1976484986607216e-13 4.071928143521423 7.052786429323623 -2.46144774210483e-13 4.071928143513794 2.350928809771075 14.146417659814224" Properties=species:S:1:pos:R:3 unique_starting_index=8 config_type=initial n_minim_iter=19 stress="-0.00024279095103312044 -6.066200527151621e-15 -2.874854983134842e-16 -6.066200527151621e-15 -0.00024279095103329096 -1.068840353357559e-15 -2.874854983134842e-16 -1.068840353357559e-15 -6.744843816313716e-05" pbc="T T T"
Si       9.38313202       3.99371727       6.44190321
Si       8.13748596       6.12917206       6.44190321
Si       6.91095089       3.98268353       6.44190321
Si       6.53920081       5.65773025       9.00997574
Si       8.11837405       2.83424889       9.00997574
Si       9.77399401       5.61359372       9.00997574
Si       7.71837964       3.08379826      11.68155985
Si       9.75787513       5.14241371      11.68155985
Si       6.95531411       5.87936089      11.68155985
Si       5.02163762       6.05371548      -0.21570989
Si       8.53422237       1.32200801      -0.21570989
Si      10.87570887       6.72984937      -0.21570989
Si      12.35431239       5.83699239      10.66819851
Si      13.19942898       7.78065218      10.66819851
Si      11.09361193       7.54071472      10.66819851
Si       8.13718711       1.41390179       4.99509291
Si      10.99464415       6.34005986       4.99509291
Si       5.29973760       6.35161121       4.99509291
Si      12.21578443       7.05278643       3.06634193