14
Lattice="4.986376608057764 1.1922219704780432 -1.197888671000061 -0.7800115425742223 5.537837102198611 2.4991718502765794 -4.55320764902193 -1.6140434813194908 1.8003095414493882" Properties=species:S:1:pos:R:3 unique_starting_index=10 config_type=initial n_minim_iter=1 energy=-305111374.2488613 free_energy=-305111374.2488613 pbc="T T T"
Si       1.75172548       4.29868351       2.22107859
Si      -0.90988944       1.29808569       1.34357912
Si       0.75320667       2.24985350       0.90740420
Si       1.60582754       6.39558677       3.12645225
Si      -2.93357485      -1.07609343       0.85640378
Si      -0.70512888       2.34632589       1.13148237
Si      -1.93505604       0.97273658       2.17007816
Si       0.98551920       3.97888389       0.64989242
Si       2.18865612       4.07827746       0.99034950
Si      -3.30174427      -0.06082456       2.03351870
Si       0.40269062       6.29619320       2.78599518
Si      -2.86648170       2.09119267       2.24185233
Si       1.50310784       2.14500625       0.79921772
Si       1.86825044       2.69162731       0.47795510
14
Lattice="5.1856211051089165 1.2302381870510055 -1.317377313913534 -0.8262543490307069 5.549441840416837 2.5215106717180884 -4.755508784604477 -1.650268584689085 1.9102863091505367" Properties=species:S:1:pos:R:3 unique_starting_index=10 config_type=initial n_minim_iter=2 stress="-56396939.92721722 -25544598.6476353 122338011.04285203 -25544598.6476353 75117913.34595367 -16869120.576183576 122338011.04285203 -16869120.576183576 57849561.76162143" pbc="T T T"
Si       1.78620487       4.32350976       2.18215097
Si      -0.96089513       1.29814990       1.36685384
Si       0.76801201       2.26337935       0.89124997
Si       1.63107666       6.42712721       3.09414014
Si      -3.05713243      -1.09903351       0.92768986
Si      -0.74014474       2.34635675       1.15007800
Si      -2.03893957       0.96109690       2.21859085
Si       1.02725022       3.99705946       0.62692505
Si       2.26241094       4.10584014       0.94103699
Si      -3.45844739      -0.07710002       2.11577993
Si       0.39591594       6.31834653       2.78002820
Si      -2.99810127       2.07133808       2.31143821
Si       1.54800207       2.15103715       0.76984471
Si       1.93657916       2.72370768       0.42970981
14
Lattice="5.276896324779846 1.2214250782600786 -1.4565818996023545 -0.8840649054565269 5.407300139672784 2.529998775131049 -4.865942109712443 -1.6240506207422858 2.0209619655671496" Properties=species:S:1:pos:R:3 unique_starting_index=10 config_type=initial n_minim_iter=3 stress="8201408.234074459 -24162674.766924717 137421006.68799248 -24162674.766924717 133258652.3206407 -22146777.08573872 137421006.68799248 -22146777.08573872 98628820.11847213" pbc="T T T"
Si       1.75317815       4.22754807       2.10152508
Si      -1.00203540       1.26874316       1.37678120
Si       0.76046218       2.21424605       0.85849281
Si       1.57761595       6.28263733       3.01823107
Si      -3.11901959      -1.08136754       1.00668957
Si      -0.77476025       2.28006291       1.16705339
Si      -2.12630361       0.93193448       2.24972185
Si       1.03841981       3.89489396       0.59902039
Si       2.26742561       4.01157324       0.87182789
Si      -3.55136811      -0.07518957       2.18805217
Si       0.34861016       6.16595805       2.74542357
Si      -3.09136965       1.99994503       2.37674439
Si       1.55211433       2.10410113       0.71508685
Si       1.94798635       2.66613002       0.37216584
14
Lattice="5.438627241262818 1.1905240653963007 -1.5739555883900664 -0.9624757821831864 5.2880707739855275 2.5779829882951475 -5.037242554464657 -1.5728187303873946 2.1083983831724034" Properties=species:S:1:pos:R:3 unique_starting_index=10 config_type=initial n_minim_iter=4 stress="54756622.57655003 -5350487.415657663 53124922.84559083 -5350487.415657663 72578890.30991569 71087795.36267194 53124922.84559083 71087795.36267194 50126354.401902676" pbc="T T T"
Si       1.74076022       4.14195050       2.05873236
Si      -1.08015678       1.24471282       1.39519869
Si       0.74385901       2.16811125       0.85358035
Si       1.54675833       6.15190626       2.98634992
Si      -3.22019683      -1.04697042       1.06990798
Si      -0.80066452       2.23256192       1.19899885
Si      -2.22329562       0.92686882       2.27505998
Si       1.04857183       3.80396332       0.61187502
Si       2.30438077       3.92071176       0.83381350
Si      -3.69968199      -0.06388049       2.25418003
Si       0.29094939       6.03515782       2.76441144
Si      -3.21838187       1.96833650       2.44841589
Si       1.58485138       2.07615722       0.66430932
Si       1.97295456       2.59164158       0.35593263
14
Lattice="5.438627241262821 1.1905240653963025 -1.5739555883900693 -0.9624757821831913 5.288070773985528 2.5779829882951493 -5.0372425544646635 -1.5728187303873957 2.1083983831724082" Properties=species:S:1:pos:R:3 unique_starting_index=10 config_type=initial n_minim_iter=5 stress="54756622.5765567 -5350487.415652373 53124922.845581785 -5350487.415652373 72578890.30992274 71087795.36267354 53124922.845581785 71087795.36267354 50126354.4019057" pbc="T T T"
Si       1.74076022       4.14195050       2.05873236
Si      -1.08015678       1.24471282       1.39519869
Si       0.74385901       2.16811125       0.85358035
Si       1.54675833       6.15190626       2.98634992
Si      -3.22019683      -1.04697042       1.06990798
Si      -0.80066452       2.23256192       1.19899885
Si      -2.22329562       0.92686882       2.27505998
Si       1.04857183       3.80396332       0.61187502
Si       2.30438077       3.92071176       0.83381350
Si      -3.69968199      -0.06388049       2.25418003
Si       0.29094939       6.03515782       2.76441144
Si      -3.21838187       1.96833650       2.44841589
Si       1.58485138       2.07615722       0.66430932
Si       1.97295456       2.59164158       0.35593263
14
Lattice="5.429645883427401 1.1543243055425585 -1.5727188228700735 -1.0353609850235237 5.175174675518977 2.5185721806848873 -5.0571625042872155 -1.5299243467103034 2.118540908236132" Properties=species:S:1:pos:R:3 unique_starting_index=10 config_type=initial n_minim_iter=6 stress="48535148.52906592 -16262313.7340243 499268.24459182686 -16262313.7340243 7828643.539071898 80200742.85911514 499268.24459182686 80200742.85911514 24706529.033941664" pbc="T T T"
Si       1.64150033       4.04756611       2.02442553
Si      -1.12240333       1.21937545       1.38185024
Si       0.70168945       2.11928252       0.83211745
Si       1.42030259       6.01963006       2.93301903
Si      -3.21670747      -1.01816623       1.07641644
Si      -0.82528718       2.18562447       1.17316964
Si      -2.27689659       0.91011736       2.26872452
Si       1.02629178       3.71486883       0.56785421
Si       2.24584274       3.81908135       0.79375821
Si      -3.74423375      -0.05813508       2.25388746
Si       0.20075164       5.91541754       2.70711503
Si      -3.26061928       1.93321065       2.41967334
Si       1.54281864       2.02437192       0.64867654
Si       1.93913672       2.53495230       0.33362452
14
Lattice="5.471776131577748 1.1216872000926252 -1.5424042826606759 -1.107210712024817 5.014373770071183 2.393156569549115 -5.126199930971607 -1.4914749245913752 2.1012415893380547" Properties=species:S:1:pos:R:3 unique_starting_index=10 config_type=initial n_minim_iter=7 stress="57890586.03649143 -72515126.1100722 -31114175.893449694 -72515126.1100722 -50262285.42474315 49361683.47061997 -31114175.893449694 49361683.47061997 -9838722.300156016" pbc="T T T"
Si       1.56593007       3.91254391       1.94893642
Si      -1.17921671       1.17874421       1.33761500
Si       0.66632239       2.05406668       0.79014517
Si       1.31793047       5.83123733       2.81840660
Si      -3.24591783      -0.98686696       1.06978804
Si      -0.84634725       2.11672047       1.12227216
Si      -2.34631016       0.87161027       2.22857929
Si       1.02107098       3.60028831       0.49223285
Si       2.22209627       3.70373825       0.72875996
Si      -3.81322082      -0.04702412       2.22390811
Si       0.11690518       5.72778739       2.58187948
Si      -3.33854308       1.85101387       2.33722063
Si       1.52438951       1.96411875       0.61331688
Si       1.92182265       2.45303312       0.30416599
14
Lattice="5.537736098119172 1.1402274257576714 -1.4276561714560239 -1.0889913923894914 4.862118860143881 2.3154047430601645 -5.221304503778668 -1.4901499784708931 2.000064080592914" Properties=species:S:1:pos:R:3 unique_starting_index=10 config_type=initial n_minim_iter=8 stress="102583251.08685979 -54828832.78533261 -79810365.26545928 -54828832.78533261 -85636031.93294737 81665956.44387162 -79810365.26545928 81665956.44387162 -94800877.01485133" pbc="T T T"
Si       1.56788315       3.82092239       1.94293813
Si      -1.20600553       1.14330822       1.28805399
Si       0.67154351       2.00615655       0.77866818
Si       1.32542419       5.68914202       2.79739840
Si      -3.29441333      -0.98427393       1.00914133
Si      -0.83695624       2.04326280       1.09161757
Si      -2.39807368       0.83049192       2.17341129
Si       1.08035874       3.49977528       0.47002173
Si       2.26480047       3.61646530       0.73983147
Si      -3.88037412      -0.06253293       2.13590496
Si       0.14098247       5.57245201       2.52758866
Si      -3.38389215       1.75895397       2.24383067
Si       1.54215352       1.93669110       0.64254508
Si       1.95262080       2.39010735       0.30947031
14
Lattice="5.586859053455539 1.1460914866981522 -1.3293031547223568 -1.0890188399329892 4.7224531546345405 2.267871756157758 -5.30083725296311 -1.4775331887063492 1.9185583349357471" Properties=species:S:1:pos:R:3 unique_starting_index=10 config_type=initial n_minim_iter=9 stress="110592524.070487 -32148525.3266402 -110534939.54114215 -32148525.3266402 -190012571.80762097 87109118.60735215 -110534939.54114215 87109118.60735215 -173805674.28245586" pbc="T T T"
Si       1.54831099       3.73333829       1.95882534
Si      -1.23346345       1.11401880       1.25185424
Si       0.66727566       1.95997900       0.77659130
Si       1.30364132       5.55531130       2.80813360
Si      -3.33275718      -0.97518384       0.95828704
Si      -0.83700454       1.97557735       1.07600295
Si      -2.45172185       0.79817545       2.14052108
Si       1.12373090       3.40282950       0.45829220
Si       2.28438307       3.52966866       0.76078070
Si      -3.94087353      -0.06740744       2.06923085
Si       0.14298915       5.42847213       2.50564510
Si      -3.43043172       1.67947040       2.17718468
Si       1.54692769       1.90975035       0.67818801
Si       1.96946337       2.32593728       0.32036603
14
Lattice="5.650195965714534 1.07340399898597 -1.197985875624712 -1.1876967378587782 4.676326919842506 2.2356850107959176 -5.386332906911865 -1.3900937445638835 1.79095097270219" Properties=species:S:1:pos:R:3 unique_starting_index=10 config_type=initial n_minim_iter=10 stress="180107158.72783673 -25133552.09181373 -189960837.61924878 -25133552.09181373 -261906510.49847832 137506493.35374004 -189960837.61924878 137506493.35374004 -271811630.31059885" pbc="T T T"
Si       1.47086055       3.68258415       1.97794737
Si      -1.28537640       1.12606210       1.20493968
Si       0.63248645       1.93705004       0.78057542
Si       1.18570764       5.49362844       2.83517165
Si      -3.37838751      -0.91872457       0.88776050
Si      -0.88601361       1.95448722       1.06780310
Si      -2.54001341       0.82680954       2.08513245
Si       1.10540157       3.33665180       0.47527026
Si       2.25576635       3.45298335       0.80224517
Si      -4.02077406       0.00588604       1.96877678
Si       0.03534286       5.37729690       2.50819674
Si      -3.53694886       1.68456954       2.09491697
Si       1.51117255       1.89509855       0.72566919
Si       1.96763340       2.25885477       0.34908771
14
Lattice="5.695237399191166 1.023859806413677 -1.0823338802499887 -1.269602854868642 4.649582736182443 2.195326281450422 -5.45639688014408 -1.3288240402405913 1.6803191120463148" Properties=species:S:1:pos:R:3 unique_starting_index=10 config_type=initial n_minim_iter=11 stress="284277916.55617326 -16411192.653116977 -269160717.4287136 -16411192.653116977 -282903028.35206336 191497153.33307108 -269160717.4287136 191497153.33307108 -338771832.2862078" pbc="T T T"
Si       1.39629347       3.65266059       1.98651224
Si      -1.32722675       1.13753906       1.16149687
Si       0.60257879       1.92438124       0.77842140
Si       1.07450121       5.46051222       2.84790001
Si      -3.41404419      -0.87888483       0.82754379
Si      -0.92936448       1.94120093       1.05457393
Si      -2.62032951       0.84939451       2.03563463
Si       1.09454210       3.29167031       0.48116319
Si       2.22797023       3.39861201       0.83097738
Si      -4.08699880       0.06133476       1.88041913
Si      -0.05892692       5.35357053       2.49808582
Si      -3.62598931       1.68858119       2.01597078
Si       1.47736820       1.89293718       0.76307731
Si       1.96127797       2.20966261       0.37065961
14
Lattice="5.7473395126527285 0.9674172877148085 -0.9707691630818617 -1.3646429655804797 4.632005709704287 2.1452746168918413 -5.531633471396488 -1.2628104913244362 1.572183454671767" Properties=species:S:1:pos:R:3 unique_starting_index=10 config_type=initial n_minim_iter=12 stress="446197180.39922184 -2275409.1546183433 -408686625.80287015 -2275409.1546183433 -319492155.08211213 284610377.4857358 -408686625.80287015 284610377.4857358 -486751957.56591076" pbc="T T T"
Si       1.31498439       3.62838155       1.98630636
Si      -1.37556495       1.15017776       1.11438906
Si       0.57053182       1.91231833       0.77115718
Si       0.94714221       5.43439338       2.84713802
Si      -3.45174243      -0.83932139       0.76746333
Si      -0.97689913       1.93427560       1.03796634
Si      -2.70728986       0.87674183       1.98261251
Si       1.08309026       3.24948298       0.47972284
Si       2.19267988       3.34738163       0.85192973
Si      -4.15633067       0.11939189       1.79009352
Si      -0.16244741       5.33649474       2.47493112
Si      -3.72776688       1.70225098       1.93444534
Si       1.44107457       1.89190382       0.79523652
Si       1.95380086       2.15996684       0.38634972
14
Lattice="5.747339512652738 0.9674172877148093 -0.9707691630818609 -1.3646429655804801 4.63200570970429 2.145274616891838 -5.531633471396496 -1.2628104913244356 1.5721834546717677" Properties=species:S:1:pos:R:3 unique_starting_index=10 config_type=initial n_minim_iter=13 stress="446197180.3992643 -2275409.1546094306 -408686625.8028556 -2275409.1546094306 -319492155.0820802 284610377.4857132 -408686625.8028556 284610377.4857132 -486751957.5658475" pbc="T T T"
Si       1.31498439       3.62838155       1.98630636
Si      -1.37556495       1.15017776       1.11438906
Si       0.57053182       1.91231833       0.77115718
Si       0.94714221       5.43439338       2.84713802
Si      -3.45174243      -0.83932139       0.76746333
Si      -0.97689913       1.93427560       1.03796634
Si      -2.70728986       0.87674183       1.98261251
Si       1.08309026       3.24948298       0.47972284
Si       2.19267988       3.34738163       0.85192973
Si      -4.15633067       0.11939189       1.79009352
Si      -0.16244741       5.33649474       2.47493112
Si      -3.72776688       1.70225098       1.93444534
Si       1.44107457       1.89190382       0.79523652
Si       1.95380086       2.15996684       0.38634972
14
Lattice="5.698889522875589 0.9383742232595889 -0.8779026839088052 -1.4062668179041555 4.727920739378243 2.1224818286967553 -5.489087906831416 -1.2190686655231213 1.4904094286682152" Properties=species:S:1:pos:R:3 unique_starting_index=10 config_type=initial n_minim_iter=14 stress="291987024.8842436 -34390631.70622185 -318438045.4455339 -34390631.70622185 -244324974.32597828 277270466.03576905 -318438045.4455339 277270466.03576905 -385512187.3783518" pbc="T T T"
Si       1.22696836       3.72013512       2.02392467
Si      -1.38300059       1.19334639       1.08458888
Si       0.55139033       1.94512397       0.78908542
Si       0.84331086       5.56520613       2.86254987
Si      -3.39168843      -0.82982978       0.70617250
Si      -0.99152110       1.97765340       1.03300153
Si      -2.71611040       0.94518137       1.94101175
Si       1.07479016       3.27208862       0.49961969
Si       2.13850341       3.38699217       0.89190874
Si      -4.14881945       0.18435566       1.72034731
Si      -0.22040239       5.45030258       2.47026082
Si      -3.71479014       1.76757546       1.88765254
Si       1.41382050       1.92007497       0.82657993
Si       1.91054734       2.18929904       0.41310780
14
Lattice="5.670966485181704 0.9524991109192821 -0.7795263326102908 -1.3987810134034757 4.80413642121826 2.0748694299485124 -5.466097957790111 -1.218135550323902 1.3998484701745206" Properties=species:S:1:pos:R:3 unique_starting_index=10 config_type=initial n_minim_iter=15 stress="253515185.2222429 -8167828.737363082 -254766137.58854127 -8167828.737363082 -124603854.19159491 290188208.8295342 -254766137.58854127 290188208.8295342 -346080766.9875117" pbc="T T T"
Si       1.18748160       3.82527940       2.04454702
Si      -1.37637435       1.22204344       1.04135416
Si       0.56156310       1.97481445       0.79387524
Si       0.81678791       5.69012100       2.84486785
Si      -3.34700619      -0.85875651       0.63696985
Si      -0.98801877       2.01011588       1.01984057
Si      -2.72108769       0.99170844       1.88764163
Si       1.09100445       3.29867385       0.51166997
Si       2.11983741       3.43503491       0.91855636
Si      -4.15827198       0.21880880       1.64952457
Si      -0.21204505       5.55375995       2.43798146
Si      -3.67221909       1.79521498       1.81151863
Si       1.40360534       1.96006656       0.84459432
Si       1.90296803       2.22459188       0.43707407
14
Lattice="5.644985364214306 0.9377621970614309 -0.6787520305758372 -1.4319745573323792 4.861753161661285 2.0554856305909515 -5.45079300375513 -1.1857548903643387 1.310006439963429" Properties=species:S:1:pos:R:3 unique_starting_index=10 config_type=initial n_minim_iter=16 stress="197941460.85388035 -36296591.132688284 -186657801.01973924 -36296591.132688284 -22195687.253594846 296678631.68479973 -186657801.01973924 296678631.68479973 -259446853.2939076" pbc="T T T"
Si       1.11502526       3.91160646       2.08934660
Si      -1.38560662       1.24764941       1.01344410
Si       0.55917271       1.99271029       0.80671902
Si       0.73949562       5.78397854       2.86864193
Si      -3.30896397      -0.87172117       0.56883724
Si      -1.00252446       2.04022857       1.01348534
Si      -2.75311143       1.04717500       1.85146482
Si       1.08538410       3.30341480       0.53502110
Si       2.08068177       3.45711925       0.96978982
Si      -4.18079965       0.27115231       1.58839712
Si      -0.25580204       5.63027409       2.43387322
Si      -3.65812443       1.83097078       1.74853876
Si       1.37680436       1.98663128       0.87815867
Si       1.88004993       2.23900890       0.47001873
14
Lattice="5.627806588027905 0.9337583690506377 -0.573416029542079 -1.4564323829281398 4.907993780890385 2.0352249195907746 -5.445184095015344 -1.1630678321594587 1.2163141709150214" Properties=species:S:1:pos:R:3 unique_starting_index=10 config_type=initial n_minim_iter=17 stress="134573904.44837403 -53943301.39244129 -119414873.92102489 -53943301.39244129 79164057.49915531 277690224.42906845 -119414873.92102489 277690224.42906845 -162939600.7109689" pbc="T T T"
Si       1.05311868       3.99531110       2.13068992
Si      -1.39414506       1.26623276       0.98820387
Si       0.56380810       2.00888547       0.82025676
Si       0.67380347       5.87187107       2.89649672
Si      -3.27846088      -0.89171955       0.50342999
Si      -1.01381963       2.06666826       1.00301790
Si      -2.78915029       1.09470609       1.81386315
Si       1.08960605       3.30278210       0.55653394
Si       2.05425904       3.47909732       1.01758844
Si      -4.20969638       0.31453954       1.51667114
Si      -0.29084953       5.69555585       2.43544222
Si      -3.64345241       1.85529364       1.69086480
Si       1.35573074       2.01293609       0.91032962
Si       1.86411117       2.25372330       0.50747613
14
Lattice="5.610975122225299 0.9301631070712745 -0.46385253418019257 -1.482330370449697 4.947437040036487 2.0400254914408182 -5.440916902982831 -1.1389800421033074 1.1188589453431552" Properties=species:S:1:pos:R:3 unique_starting_index=10 config_type=initial n_minim_iter=18 stress="38283758.788990974 -59823265.20009265 -68560105.62593201 -59823265.20009265 105077524.72388262 268726635.056886 -68560105.62593201 268726635.056886 -44314118.289200135" pbc="T T T"
Si       0.99223034       4.07275317       2.17919371
Si      -1.40764470       1.27776071       0.95867169
Si       0.57067160       2.02914305       0.83987279
Si       0.61135459       5.96042679       2.95942530
Si      -3.25163457      -0.90794156       0.44929816
Si      -1.02181775       2.09586784       1.01481377
Si      -2.83007583       1.13566856       1.78861908
Si       1.08782771       3.29080190       0.59023312
Si       2.02954177       3.49516833       1.07907371
Si      -4.23753598       0.35852265       1.45569173
Si      -0.33035946       5.75606036       2.47058471
Si      -3.63284337       1.87612585       1.63665267
Si       1.33458346       2.03867014       0.95788361
Si       1.84692922       2.26512151       0.55174932
14
Lattice="5.58502465066958 0.9202266790342231 -0.4112325293330711 -1.5179365896312604 4.9920950723594455 2.0007316299159004 -5.426326001925445 -1.1187640951794222 1.0744935270411426" Properties=species:S:1:pos:R:3 unique_starting_index=10 config_type=initial n_minim_iter=19 stress="-91591690.33351192 -61460528.05033815 -42158625.51613147 -61460528.05033815 177385322.62716225 242486402.73419255 -42158625.51613147 242486402.73419255 16673282.374939574" pbc="T T T"
Si       0.92054124       4.13837725       2.16452402
Si      -1.41325505       1.29399240       0.92335206
Si       0.56336081       2.05476346       0.83351088
Si       0.54319185       6.04322671       2.94799843
Si      -3.21720187      -0.92216873       0.43372434
Si      -1.04210423       2.12075354       1.01163529
Si      -2.86002144       1.16144506       1.76473747
Si       1.06853693       3.28384097       0.57648803
Si       1.99335617       3.52298313       1.09555579
Si      -4.26366879       0.38834296       1.41443953
Si      -0.38162739       5.80408455       2.42893067
Si      -3.61801649       1.90763888       1.59504135
Si       1.30349715       2.06387720       0.96710467
Si       1.82616822       2.27109541       0.55665016
14
Lattice="5.56415896074941 0.9165127417141712 -0.3283907933778711 -1.5464008207847133 5.035183058645904 1.9839309515144774 -5.417133132716711 -1.101032433877055 0.9998354843648082" Properties=species:S:1:pos:R:3 unique_starting_index=10 config_type=initial n_minim_iter=20 stress="-207458893.69144085 -68717326.70706712 -610039.1415105804 -68717326.70706712 226316342.97260666 240584659.87007603 -610039.1415105804 240584659.87007603 95711004.66550834" pbc="T T T"
Si       0.85495622       4.20787736       2.17823197
Si      -1.41365356       1.31285301       0.89050450
Si       0.55402360       2.08289775       0.84201922
Si       0.48039594       6.13391074       2.97767061
Si      -3.18525783      -0.93739778       0.39898098
Si      -1.06367389       2.14214626       1.01526376
Si      -2.88432522       1.18758183       1.73519373
Si       1.06003476       3.27278433       0.58363781
Si       1.96112128       3.55068135       1.14348753
Si      -4.28753412       0.41763266       1.35807938
Si      -0.42069058       5.85601372       2.41782089
Si      -3.60692646       1.93633417       1.54752436
Si       1.27733635       2.08856516       0.98701101
Si       1.80949517       2.28294685       0.59036646
14
Lattice="5.506400799655211 0.9212724437035499 -0.28973376139221085 -1.5472545660926096 5.063134030128969 1.9723426008211276 -5.368803064239739 -1.0958047473213097 0.9676782350984661" Properties=species:S:1:pos:R:3 unique_starting_index=10 config_type=initial n_minim_iter=21 stress="-339710744.93073535 -61761373.145612955 -13137658.98900469 -61761373.145612955 194477250.67994034 208566674.20846114 -13137658.98900469 208566674.20846114 123826857.47876981" pbc="T T T"
Si       0.80810563       4.25992425       2.18246313
Si      -1.40961932       1.32533009       0.88548314
Si       0.52648385       2.10075555       0.85142985
Si       0.43807223       6.21290435       2.99194492
Si      -3.13875015      -0.95469028       0.38614398
Si      -1.05862293       2.15443618       1.00517949
Si      -2.85712838       1.20447841       1.71717725
Si       1.05283175       3.25126839       0.58132654
Si       1.93420862       3.57005914       1.16717860
Si      -4.27441584       0.43848010       1.33880232
Si      -0.44330465       5.89411360       2.40609287
Si      -3.56262948       1.94548142       1.51953855
Si       1.24568843       2.11300181       1.00478743
Si       1.79247011       2.28803690       0.59614144
