20
Lattice="5.807943755720002 -3.5438240286019977e-16 -1.603688124199362e-14 2.8534569002300745e-16 4.676506805125312 -1.0241106689906239e-13 5.891942760543551e-14 4.67289828506403e-13 21.33835853042989" Properties=species:S:1:pos:R:3 unique_starting_index=4 config_type=initial n_minim_iter=1 energy=-3279.9567297074673 free_energy=-3279.9567297074673 pbc="T T T"
Si       2.69190638       3.55503368      12.67050570
Si       2.69190638       1.12147313       8.66785283
Si       3.62988015       1.19539104      11.41501078
Si       3.62988015       3.48111577       9.92334775
Si       3.11603738       1.21678027      19.33703210
Si       3.11603738       3.45972653       2.00132643
Si       2.17806361       3.53364444      20.59252702
Si       2.17806361       1.14286236       0.74583151
Si       2.94608624       3.45986319       4.65041341
Si       2.94608624       1.21664362      16.68794512
Si       3.03224649       3.54449221      18.03031053
Si       3.03224649       1.13201460       3.30804800
Si       2.86185751       1.12160979       6.01876585
Si       2.86185751       3.55489702      15.31959268
Si       2.77569727       1.20623881      13.97722727
Si       2.77569727       3.47026800       7.36113126
Si       4.20549270       3.53708127      20.45796582
Si       4.20549270       1.13942553       0.88039271
Si       1.60245106       3.47767893       9.78878656
Si       1.60245106       1.19882787      11.54957197
20
Lattice="5.807949467389889 -3.5438275136827293e-16 -1.6036897013043793e-14 2.8525601845997953e-16 4.67503718532941 -1.0247917638213935e-13 5.886682152909709e-14 4.664265578265042e-13 21.319306625762778" Properties=species:S:1:pos:R:3 unique_starting_index=4 config_type=initial n_minim_iter=2 stress="-0.0008840104077434258 -1.3370861196108843e-16 8.208674299247242e-17 -1.3370861196108843e-16 -0.0042052970968908575 1.0356738601853997e-16 8.208674299247242e-17 1.0356738601853997e-16 0.0013667281854608537" pbc="T T T"
Si       2.69189182       3.55391920      12.65923702
Si       2.69189182       1.12111799       8.66006961
Si       3.62986369       1.19498125      11.40487059
Si       3.62986369       3.48005593       9.91443603
Si       3.11605765       1.21640060      19.31972292
Si       3.11605765       3.45863658       1.99958370
Si       2.17808578       3.53249984      20.57408935
Si       2.17808578       1.14253734       0.74521728
Si       2.94611344       3.45883556       4.64623142
Si       2.94611344       1.21620163      16.67307521
Si       3.03225425       3.54339437      18.01417514
Si       3.03225425       1.13164282       3.30513148
Si       2.86183602       1.12131697       6.01342189
Si       2.86183602       3.55372022      15.30588473
Si       2.77569522       1.20587578      13.96478479
Si       2.77569522       3.46916141       7.35452183
Si       4.20542511       3.53594142      20.43978903
Si       4.20542511       1.13909576       0.87951760
Si       1.60252435       3.47661436       9.78013572
Si       1.60252435       1.19842283      11.53917091
20
Lattice="5.809219689272259 -3.544602562997559e-16 -1.6040404346850058e-14 2.855201382393884e-16 4.679365822449096 -1.0258493614711698e-13 5.88280400303271e-14 4.660671751726052e-13 21.305261453249678" Properties=species:S:1:pos:R:3 unique_starting_index=4 config_type=initial n_minim_iter=3 stress="-0.0005104657423023537 7.919541503954872e-18 -1.5182515875660536e-16 7.919541503954872e-18 0.00527117329588189 -5.655103766818003e-17 -1.5182515875660536e-16 -5.655103766818003e-17 -0.002018566539036838" pbc="T T T"
Si       2.69239575       3.55721941      12.65101898
Si       2.69239575       1.12214641       8.65424247
Si       3.63059474       1.19593631      11.39757735
Si       3.63059474       3.48342952       9.90768410
Si       3.11682394       1.21753650      19.30687320
Si       3.11682394       3.46182932       1.99838826
Si       2.17862495       3.53561922      20.56031483
Si       2.17862495       1.14374660       0.74494663
Si       2.94686281       3.46229659       4.64305412
Si       2.94686281       1.21706923      16.66220734
Si       3.03294096       3.54674544      18.00217594
Si       3.03294096       1.13262038       3.30308551
Si       2.86235688       1.12261368       6.00957661
Si       2.86235688       3.55675214      15.29568484
Si       2.77627873       1.20706253      13.95571624
Si       2.77627873       3.47230329       7.34954521
Si       4.20605701       3.53909231      20.42672576
Si       4.20605701       1.14027351       0.87853569
Si       1.60316268       3.47995642       9.77409503
Si       1.60316268       1.19940940      11.53116642
20
Lattice="5.892330478240834 -3.5953141441303605e-16 -1.626988967051642e-14 2.851926111639541e-16 4.673998008423221 -1.0248713870754034e-13 5.887544303889967e-14 4.663540444390807e-13 21.32242900618513" Properties=species:S:1:pos:R:3 unique_starting_index=4 config_type=initial n_minim_iter=4 stress="0.010975718592928592 -3.093481994092777e-17 -3.312318077097354e-16 -3.093481994092777e-17 -0.004790433923272392 -2.7564838792282777e-16 -3.312318077097354e-16 -2.7564838792282777e-16 -0.003517006898319535" pbc="T T T"
Si       2.72441031       3.55385655      12.66907206
Si       2.72441031       1.12014146       8.65335695
Si       3.67784648       1.18353581      11.42311090
Si       3.67784648       3.49046220       9.89931811
Si       3.16792017       1.21685755      19.31457145
Si       3.16792017       3.45714046       2.00785756
Si       2.21448400       3.52053481      20.56053261
Si       2.21448400       1.15346319       0.76189640
Si       2.99689804       3.47704695       4.63807152
Si       2.99689804       1.19695106      16.68435749
Si       3.07825667       3.54747733      18.00814023
Si       3.07825667       1.12652067       3.31428878
Si       2.89543244       1.14004795       6.02314299
Si       2.89543244       3.53395006      15.29928602
Si       2.81407381       1.21047833      13.97550328
Si       2.81407381       3.46351968       7.34692573
Si       4.24456494       3.52598308      20.47304416
Si       4.24456494       1.14801493       0.84938485
Si       1.64776554       3.48501393       9.81182965
Si       1.64776554       1.18898408      11.51059935
20
Lattice="5.842277021761934 -3.5647731042640936e-16 -1.613168217900741e-14 2.8531462376137424e-16 4.6759976627446225 -1.0253998747254376e-13 5.889998524577133e-14 4.665073551506803e-13 21.33131725290846" Properties=species:S:1:pos:R:3 unique_starting_index=4 config_type=initial n_minim_iter=5 stress="-0.002101908941097519 6.620502173966612e-17 -7.0110641727186e-16 6.620502173966612e-17 -0.004769455485718605 8.382794119554847e-18 -7.0110641727186e-16 8.382794119554847e-18 -0.004319617778858493" pbc="T T T"
Si       2.69984577       3.55495423      12.67517640
Si       2.69984577       1.12104343       8.65614085
Si       3.64502362       1.18159298      11.43156621
Si       3.64502362       3.49440468       9.89975104
Si       3.14243126       1.21695540      19.32179948
Si       3.14243126       3.45904226       2.00951778
Si       2.19725340       3.51959182      20.56540966
Si       2.19725340       1.15640585       0.76590759
Si       2.97306688       3.48092008       4.63959928
Si       2.97306688       1.19507758      16.69171797
Si       3.05311073       3.54767964      18.01457817
Si       3.05311073       1.12831803       3.31673908
Si       2.86921015       1.14292125       6.02605935
Si       2.86921015       3.53307641      15.30525791
Si       2.78916629       1.20968080      13.98239771
Si       2.78916629       3.46631686       7.34891954
Si       4.20237632       3.52549769      20.48924667
Si       4.20237632       1.15049997       0.84207058
Si       1.63990070       3.48849880       9.82358804
Si       1.63990070       1.18749886      11.50772921
20
Lattice="5.86678290699752 -3.5797258222298134e-16 -1.6199347774230512e-14 2.8541698980993857e-16 4.677675331409204 -1.025781417689852e-13 5.884869973215648e-14 4.66093370526895e-13 21.312743605447743" Properties=species:S:1:pos:R:3 unique_starting_index=4 config_type=initial n_minim_iter=6 stress="3.9356835394163324e-05 -9.431655350766811e-17 -3.6445339921453634e-16 -9.431655350766811e-17 0.004137637850687339 1.0658363732237613e-16 -3.6445339921453634e-16 1.0658363732237613e-16 -0.001373140780597075" pbc="T T T"
Si       2.70735805       3.55029025      12.66043498
Si       2.70735805       1.12738508       8.65230862
Si       3.66119896       1.17767718      11.42893046
Si       3.66119896       3.49999816       9.88381314
Si       3.15942486       1.21145258      19.30868043
Si       3.15942486       3.46622275       2.00406318
Si       2.20558395       3.51651484      20.54018494
Si       2.20558395       1.16116049       0.77255866
Si       2.98757245       3.47283481       4.64578239
Si       2.98757245       1.20484052      16.66696121
Si       3.07233732       3.52777505      18.00285016
Si       3.07233732       1.14990029       3.30989345
Si       2.87921046       1.13399715       6.01058941
Si       2.87921046       3.54367819      15.30215420
Si       2.79444559       1.18893738      13.96626525
Si       2.79444559       3.48873795       7.34647835
Si       4.20430821       3.52309941      20.49411919
Si       4.20430821       1.15457592       0.81862442
Si       1.66247470       3.49341358       9.83774738
Si       1.66247470       1.18426175      11.47499622
20
Lattice="5.859687953569026 -3.5753967055063674e-16 -1.617975720477326e-14 2.853536812363981e-16 4.676637772457598 -1.0255123331906936e-13 5.883993884956575e-14 4.660430355733084e-13 21.309570749543308" Properties=species:S:1:pos:R:3 unique_starting_index=4 config_type=initial n_minim_iter=7 stress="-0.0003998559113234157 3.5124629596604164e-17 -1.7186828230219304e-16 3.5124629596604164e-17 0.0017752225393373306 5.255861354252352e-16 -1.7186828230219304e-16 5.255861354252352e-16 0.0008323807393413766" pbc="T T T"
Si       2.70529626       3.54480226      12.65568811
Si       2.70529626       1.13183551       8.65388264
Si       3.66187958       1.17854529      11.42533482
Si       3.66187958       3.49809248       9.88423593
Si       3.15439169       1.20648337      19.30866801
Si       3.15439169       3.47015440       2.00090274
Si       2.19780837       3.51686418      20.53902130
Si       2.19780837       1.15977359       0.77054945
Si       2.98270486       3.47674885       4.64009254
Si       2.98270486       1.19988892      16.66947821
Si       3.07253086       3.53211352      18.00230932
Si       3.07253086       1.14452425       3.30726142
Si       2.87698310       1.13842997       6.01469283
Si       2.87698310       3.53820781      15.29487792
Si       2.78715709       1.19379464      13.96204680
Si       2.78715709       3.48284314       7.34752395
Si       4.19963896       3.52283968      20.49212180
Si       4.19963896       1.15379809       0.81744895
Si       1.66004899       3.49211698       9.83733642
Si       1.66004899       1.18452079      11.47223433
20
Lattice="5.854777406526515 -3.572400444637672e-16 -1.6166198213318438e-14 2.8527053788888733e-16 4.675275143043411 -1.0250579078452998e-13 5.881960505425978e-14 4.65952924391991e-13 21.30220662819732" Properties=species:S:1:pos:R:3 unique_starting_index=4 config_type=initial n_minim_iter=8 stress="-0.00015210623289502097 1.686234387800529e-17 -2.4295103219008894e-16 1.686234387800529e-17 -0.0009257012438803083 2.4823464593873703e-16 -2.4295103219008894e-16 2.4823464593873703e-16 0.00017931967278197268" pbc="T T T"
Si       2.70327099       3.53670922      12.64823744
Si       2.70327099       1.13856592       8.65396919
Si       3.66796414       1.17823598      11.42244244
Si       3.66796414       3.49703916       9.87976419
Si       3.15150642       1.19907165      19.30507250
Si       3.15150642       3.47620349       1.99713412
Si       2.18681327       3.51587355      20.53086750
Si       2.18681327       1.15940159       0.77133912
Si       2.97955064       3.48164025       4.63634976
Si       2.97955064       1.19363490      16.66585687
Si       3.07635332       3.53036515      17.99495625
Si       3.07635332       1.14490999       3.30725038
Si       2.87522677       1.14400268       6.01475356
Si       2.87522677       3.53127247      15.28745307
Si       2.77842409       1.19272758      13.95835369
Si       2.77842409       3.48254757       7.34385294
Si       4.19145886       3.52099780      20.49293112
Si       4.19145886       1.15427734       0.80927551
Si       1.66331855       3.49191492       9.84182780
Si       1.66331855       1.18336023      11.46037882
20
Lattice="5.843055377588272 -3.5652480324307896e-16 -1.6133831373365375e-14 2.8524103554057067e-16 4.67479163150813 -1.0251151762384924e-13 5.880067558513909e-14 4.657282289735699e-13 21.29535109997337" Properties=species:S:1:pos:R:3 unique_starting_index=4 config_type=initial n_minim_iter=9 stress="-5.4900209100812226e-05 4.7468379638106904e-17 2.3209016629741987e-16 4.7468379638106904e-17 -0.0014052862602593299 4.858433538734229e-16 2.3209016629741987e-16 4.858433538734229e-16 -2.9034861316114497e-05" pbc="T T T"
Si       2.69829314       3.52764848      12.64279350
Si       2.69829314       1.14714316       8.65255760
Si       3.67466593       1.17794118      11.42109236
Si       3.67466593       3.49685045       9.87425874
Si       3.14476224       1.19025266      19.30023315
Si       3.14476224       3.48453897       1.99511795
Si       2.16838945       3.51533700      20.52193429
Si       2.16838945       1.15945463       0.77341681
Si       2.97328048       3.48771182       4.63340737
Si       2.97328048       1.18707981      16.66194373
Si       3.07687040       3.52468354      17.98914970
Si       3.07687040       1.15010809       3.30620140
Si       2.86977490       1.15031601       6.01426818
Si       2.86977490       3.52447563      15.28108292
Si       2.76618498       1.18728772      13.95387695
Si       2.76618498       3.48750391       7.34147415
Si       4.17670395       3.51891397      20.49543163
Si       4.17670395       1.15587767       0.79991947
Si       1.66635143       3.49327348       9.84775608
Si       1.66635143       1.18151815      11.44759502
20
Lattice="5.8300734021148735 -3.557326840601746e-16 -1.6097985571871813e-14 2.852232360733567e-16 4.6744999175188715 -1.0251019060355153e-13 5.879138264767568e-14 4.656313699637193e-13 21.291985554185604" Properties=species:S:1:pos:R:3 unique_starting_index=4 config_type=initial n_minim_iter=10 stress="4.570404972343571e-05 1.1552194970328567e-16 2.908228162914867e-16 1.1552194970328567e-16 -0.0010585635237646855 2.460274926965891e-16 2.908228162914867e-16 2.460274926965891e-16 0.0003166279974890156" pbc="T T T"
Si       2.69301938       3.52056445      12.64055615
Si       2.69301938       1.15393547       8.65142941
Si       3.68083039       1.17719785      11.42225713
Si       3.68083039       3.49730207       9.86972842
Si       3.13705402       1.18331449      19.29742218
Si       3.13705402       3.49118543       1.99456337
Si       2.14924301       3.51444781      20.51572120
Si       2.14924301       1.16005211       0.77626435
Si       2.96676876       3.49370562       4.63447070
Si       2.96676876       1.18079430      16.65751485
Si       3.07272935       3.51875824      17.98589930
Si       3.07272935       1.15574168       3.30608626
Si       2.86330464       1.15645566       6.01152207
Si       2.86330464       3.51804426      15.28046348
Si       2.75734406       1.18150828      13.95207903
Si       2.75734406       3.49299164       7.33990652
Si       4.16154369       3.51603149      20.49705671
Si       4.16154369       1.15846842       0.79492884
Si       1.66852972       3.49571838       9.85106394
Si       1.66852972       1.17878154      11.44092162
20
Lattice="5.816915571799739 -3.549298347696813e-16 -1.6061654200384565e-14 2.852571210281433e-16 4.67505525522745 -1.0251430189284214e-13 5.87872646860297e-14 4.656353229534024e-13 21.2904941863026" Properties=species:S:1:pos:R:3 unique_starting_index=4 config_type=initial n_minim_iter=11 stress="-0.0012034823515143134 4.4421068495478024e-17 5.430480117812223e-16 4.4421068495478024e-17 -0.001050037776878245 -2.617924781371164e-16 5.430480117812223e-16 -2.617924781371164e-16 -0.0007698015003130101" pbc="T T T"
Si       2.68847177       3.51475876      12.64088360
Si       2.68847177       1.16029650       8.64961058
Si       3.68759506       1.17553984      11.42531261
Si       3.68759506       3.49951541       9.86518158
Si       3.12844380       1.17723113      19.29485767
Si       3.12844380       3.49782412       1.99563651
Si       2.12932051       3.51306747      20.51042867
Si       2.12932051       1.16198779       0.78006551
Si       2.96078608       3.49930571       4.63375771
Si       2.96078608       1.17574955      16.65673648
Si       3.06452798       3.51174555      17.98479821
Si       3.06452798       1.16330970       3.30569598
Si       2.85612949       1.16177808       6.01148939
Si       2.85612949       3.51327718      15.27900480
Si       2.75238759       1.17421793      13.95094307
Si       2.75238759       3.50083733       7.33955112
Si       4.14472663       3.51237714      20.49748836
Si       4.14472663       1.16267811       0.79300583
Si       1.67218894       3.50020574       9.85224127
Si       1.67218894       1.17484952      11.43825292
20
Lattice="5.826872506823531 -3.5553737552890085e-16 -1.6089147266988992e-14 2.8532475286592077e-16 4.676163667797423 -1.025471934495776e-13 5.879290166222055e-14 4.656406208789386e-13 21.292535683035958" Properties=species:S:1:pos:R:3 unique_starting_index=4 config_type=initial n_minim_iter=12 stress="0.0026015086913059103 1.1761938083328676e-16 -7.884149360175167e-17 1.1761938083328676e-16 0.002258325536335041 4.935068461380883e-17 -7.884149360175167e-17 4.935068461380883e-17 0.0006286081453083657" pbc="T T T"
Si       2.69867125       3.51013812      12.64373014
Si       2.69867125       1.16602554       8.64880554
Si       3.70649317       1.17106147      11.43117414
Si       3.70649317       3.50510220       9.86136154
Si       3.12820126       1.17205629      19.29507339
Si       3.12820126       3.50410738       1.99746230
Si       2.12037934       3.50914330      20.50762938
Si       2.12037934       1.16702037       0.78490630
Si       2.96656047       3.50598369       4.63753749
Si       2.96656047       1.17017998      16.65499819
Si       3.05957448       3.50660420      17.98801056
Si       3.05957448       1.16955947       3.30452512
Si       2.86031204       1.16790186       6.00873035
Si       2.86031204       3.50826181      15.28380533
Si       2.76729803       1.16852237      13.95079296
Si       2.76729803       3.50764130       7.34174272
Si       4.13912367       3.50648903      20.49521163
Si       4.13912367       1.16967464       0.79732405
Si       1.68774884       3.50775647       9.84894379
Si       1.68774884       1.16840720      11.44359189
20
Lattice="5.811757412179753 -3.5461510014459715e-16 -1.6047411501637442e-14 2.853927122461314e-16 4.677277448433117 -1.0256709878221645e-13 5.880869323017457e-14 4.657863518593866e-13 21.298254783720665" Properties=species:S:1:pos:R:3 unique_starting_index=4 config_type=initial n_minim_iter=13 stress="-0.0039264277532387705 -1.6983041422440028e-17 -1.817916529961682e-16 -1.6983041422440028e-17 0.0005703536847863563 2.3685170401570914e-16 -1.817916529961682e-16 2.3685170401570914e-16 0.00011392718045313205" pbc="T T T"
Si       2.71115247       3.49983235      12.64450605
Si       2.71115247       1.17744510       8.65374873
Si       3.71464914       1.16462010      11.43484174
Si       3.71464914       3.51265735       9.86341305
Si       3.10060494       1.16119363      19.30287613
Si       3.10060494       3.51608382       1.99537866
Si       2.09710827       3.50325882      20.51254044
Si       2.09710827       1.17401863       0.78571434
Si       2.95468830       3.51287142       4.63480374
Si       2.95468830       1.16440602      16.66345104
Si       3.03208783       3.50143691      17.99486813
Si       3.03208783       1.17584054       3.30338665
Si       2.85706911       1.17423270       6.01432365
Si       2.85706911       3.50304475      15.28393113
Si       2.77966958       1.16279818      13.95251404
Si       2.77966958       3.51447927       7.34574074
Si       4.10950836       3.49972969      20.48899865
Si       4.10950836       1.17754776       0.80925613
Si       1.70224905       3.51618649       9.83987126
Si       1.70224905       1.16109096      11.45838352
20
Lattice="5.839091992629399 -3.562829699980854e-16 -1.6122887683726666e-14 2.853337481699761e-16 4.676311091088188 -1.0254619845733626e-13 5.881304009641826e-14 4.65819807601314e-13 21.29982905207597" Properties=species:S:1:pos:R:3 unique_starting_index=4 config_type=initial n_minim_iter=14 stress="0.0012123962997436018 -1.452859291565417e-17 -1.6874762323877035e-16 -1.452859291565417e-17 -0.0011269203357086445 -3.371134645245118e-16 -1.6874762323877035e-16 -3.371134645245118e-16 -0.00026329235818842747" pbc="T T T"
Si       2.74737494       3.49056521      12.64276653
Si       2.74737494       1.18574588       8.65706253
Si       3.74185437       1.15921514      11.43245929
Si       3.74185437       3.51709595       9.86736977
Si       3.09171705       1.15240967      19.30697705
Si       3.09171705       3.52390142       1.99285200
Si       2.09723762       3.49737069      20.51728429
Si       2.09723762       1.17894040       0.78254476
Si       2.96171700       3.51995708       4.63292079
Si       2.96171700       1.15635401      16.66690826
Si       3.03220104       3.49704930      17.99704618
Si       3.03220104       1.17926179       3.30278287
Si       2.87737499       1.18180154       6.01699374
Si       2.87737499       3.49450955      15.28283531
Si       2.80689096       1.15889376      13.95269740
Si       2.80689096       3.51741733       7.34713166
Si       4.10746529       3.49560130      20.49067452
Si       4.10746529       1.18070979       0.80915453
Si       1.73162670       3.51886534       9.84075999
Si       1.73162670       1.15744576      11.45906906
20
Lattice="5.840169715075782 -3.5634872922135425e-16 -1.6125863488522894e-14 2.8529417366263394e-16 4.675662507775508 -1.0254191920263967e-13 5.881818147642009e-14 4.658154430268671e-13 21.30169106286391" Properties=species:S:1:pos:R:3 unique_starting_index=4 config_type=initial n_minim_iter=15 stress="0.0016473624512329758 1.258668764452846e-16 4.909061674660682e-16 1.258668764452846e-16 -0.00235038244336663 -6.045665962086979e-16 4.909061674660682e-16 -6.045665962086979e-16 0.00030855072776154167" pbc="T T T"
Si       2.77286592       3.47649022      12.64259754
Si       2.77286592       1.19917229       8.65909352
Si       3.76793511       1.15445774      11.43215481
Si       3.76793511       3.52120477       9.86953625
Si       3.06730380       1.13865897      19.30993905
Si       3.06730380       3.53700354       1.99175201
Si       2.07223460       3.49228899      20.52038179
Si       2.07223460       1.18337351       0.78130928
Si       2.95506220       3.53203285       4.63527117
Si       2.95506220       1.14362966      16.66641989
Si       3.02074720       3.48786358      17.99887128
Si       3.02074720       1.18779893       3.30281979
Si       2.88510752       1.19420159       6.01557436
Si       2.88510752       3.48146091      15.28611670
Si       2.81942251       1.15003233      13.95366532
Si       2.81942251       3.52563018       7.34802575
Si       4.08337666       3.49050984      20.49768591
Si       4.08337666       1.18515267       0.80400515
Si       1.75679305       3.52298392       9.84684038
Si       1.75679305       1.15267859      11.45485068
20
Lattice="5.835009959507753 -3.560338972165559e-16 -1.6111616383047628e-14 2.853467224338468e-16 4.67652372522077 -1.0255705986833152e-13 5.883437115475654e-14 4.659608784875109e-13 21.307554343871146" Properties=species:S:1:pos:R:3 unique_starting_index=4 config_type=initial n_minim_iter=16 stress="0.0009709654016633915 -5.52730674704927e-17 -1.9094657876020365e-16 -5.52730674704927e-17 -0.00033729416120811763 -1.1161782261427704e-15 -1.9094657876020365e-16 -1.1161782261427704e-15 0.0005858679968071689" pbc="T T T"
Si       2.79241449       3.46848156      12.64802136
Si       2.79241449       1.20804217       8.65953298
Si       3.78708433       1.15256339      11.43443712
Si       3.78708433       3.52396033       9.87311723
Si       3.04259547       1.13021969      19.31331016
Si       3.04259547       3.54630403       1.99424419
Si       2.04792562       3.49082525      20.52689440
Si       2.04792562       1.18569847       0.78065994
Si       2.94652809       3.53992584       4.63682235
Si       2.94652809       1.13659788      16.67073200
Si       3.00642024       3.47997862      18.00274508
Si       3.00642024       1.19654511       3.30480926
Si       2.88848187       1.20166398       6.01695482
Si       2.88848187       3.47485975      15.29059952
Si       2.82858972       1.14171675      13.95858644
Si       2.82858972       3.53480697       7.34896791
Si       4.05994587       3.48874885      20.50826718
Si       4.05994587       1.18777487       0.79928716
Si       1.77506409       3.52603673       9.85449001
Si       1.77506409       1.15048699      11.45306433
20
Lattice="5.828674255209586 -3.5564731253057577e-16 -1.609412225058225e-14 2.853849569123875e-16 4.677150346912768 -1.0258189644829814e-13 5.884799484637225e-14 4.660182795678107e-13 21.31248832283223" Properties=species:S:1:pos:R:3 unique_starting_index=4 config_type=initial n_minim_iter=17 stress="-0.0002421089714368025 -1.237867839644853e-16 5.205135737875665e-16 -1.237867839644853e-16 0.002078618217284033 -1.7103953740721394e-15 5.205135737875665e-16 -1.7103953740721394e-15 0.0006929940865262135" pbc="T T T"
Si       2.79997577       3.47041426      12.65315374
Si       2.79997577       1.20673609       8.65933458
Si       3.79116411       1.15408832      11.43581463
Si       3.79116411       3.52306203       9.87667369
Si       3.02869849       1.13183909      19.31557874
Si       3.02869849       3.54531126       1.99690958
Si       2.03751015       3.49266350      20.53291785
Si       2.03751015       1.18448685       0.77957047
Si       2.94044091       3.53932424       4.63857828
Si       2.94044091       1.13782611      16.67391004
Si       2.99543030       3.47970832      18.00614729
Si       2.99543030       1.19744203       3.30634104
Si       2.88823334       1.20074907       6.01766588
Si       2.88823334       3.47640128      15.29482244
Si       2.83324396       1.14113315      13.96258520
Si       2.83324396       3.53601720       7.34990312
Si       4.04911088       3.49102264      20.51420288
Si       4.04911088       1.18612771       0.79828544
Si       1.77956338       3.52470288       9.85795872
Si       1.77956338       1.15244746      11.45452960
20
Lattice="5.8178078103859034 -3.549842763530351e-16 -1.606411784756295e-14 2.853735401495021e-16 4.6769632385344355 -1.0259921031353426e-13 5.887374481191774e-14 4.661251804054781e-13 21.32181397345865" Properties=species:S:1:pos:R:3 unique_starting_index=4 config_type=initial n_minim_iter=18 stress="-0.00307194164544974 -1.3838687335921318e-16 9.323308026530735e-16 -1.3838687335921318e-16 0.0013472966662096087 -1.3905067107507993e-15 9.323308026530735e-16 -1.3905067107507993e-15 -0.0007132086097289838" pbc="T T T"
Si       2.84089065       3.47165255      12.66168312
Si       2.84089065       1.20531069       8.66013086
Si       3.82919187       1.15557177      11.44083580
Si       3.82919187       3.52139146       9.88097818
Si       2.97691716       1.13317093      19.32103784
Si       2.97691716       3.54379231       2.00077613
Si       1.98861594       3.49405339      20.54188516
Si       1.98861594       1.18290985       0.77992881
Si       2.92401420       3.53720282       4.64057215
Si       2.92401420       1.13976042      16.68124182
Si       2.95239791       3.47741128      18.01340094
Si       2.95239791       1.19955195       3.30841303
Si       2.89379361       1.19872120       6.02033484
Si       2.89379361       3.47824204      15.30147914
Si       2.86540991       1.13892967      13.96932002
Si       2.86540991       3.53803357       7.35249396
Si       3.99872517       3.49272467      20.53109824
Si       3.99872517       1.18423856       0.79071573
Si       1.81908264       3.52272018       9.87019126
Si       1.81908264       1.15424305      11.45162272
20
Lattice="5.834814514345464 -3.560219717694181e-16 -1.611107672030491e-14 2.8529874224655516e-16 4.675737381917808 -1.0257314718104918e-13 5.883084832569286e-14 4.657810304157768e-13 21.306278510200396" Properties=species:S:1:pos:R:3 unique_starting_index=4 config_type=initial n_minim_iter=19 stress="0.0022150374510379336 8.639309987807146e-17 9.542186371693004e-16 8.639309987807146e-17 0.001413066238990563 -2.566993291344155e-16 9.542186371693004e-16 -2.566993291344155e-16 -0.00045389809573175775" pbc="T T T"
Si       2.88596711       3.49931366      12.64458376
Si       2.88596711       1.17642373       8.66169475
Si       3.88444774       1.16731410      11.43475654
Si       3.88444774       3.50842328       9.87152197
Si       2.94884740       1.16144496      19.31483400
Si       2.94884740       3.51429242       1.99144451
Si       1.95036678       3.50518279      20.52466123
Si       1.95036678       1.17055459       0.78161728
Si       2.92312920       3.51237552       4.63600493
Si       2.92312920       1.16336186      16.67027358
Si       2.92965305       3.50378419      18.00052949
Si       2.92965305       1.17195319       3.30574902
Si       2.91168531       1.17450683       6.01713433
Si       2.91168531       3.50123055      15.28914418
Si       2.90516147       1.16591550      13.95888828