14
Lattice="5.564536065512542 1.7444169481445488 -2.941348189765809 -0.3305472630442937 1.9101241859305644 1.3986779394352031 -5.512187914169709 -1.838914822495741 3.2688147733923336" Properties=species:S:1:pos:R:3 unique_starting_index=10 config_type=initial n_minim_iter=1 energy=-313627968227658.5 free_energy=-313627968227658.5 pbc="T T T"
Si       1.33340054       1.94836794       0.48168147
Si      -0.64971175      -0.08650439       0.99233978
Si       1.44126920       0.77115578      -0.28963722
Si       2.02307480       2.28711095       1.20188434
Si      -2.89392277      -1.09362585       1.79386391
Si      -0.96315864       1.03574436       0.95573901
Si      -3.00179143       0.08358631       2.56518260
Si       1.59804362       2.31667015      -0.79647580
Si       2.25462317       2.11191573      -0.44167097
Si      -3.60371266      -0.79903022       2.63171640
Si       1.36649525       2.49186538       0.84707952
Si      -3.52134564      -0.09064463       2.58517717
Si       1.54064793       1.44899890      -0.36566209
Si       2.41101775       1.24465802      -0.62760731
14
Lattice="5.484984438104448 1.7087804227495855 -2.8429038308756787 -0.3173464968018432 1.8329687451017924 1.3452832220013085 -5.4346096183425905 -1.7996219704809464 3.1581165270146903" Properties=species:S:1:pos:R:3 unique_starting_index=10 config_type=initial n_minim_iter=2 stress="141734126105773.28 -173714153184001.75 70380202510211.08 -173714153184001.75 854078972205104.8 13638980999693.93 70380202510211.08 13638980999693.93 901287396728048.8" pbc="T T T"
Si       1.32395623       1.88004896       0.45916908
Si      -0.64179456      -0.08749471       0.95662977
Si       1.42555306       0.75034013      -0.28238162
Si       1.99824221       2.20783572       1.15129285
Si      -2.85764998      -1.06877982       1.73333834
Si      -0.94227401       0.98960539       0.92066495
Si      -2.95924681       0.06092900       2.47488904
Si       1.58532716       2.23602413      -0.77161874
Si       2.22552133       2.04180793      -0.43064193
Si      -3.55105913      -0.78924617       2.54045262
Si       1.35804804       2.40205192       0.81031604
Si      -3.46761906      -0.10826512       2.49495863
Si       1.52555736       1.40190549      -0.35622019
Si       2.37535851       1.20898562      -0.60938891
14
Lattice="5.484984438104442 1.7087804227495844 -2.842903830875682 -0.31734649680184307 1.832968745101794 1.3452832220013073 -5.434609618342588 -1.799621970480945 3.158116527014694" Properties=species:S:1:pos:R:3 unique_starting_index=10 config_type=initial n_minim_iter=3 stress="141734126105701.88 -173714153184018.72 70380202510213.56 -173714153184018.72 854078972205110.8 13638980999694.143 70380202510213.56 13638980999694.143 901287396728061.5" pbc="T T T"
Si       1.32395623       1.88004896       0.45916908
Si      -0.64179456      -0.08749471       0.95662977
Si       1.42555306       0.75034013      -0.28238162
Si       1.99824221       2.20783572       1.15129285
Si      -2.85764998      -1.06877982       1.73333834
Si      -0.94227401       0.98960539       0.92066495
Si      -2.95924681       0.06092900       2.47488904
Si       1.58532716       2.23602413      -0.77161874
Si       2.22552133       2.04180793      -0.43064193
Si      -3.55105913      -0.78924617       2.54045262
Si       1.35804804       2.40205192       0.81031604
Si      -3.46761906      -0.10826512       2.49495863
Si       1.52555736       1.40190549      -0.35622019
Si       2.37535851       1.20898562      -0.60938891
14
Lattice="5.535112482378583 1.7259518425920788 -2.8834998827091267 -0.31573917908296495 1.8351601187225142 1.344336109384977 -5.497178995440394 -1.8156724391372012 3.199911697917153" Properties=species:S:1:pos:R:3 unique_starting_index=10 config_type=initial n_minim_iter=4 stress="42745344242722.64 -188385391397636.44 56178195953088.52 -188385391397636.44 900172534455294.1 8658608534589.911 56178195953088.52 8658608534589.911 954801729259117.0" pbc="T T T"
Si       1.32769660       1.88768502       0.44749962
Si      -0.67384152      -0.08770282       0.96688313
Si       1.43073439       0.75801828      -0.29900775
Si       1.95028771       2.21605353       1.15525244
Si      -2.89137887      -1.07738378       1.75624515
Si      -0.92777424       0.98772465       0.92044983
Si      -2.99441666       0.05228296       2.50275253
Si       1.66746983       2.24508026      -0.80708325
Si       2.25951494       2.05172720      -0.45530333
Si      -3.60333086      -0.79860816       2.56987810
Si       1.35824261       2.40940659       0.80347252
Si      -3.49546389      -0.11704244       2.51736656
Si       1.55139412       1.40887090      -0.37132721
Si       2.38210260       1.21710277      -0.62483971
14
Lattice="5.5872968575416575 1.6644981809889665 -2.8106115623388774 -0.29005070237370323 1.7786660620038888 1.3498977170536597 -5.55424274226751 -1.7512010729072955 3.1356953851345017" Properties=species:S:1:pos:R:3 unique_starting_index=10 config_type=initial n_minim_iter=5 stress="30791616901596.47 -203824450082113.94 44925608962572.586 -203824450082113.94 1021481560893152.6 13556404148737.102 44925608962572.586 13556404148737.102 1045106493922698.0" pbc="T T T"
Si       1.35425091       1.82453647       0.47818225
Si      -0.68468856      -0.08235922       0.97938121
Si       1.44341562       0.73596810      -0.28053547
Si       1.94704147       2.14334579       1.23326448
Si      -2.91903197      -1.03671580       1.72451966
Si      -0.91314662       0.95688278       0.89823688
Si      -3.00819668       0.05185257       2.48323738
Si       1.75236950       2.17434201      -0.81636023
Si       2.30945289       1.98709518      -0.42449616
Si      -3.64311969      -0.76910787       2.53761778
Si       1.38995808       2.33059262       0.84140041
Si      -3.50895824      -0.10756965       2.47569569
Si       1.58695400       1.36218525      -0.35137777
Si       2.40250768       1.17683649      -0.58161571
14
Lattice="5.642398065559003 1.595718709047764 -2.7017845609169733 -0.2825469554384197 1.786604686384012 1.3506642857788724 -5.614202607684859 -1.6787832637180788 3.0272631852222607" Properties=species:S:1:pos:R:3 unique_starting_index=10 config_type=initial n_minim_iter=6 stress="47156121055033.914 -195365636587994.97 37465614022010.55 -195365636587994.97 1062190836501715.2 10185058629514.365 37465614022010.55 10185058629514.365 1082030005094406.9" pbc="T T T"
Si       1.36847592       1.80946355       0.50966506
Si      -0.70053969      -0.06816827       0.97028954
Si       1.45706595       0.72540283      -0.25657833
Si       1.92640715       2.13342498       1.29223402
Si      -2.94869247      -0.99303654       1.66699723
Si      -0.90787232       0.96765983       0.88089412
Si      -3.03728250       0.09102417       2.43324062
Si       1.82503196       2.14838998      -0.79217062
Si       2.34661300       1.96303569      -0.37997980
Si      -3.68892651      -0.71917527       2.47009670
Si       1.40482611       2.31877927       0.88004319
Si      -3.53368810      -0.06011643       2.40835015
Si       1.61649279       1.34481966      -0.32058417
Si       2.41749327       1.15039061      -0.53001673
14
Lattice="5.744745247132326 1.432766339098242 -2.568568250470174 -0.30353811020731614 1.8116845675973803 1.346513256559444 -5.728889929626909 -1.5102362685994517 2.892165913114139" Properties=species:S:1:pos:R:3 unique_starting_index=10 config_type=initial n_minim_iter=7 stress="-11586260199935.887 -208371643822717.7 8989788296638.834 -208371643822717.7 1132176589776621.8 -443183442183.094 8989788296638.834 -443183442183.094 1156094447918711.2" pbc="T T T"
Si       1.37285293       1.77031179       0.54455935
Si      -0.71710339      -0.04323692       0.96653869
Si       1.47794081       0.70270024      -0.23039159
Si       1.87298254       2.11606631       1.35046077
Si      -3.01290984      -0.88594484       1.59286415
Si      -0.93880885       1.00507380       0.84728714
Si      -3.11799773       0.18166671       2.36781509
Si       1.91231237       2.09022148      -0.75868993
Si       2.38633020       1.91254959      -0.32820011
Si      -3.78213227      -0.59865228       2.38326215
Si       1.39896471       2.29373820       0.91997095
Si      -3.60266990       0.05025289       2.32272960
Si       1.65195871       1.30443789      -0.28761840
Si       2.43687430       1.09016533      -0.46712402
14
Lattice="5.839471327788729 1.2841086243723296 -2.4007607337363845 -0.31123486819769547 1.8452545741541422 1.345179341885196 -5.835999741821946 -1.3547303776243516 2.722001315989886" Properties=species:S:1:pos:R:3 unique_starting_index=10 config_type=initial n_minim_iter=8 stress="-72147584531265.14 -209754704746412.12 -27848358061187.09 -209754704746412.12 1211560968295703.2 -6273940526751.852 -27848358061187.09 -6273940526751.852 1241114676875059.5" pbc="T T T"
Si       1.38787898       1.73999775       0.59065897
Si      -0.74476835      -0.02162754       0.96272209
Si       1.50205571       0.68581178      -0.19500963
Si       1.83359931       2.11918859       1.42073202
Si      -3.07596558      -0.78301660       1.50027659
Si      -0.94678984       1.04923044       0.80697289
Si      -3.19014231       0.27116937       2.28594520
Si       2.00307897       2.03777751      -0.70661843
Si       2.43357157       1.87458928      -0.26014997
Si      -3.86595693      -0.48196515       2.27422721
Si       1.40310671       2.28237682       0.97426356
Si      -3.66160100       0.15483767       2.21746909
Si       1.69067354       1.27110192      -0.24193543
Si       2.45723960       1.04060960      -0.38913032
14
Lattice="5.920318201909764 1.155815222857622 -2.1979216937176584 -0.3125997114365673 1.8762197414325457 1.316234981520977 -5.928932696561356 -1.2224642359814097 2.515462076375635" Properties=species:S:1:pos:R:3 unique_starting_index=10 config_type=initial n_minim_iter=9 stress="-178978942804107.28 -206242989099678.3 -81193132527180.2 -206242989099678.3 1293950975993653.2 -13665210203842.875 -81193132527180.2 -13665210203842.875 1324501180469500.2" pbc="T T T"
Si       1.40291138       1.70647510       0.62378306
Si      -0.77039279      -0.00565037       0.94488499
Si       1.52655632       0.67391643      -0.15871564
Si       1.79639705       2.11901038       1.47201171
Si      -3.13036245      -0.68823762       1.38918418
Si      -0.94844379       1.09053686       0.75054186
Si      -3.25400740       0.34432106       2.17168288
Si       2.09248486       1.99791108      -0.65827157
Si       2.48280213       1.84700433      -0.19633341
Si      -3.93921892      -0.38103958       2.13765891
Si       1.40607978       2.26991713       1.01007355
Si      -3.70855036       0.24346184       2.07323002
Si       1.72847767       1.24475772      -0.19817587
Si       2.47300395       0.99594400      -0.30431897
14
Lattice="6.005269713435336 0.9920242886807699 -2.0304578143773018 -0.3367544050036805 1.8997769661301127 1.2715108328399654 -6.0259127493438465 -1.0576366054868969 2.345004290330914" Properties=species:S:1:pos:R:3 unique_starting_index=10 config_type=initial n_minim_iter=10 stress="-251109985346863.97 -201620966110692.94 -149710734335049.44 -201620966110692.94 1358737481105461.5 -25652348838730.848 -149710734335049.44 -25652348838730.848 1394022734954867.5" pbc="T T T"
Si       1.40587276       1.65837996       0.63243174
Si      -0.80911682       0.01339409       0.93892681
Si       1.55413214       0.65022732      -0.13485322
Si       1.73224282       2.08438765       1.49568740
Si      -3.19072054      -0.57997178       1.30063555
Si      -0.95508792       1.13062640       0.67959400
Si      -3.33897992       0.42818086       2.06792051
Si       2.17206774       1.95143410      -0.63611357
Si       2.51283436       1.78813557      -0.15965066
Si      -4.02063627      -0.26038443       2.01574521
Si       1.39147620       2.24768619       1.01922450
Si      -3.76948123       0.34676832       1.94777989
Si       1.76170688       1.20692346      -0.17096838
Si       2.47935809       0.92912132      -0.24096862
14
Lattice="6.032337270206622 0.9106089804201922 -1.8027319605615326 -0.3207247647310505 1.9351731442695472 1.2213444956804433 -6.062320493723205 -0.9756283987945308 2.1127543973325373" Properties=species:S:1:pos:R:3 unique_starting_index=10 config_type=initial n_minim_iter=11 stress="-403031537686270.2 -176833715560663.72 -218190901111812.6 -176833715560663.72 1433674788188792.8 -29540156355828.094 -218190901111812.6 -29540156355828.094 1454775821074910.2" pbc="T T T"
Si       1.42595303       1.64090249       0.65073422
Si      -0.82464582       0.02603823       0.92883386
Si       1.57731723       0.65229626      -0.09456946
Si       1.69814866       2.08799431       1.52809719
Si      -3.21955576      -0.51470400       1.18099080
Si      -0.93897368       1.16517968       0.59286872
Si      -3.37091996       0.47390223       1.92629448
Si       2.24984435       1.94900572      -0.58778207
Si       2.54235250       1.76759205      -0.09900915
Si      -4.04984963      -0.18982446       1.84590142
Si       1.40564050       2.26940798       1.03932427
Si      -3.77609036       0.40541397       1.78855556
Si       1.79492516       1.20015321      -0.12610147
Si       2.47379261       0.90167368      -0.15492791
14
Lattice="6.0703443825628725 0.8193969787152756 -1.5967007645770737 -0.31439690668389797 1.9578541979743798 1.1577550817336175 -6.109002050807446 -0.8855614339715157 1.901261481581439" Properties=species:S:1:pos:R:3 unique_starting_index=10 config_type=initial n_minim_iter=12 stress="-543105298203526.2 -158715765669783.62 -298012081822644.25 -158715765669783.62 1488201002526274.2 -29856208033418.117 -298012081822644.25 -29856208033418.117 1473554457795855.8" pbc="T T T"
Si       1.43840666       1.61496385       0.64530886
Si      -0.84455342       0.01412074       0.91092863
Si       1.59205885       0.65364490      -0.05852002
Si       1.66182948       2.08033718       1.54001034
Si      -3.24977694      -0.45066913       1.07902372
Si      -0.92815919       1.21633844       0.50884323
Si      -3.40342912       0.51064983       1.78285260
Si       2.32140539       1.92737318      -0.55918416
Si       2.58607962       1.72239654      -0.05799108
Si      -4.08248709      -0.12200184       1.67604790
Si       1.39715525       2.28531382       1.03881726
Si      -3.79922757       0.46689959       1.64498545
Si       1.82820158       1.18298035      -0.09337698
Si       2.46943019       0.86687581      -0.08355193
14
Lattice="6.079674493953562 0.7565243893045912 -1.4092927028158628 -0.2986998264367358 1.9751212143084165 1.1002613366929468 -6.125397122760929 -0.8246778183425566 1.7103731264794686" Properties=species:S:1:pos:R:3 unique_starting_index=10 config_type=initial n_minim_iter=13 stress="-695113436839899.5 -140402233992782.42 -381405411323363.0 -140402233992782.42 1537327617724050.2 -30681567713597.867 -381405411323363.0 -30681567713597.867 1510111012486779.0" pbc="T T T"
Si       1.45434675       1.59313365       0.64724725
Si      -0.85747275      -0.01065474       0.89561905
Si       1.60919240       0.66408718      -0.02430447
Si       1.63028941       2.07850214       1.55439807
Si      -3.26687418      -0.40315398       0.98189256
Si      -0.90933206       1.26878785       0.43244034
Si      -3.42171983       0.52589250       1.65344429
Si       2.38388046       1.91127657      -0.53537004
Si       2.61461977       1.69009793      -0.01904143
Si      -4.09200256      -0.07561051       1.52248132
Si       1.39955009       2.29968078       1.03806946
Si      -3.80019937       0.50906579       1.51595119
Si       1.85780809       1.17472240      -0.06406002
Si       2.45506160       0.83993509      -0.01717329
14
Lattice="6.088359759149625 0.6916621295650419 -1.2539141163823269 -0.2888255557172921 1.9891362980660268 1.0507158508936683 -6.1399510340053265 -0.7615207597110956 1.5518034133052316" Properties=species:S:1:pos:R:3 unique_starting_index=10 config_type=initial n_minim_iter=14 stress="-820569351097843.1 -124949711645679.47 -456521169291998.0 -124949711645679.47 1564908490072389.0 -38293507481362.46 -456521169291998.0 -38293507481362.46 1537882480568121.5" pbc="T T T"
Si       1.46844001       1.57406168       0.66424704
Si      -0.86912887      -0.02177468       0.88941377
Si       1.63010517       0.66384509      -0.00357109
Si       1.60202476       2.08873770       1.55599936
Si      -3.28453602      -0.35991293       0.88410233
Si      -0.89537587       1.30578206       0.36104629
Si      -3.44620119       0.55030366       1.55192046
Si       2.43300470       1.87606810      -0.50873756
Si       2.65214828       1.64980678       0.00178567
Si      -4.10680777      -0.03186319       1.39182875
Si       1.38288118       2.31499903       1.04547613
Si      -3.79764801       0.55434981       1.41043473
Si       1.88200830       1.17129293      -0.04464675
Si       2.44184672       0.80437658       0.04119270
14
Lattice="6.0910133382636396 0.6408850561917574 -1.1210926107471164 -0.278837050407005 2.004995313761974 1.0037056316077484 -6.147723291869779 -0.7127762207583105 1.4155730550361916" Properties=species:S:1:pos:R:3 unique_starting_index=10 config_type=initial n_minim_iter=15 stress="-943178260762304.5 -109622540625195.66 -532223007597390.3 -109622540625195.66 1594729050199875.0 -48150572608909.586 -532223007597390.3 -48150572608909.586 1544111397452842.5" pbc="T T T"
Si       1.47613710       1.56491568       0.67792488
Si      -0.88139595      -0.02422509       0.87773854
Si       1.63443607       0.67726620       0.00492286
Si       1.57732243       2.11279649       1.54844039
Si      -3.29308315      -0.32922720       0.79684816
Si      -0.87884014       1.33180474       0.30255406
Si      -3.45138213       0.55842228       1.46985018
Si       2.47461776       1.84066353      -0.48553477
Si       2.66888363       1.62278080       0.00588625
Si      -4.09932321       0.00758446       1.27370016
Si       1.38305656       2.33067921       1.05701937
Si      -3.80863618       0.58721896       1.32216550
Si       1.89968822       1.16967901      -0.02528826
Si       2.43108902       0.77878569       0.08448825
14
Lattice="6.091044880790459 0.5859537229887446 -1.0347799308330767 -0.27455797269474985 2.0159104305706794 0.9866770034188345 -6.152163150491647 -0.6571954492308267 1.3283205194157397" Properties=species:S:1:pos:R:3 unique_starting_index=10 config_type=initial n_minim_iter=16 stress="-1000766012417785.8 -94198352861115.62 -591080277644764.1 -94198352861115.62 1612276796190505.0 -53155562325005.93 -591080277644764.1 -53155562325005.93 1563305790924989.5" pbc="T T T"
Si       1.47444361       1.55335854       0.70116424
Si      -0.88751687      -0.01726150       0.85842819
Si       1.64699001       0.67967377       0.01218689
Si       1.56355589       2.13021904       1.55792198
Si      -3.29480071      -0.29477674       0.73784938
Si      -0.87172196       1.34708503       0.28704484
Si      -3.46734711       0.57890804       1.42682673
Si       2.49369219       1.80146865      -0.46055188
Si       2.67848956       1.58018401       0.00835409
Si      -4.09992850       0.06790653       1.18877406
Si       1.37875851       2.35150368       1.08901601
Si      -3.81147348       0.60472155       1.28501949
Si       1.92340869       1.14399480       0.00362080
Si       2.40839736       0.77178245       0.10707230
14
Lattice="6.092992788728688 0.5562301423248949 -0.9502144362852282 -0.26754371922644016 2.0260871170674544 0.9526142594004332 -6.1569922973842175 -0.6294286487144136 1.241322896161127" Properties=species:S:1:pos:R:3 unique_starting_index=10 config_type=initial n_minim_iter=17 stress="-1070676365913071.4 -77093075827395.08 -635688968783505.2 -77093075827395.08 1612225211185613.0 -49365246154952.68 -635688968783505.2 -49365246154952.68 1555261865873578.5" pbc="T T T"
Si       1.47761568       1.54857710       0.71944286
Si      -0.89481190      -0.01353171       0.83892591
Si       1.65839253       0.70219294       0.02539130
Si       1.55412157       2.14707705       1.53697170
Si      -3.29752093      -0.27786705       0.66923414
Si      -0.86109384       1.35744026       0.25864263
Si      -3.47829777       0.56851710       1.36328570
Si       2.51542176       1.77914876      -0.43700334
Si       2.69550720       1.55848615       0.02150030
Si      -4.10518802       0.11572667       1.09694643
Si       1.37403614       2.36773966       1.07846806
Si      -3.80771002       0.59875324       1.24194500
Si       1.92916716       1.11463809       0.02693385
Si       2.40791989       0.78550061       0.12042025
14
Lattice="6.0918202447899015 0.5267051902280742 -0.8596921629991712 -0.25918482471709164 2.037443966376253 0.9135369123162468 -6.158701626942354 -0.6024639559828499 1.1481032311796022" Properties=species:S:1:pos:R:3 unique_starting_index=10 config_type=initial n_minim_iter=18 stress="-1146175998970639.5 -59599331275602.016 -690382429148378.0 -59599331275602.016 1626103696027149.2 -51311980343147.45 -690382429148378.0 -51311980343147.45 1569681777040904.2" pbc="T T T"
Si       1.47976834       1.54092835       0.74185360
Si      -0.90143368      -0.01260724       0.81792569
Si       1.66744148       0.72205032       0.03908625
Si       1.54353338       2.16576174       1.51048965
Si      -3.29743409      -0.25815982       0.59083873
Si      -0.84935069       1.37113454       0.22635557
Si      -3.48510723       0.56071821       1.29360608
Si       2.53831768       1.75691471      -0.41236364
Si       2.71114481       1.53222183       0.03812457
Si      -4.10183150       0.16722199       1.00209035
Si       1.37070624       2.39045462       1.06000144
Si      -3.80765450       0.58884135       1.19029414
Si       1.93621545       1.08172782       0.05164963
Si       2.40482043       0.80350467       0.13293947
14
Lattice="6.0908120323740365 0.5091961774840404 -0.7822030931616338 -0.25004845552326116 2.049167682591897 0.8771966260928651 -6.15989411582688 -0.5875210245843104 1.067607360039848" Properties=species:S:1:pos:R:3 unique_starting_index=10 config_type=initial n_minim_iter=19 stress="-1213956953960586.5 -43327166218066.29 -739993029842485.6 -43327166218066.29 1652002019372967.8 -58732254829665.55 -739993029842485.6 -58732254829665.55 1602533608641768.2" pbc="T T T"
Si       1.47678461       1.54551285       0.76292879
Si      -0.90612896      -0.01490242       0.79526012
Si       1.67022756       0.73058274       0.05219276
Si       1.54220742       2.17684296       1.48769456
Si      -3.29064709      -0.25342340       0.51862585
Si      -0.83865142       1.38531671       0.20089025
Si      -3.48409003       0.56150671       1.22936188
Si       2.55377577       1.75193520      -0.39655065
Si       2.72263735       1.52070303       0.05740769
Si      -4.09786900       0.20241553       0.90936515
Si       1.37334584       2.40807513       1.03373622
Si      -3.80680551       0.58047775       1.15439258
Si       1.94220209       1.07622682       0.07966912
Si       2.40382955       0.80338365       0.13427817
14
Lattice="6.089251612363786 0.49100902498939636 -0.7053946528974688 -0.2406302714542385 2.0611994536165 0.8412366358535103 -6.16053288295356 -0.5718944814996723 0.987825432155493" Properties=species:S:1:pos:R:3 unique_starting_index=10 config_type=initial n_minim_iter=20 stress="-1278981992705157.2 -27403071442371.066 -792574715582091.0 -27403071442371.066 1672346195902249.2 -51118271399509.97 -792574715582091.0 -51118271399509.97 1627011456669589.5" pbc="T T T"
Si       1.47357180       1.54982603       0.78328071
Si      -0.91068409      -0.01701504       0.77282548
Si       1.67306609       0.73916221       0.06496771
Si       1.54118538       2.18831041       1.46481317
Si      -3.28327931      -0.24800688       0.44764160
Si      -0.82774215       1.39971965       0.17566605
Si      -3.48277360       0.56265694       1.16595460
Si       2.56900973       1.74660268      -0.38047966
Si       2.73381792       1.50872996       0.07690475
Si      -4.09278145       0.23898490       0.81736177
Si       1.37637718       2.42618312       1.00742877
Si      -3.80617767       0.57182523       1.11895519
Si       1.94782787       1.07024521       0.10743533
Si       2.40299751       0.80346842       0.13566155
14
Lattice="6.093098258588178 0.4572689836161749 -0.6433490412590243 -0.23698232779835812 2.072409105770572 0.8235735438200955 -6.166441585584159 -0.538253144496732 0.9234864269853763" Properties=species:S:1:pos:R:3 unique_starting_index=10 config_type=initial n_minim_iter=21 stress="-1309110437868812.2 -10571254040154.008 -826976434219389.2 -10571254040154.008 1692196162898666.8 -46737041310271.555 -826976434219389.2 -46737041310271.555 1622165927185591.5" pbc="T T T"
Si       1.47228179       1.55115371       0.80847821
Si      -0.91499447      -0.01164655       0.75702525
Si       1.67928738       0.74003189       0.07401787
Si       1.53075506       2.19381490       1.47184503
Si      -3.28330809      -0.23264036       0.39024528
Si      -0.82268850       1.41114406       0.16156086
Si      -3.49031367       0.57848146       1.12470563
Si       2.58767790       1.73536069      -0.37303442
Si       2.74872819       1.49436876       0.09905130
Si      -4.08701418       0.29304089       0.74533089
Si       1.36970477       2.43480683       0.99975931
Si      -3.81711038       0.56820347       1.09674165
Si       1.94883315       1.05969119       0.12947467
Si       2.40658213       0.79707530       0.14576240
