20
Lattice="5.831042411206716 -3.557918099375604e-16 -1.6100661197597265e-14 2.8528528043661066e-16 4.675516757433138 -1.0258276209773615e-13 5.88513136070964e-14 4.67631136802959e-13 21.31369025077162" Properties=species:S:1:pos:R:3 unique_starting_index=4 config_type=initial n_minim_iter=1 energy=-3280.4680049218746 free_energy=-3280.4680049218746 pbc="T T T"
Si       2.91035802       3.50390108      12.64988624
Si       2.91035802       1.17161568       8.66380401
Si       3.91770921       1.16750765      11.44403040
Si       3.91770921       3.50800911       9.86965985
Si       2.92068439       1.16614270      19.32064914
Si       2.92068439       3.50937406       1.99304111
Si       1.91333320       3.50526603      20.52650498
Si       1.91333320       1.17025073       0.78718527
Si       2.91612648       3.50886378       4.63691833
Si       2.91612648       1.16665298      16.67677192
Si       2.91723520       3.50465379      18.00888997
Si       2.91723520       1.17086297       3.30480028
Si       2.91491594       1.17110540       6.01992680
Si       2.91491594       3.50441136      15.29376345
Si       2.91380721       1.16689541      13.96164540
Si       2.91380721       3.50862135       7.35204485
Si       3.92616383       3.50434641      20.52732749
Si       3.92616383       1.17117035       0.78636276
Si       1.90487859       3.50892873       9.87048236
Si       1.90487859       1.16658803      11.44320789
20
Lattice="5.830949026680204 -3.5578611190839743e-16 -1.6100403344452636e-14 2.8530414917817547e-16 4.675825995670883 -1.0260110929670525e-13 5.884387198777873e-14 4.67519967215957e-13 21.310995181462626" Properties=species:S:1:pos:R:3 unique_starting_index=4 config_type=initial n_minim_iter=2 stress="4.573053489289273e-05 -3.2684654067574744e-17 -3.294171263941473e-16 -3.2684654067574744e-17 -0.00033440061173255973 1.5723266698467746e-16 -3.294171263941473e-16 1.5723266698467746e-16 -0.0002421163355597461" pbc="T T T"
Si       2.91031946       3.50413352      12.64829571
Si       2.91031946       1.17169247       8.66269947
Si       3.91764275       1.16758682      11.44258460
Si       3.91764275       3.50823918       9.86841058
Si       2.92062957       1.16622052      19.31819707
Si       2.92062957       3.50960547       1.99279812
Si       1.91330628       3.50549981      20.52390817
Si       1.91330628       1.17032618       0.78708701
Si       2.91608209       3.50909518       4.63634303
Si       2.91608209       1.16673082      16.67465215
Si       2.91719585       3.50488552      18.00660415
Si       2.91719585       1.17094048       3.30439103
Si       2.91486694       1.17118218       6.01915456
Si       2.91486694       3.50464381      15.29184062
Si       2.91375318       1.16697252      13.95988862
Si       2.91375318       3.50885348       7.35110656
Si       3.92609789       3.50458401      20.52472487
Si       3.92609789       1.17124198       0.78627031
Si       1.90485113       3.50915498       9.86922728
Si       1.90485113       1.16667102      11.44176790
20
Lattice="5.830909988170046 -3.5578372990168175e-16 -1.610029555140615e-14 2.853162579663033e-16 4.67602444559343 -1.0260740828710262e-13 5.884436864444016e-14 4.675150447514912e-13 21.311175051470524" Properties=species:S:1:pos:R:3 unique_starting_index=4 config_type=initial n_minim_iter=3 stress="7.867276805710759e-05 -1.8768029141307964e-17 -5.296426491531319e-16 -1.8768029141307964e-17 0.000305683104572623 1.376053446561945e-16 -5.296426491531319e-16 1.376053446561945e-16 8.716087811079926e-05" pbc="T T T"
Si       2.91030768       3.50428291      12.64840832
Si       2.91030768       1.17174153       8.66276674
Si       3.91761364       1.16763824      11.44268218
Si       3.91761364       3.50838621       9.86849287
Si       2.92060231       1.16627069      19.31835426
Si       2.92060231       3.50975376       1.99282079
Si       1.91329635       3.50565046      20.52408040
Si       1.91329635       1.17037398       0.78709465
Si       2.91606478       3.50924347       4.63639263
Si       2.91606478       1.16678098      16.67478242
Si       2.91718339       3.50503423      18.00674966
Si       2.91718339       1.17099022       3.30442540
Si       2.91484521       1.17123124       6.01919490
Si       2.91484521       3.50479320      15.29198016
Si       2.91372660       1.16702200      13.96001292
Si       2.91372660       3.50900244       7.35116213
Si       3.92606935       3.50473835      20.52489162
Si       3.92606935       1.17128609       0.78628343
Si       1.90484064       3.50929832       9.86930409
Si       1.90484064       1.16672613      11.44187096
20
Lattice="5.828781044459611 -3.556538284736737e-16 -1.6094417116818777e-14 2.853113851047486e-16 4.6759445846702805 -1.0260624460260226e-13 5.884853444101984e-14 4.675454694664316e-13 21.312683743333196" Properties=species:S:1:pos:R:3 unique_starting_index=4 config_type=initial n_minim_iter=4 stress="-0.0007624496551854266 -7.555055237828976e-17 -3.5626314719899816e-16 -7.555055237828976e-17 9.001529925795315e-06 -2.2606296704558213e-16 -3.5626314719899816e-16 -2.2606296704558213e-16 6.496915109192045e-05" pbc="T T T"
Si       2.90960220       3.50425432      12.64958455
Si       2.90960220       1.17169026       8.66309919
Si       3.91604454       1.16770494      11.44354323
Si       3.91604454       3.50823965       9.86914052
Si       2.91917885       1.16628203      19.31944107
Si       2.91917885       3.50966255       1.99324268
Si       1.91273651       3.50567723      20.52548239
Si       1.91273651       1.17026736       0.78720135
Si       2.91510272       3.50915372       4.63718884
Si       2.91510272       1.16679086      16.67549490
Si       2.91644582       3.50497304      18.00773320
Si       2.91644582       1.17097154       3.30495054
Si       2.91367833       1.17118143       6.01915303
Si       2.91367833       3.50476315      15.29353071
Si       2.91233523       1.16700075      13.96129241
Si       2.91233523       3.50894383       7.35139133
Si       3.92452590       3.50493810      20.52603883
Si       3.92452590       1.17100649       0.78664491
Si       1.90425515       3.50897878       9.86969696
Si       1.90425515       1.16696580      11.44298679
20
Lattice="5.830775573705999 -3.557755283551873e-16 -1.6099924406490186e-14 2.8530436418836125e-16 4.675829519454956 -1.0260659635179488e-13 5.88497054677993e-14 4.675416609655588e-13 21.313107844351904" Properties=species:S:1:pos:R:3 unique_starting_index=4 config_type=initial n_minim_iter=5 stress="2.2506457955283803e-05 -8.615979981844224e-17 1.108170147468693e-16 -8.615979981844224e-17 -6.5007584143503995e-06 -3.5177237288936164e-16 1.108170147468693e-16 -3.5177237288936164e-16 -2.2463871011067032e-05" pbc="T T T"
Si       2.91093802       3.50420086      12.65012360
Si       2.91093802       1.17162866       8.66298424
Si       3.91727075       1.16775881      11.44381745
Si       3.91727075       3.50807071       9.86929040
Si       2.91983755       1.16628610      19.31953816
Si       2.91983755       3.50954342       1.99356968
Si       1.91350483       3.50567357      20.52584432
Si       1.91350483       1.17015595       0.78726352
Si       2.91619786       3.50903884       4.63766615
Si       2.91619786       1.16679068      16.67544169
Si       2.91775501       3.50489229      18.00782699
Si       2.91775501       1.17093723       3.30528085
Si       2.91457771       1.17112408       6.01888777
Si       2.91457771       3.50470544      15.29422008
Si       2.91302057       1.16697753      13.96183477
Si       2.91302057       3.50885199       7.35127307
Si       3.92577995       3.50510230      20.52615469
Si       3.92577995       1.17072722       0.78695316
Si       1.90499562       3.50864198       9.86960076
Si       1.90499562       1.16718754      11.44350708
20
Lattice="5.83063724012147 -3.557670876763269e-16 -1.6099542440107565e-14 2.853098858429345e-16 4.675920013392974 -1.026083089069494e-13 5.885289531886432e-14 4.675682543035429e-13 21.314263086153296" Properties=species:S:1:pos:R:3 unique_starting_index=4 config_type=initial n_minim_iter=6 stress="-7.431128162357899e-06 -5.938542237685817e-17 -9.094184585320845e-17 -5.938542237685817e-17 5.952818564398051e-06 -1.187342757669877e-16 -9.094184585320845e-17 -1.187342757669877e-16 -1.4251260457792554e-05" pbc="T T T"
Si       2.91135210       3.50437170      12.65127302
Si       2.91135210       1.17154831       8.66299007
Si       3.91704509       1.16789897      11.44449699
Si       3.91704509       3.50802104       9.86976609
Si       2.91928514       1.16641169      19.32012161
Si       2.91928514       3.50950832       1.99414148
Si       1.91359215       3.50585898      20.52689763
Si       1.91359215       1.17006103       0.78736545
Si       2.91626401       3.50905801       4.63750152
Si       2.91626401       1.16686201      16.67676157
Si       2.91811348       3.50508384      18.00879317
Si       2.91811348       1.17083617       3.30546992
Si       2.91437323       1.17109800       6.01963003
Si       2.91437323       3.50482201      15.29463306
Si       2.91252376       1.16712383      13.96260146
Si       2.91252376       3.50879618       7.35166162
Si       3.92554479       3.50558140      20.52679924
Si       3.92554479       1.17033861       0.78746385
Si       1.90509245       3.50829862       9.86966769
Si       1.90509245       1.16762140      11.44459539
20
Lattice="5.830795548832054 -3.5577674717435415e-16 -1.6099979561763353e-14 2.8531018614255006e-16 4.675924934978423 -1.0260837287962788e-13 5.885148396882989e-14 4.675572384902863e-13 21.313751949262286" Properties=species:S:1:pos:R:3 unique_starting_index=4 config_type=initial n_minim_iter=7 stress="1.2622828903662536e-06 -8.370587063113697e-17 6.113711723666917e-17 -8.370587063113697e-17 1.5228244108329772e-06 -7.476221638176708e-16 6.113711723666917e-17 -7.476221638176708e-16 1.333343579859075e-06" pbc="T T T"
Si       2.91147770       3.50447839      12.65079240
Si       2.91147770       1.17144655       8.66295955
Si       3.91717991       1.16792202      11.44421521
Si       3.91717991       3.50800291       9.86953674
Si       2.91931785       1.16651592      19.31983553
Si       2.91931785       3.50940902       1.99391642
Si       1.91361564       3.50588449      20.52641271
Si       1.91361564       1.17004045       0.78733924
Si       2.91634865       3.50896009       4.63746156
Si       2.91634865       1.16696485      16.67629039
Si       2.91820569       3.50516668      18.00854440
Si       2.91820569       1.17075826       3.30520755
Si       2.91444690       1.17099762       6.01941442
Si       2.91444690       3.50492731      15.29433753
Si       2.91258986       1.16720421      13.96208352
Si       2.91258986       3.50872072       7.35166843
Si       3.92561415       3.50570645      20.52619746
Si       3.92561415       1.17021848       0.78755449
Si       1.90518140       3.50818095       9.86932148
Si       1.90518140       1.16774399      11.44443047
20
Lattice="5.830916484456261 -3.557841262845695e-16 -1.6100313488937052e-14 2.853104745618438e-16 4.675929661858266 -1.0260825661698553e-13 5.885014892554761e-14 4.675476312287992e-13 21.313268447752353" Properties=species:S:1:pos:R:3 unique_starting_index=4 config_type=initial n_minim_iter=8 stress="4.060072809023935e-06 -1.1449786723768261e-17 -1.1004691377525569e-16 -1.1449786723768261e-17 -3.2284671524568743e-06 -5.71543023480439e-16 -1.1004691377525569e-16 -5.71543023480439e-16 7.107842200685772e-06" pbc="T T T"
Si       2.91161212       3.50473454      12.65028038
Si       2.91161212       1.17119512       8.66298807
Si       3.91735249       1.16797931      11.44396170
Si       3.91735249       3.50795035       9.86930675
Si       2.91930437       1.16676971      19.31962229
Si       2.91930437       3.50915995       1.99364616
Si       1.91356400       3.50594414      20.52594097
Si       1.91356400       1.16998552       0.78732747
Si       2.91640906       3.50874231       4.63736591
Si       2.91640906       1.16718735      16.67590254
Si       2.91824783       3.50536145      18.00820795
Si       2.91824783       1.17056821       3.30506050
Si       2.91450743       1.17077748       6.01926832
Si       2.91450743       3.50515218      15.29400013
Si       2.91266866       1.16739662      13.96169472
Si       2.91266866       3.50853304       7.35157373
Si       3.92563727       3.50594376      20.52551667
Si       3.92563727       1.16998590       0.78775178
Si       1.90527922       3.50795073       9.86888244
Si       1.90527922       1.16797893      11.44438601
