14
Lattice="5.910693684034351 0.8012792456889448 1.336302448047733 -0.22310931740587456 1.096479819181254 0.3919175489156382 -5.999625927422195 -0.9439307211987678 -1.1520344663142172" Properties=species:S:1:pos:R:3 unique_starting_index=10 config_type=initial n_minim_iter=1 energy=-6.255403858412076e+17 free_energy=-6.255403858412076e+17 pbc="T T T"
Si       1.04091160       0.92720830       1.47771086
Si      -0.83497563      -0.46747076      -0.02784990
Si       1.57604674      -0.19375486       0.88596348
Si       1.50061684      -0.41680838       1.50287726
Si      -2.81931537      -0.51914546      -1.24144633
Si      -0.85449590       1.01818508       0.07984644
Si      -3.35445051       0.60181770      -0.64969895
Si       2.49749599       2.86528176       0.27733928
Si       2.70279528       1.49640079       0.17289801
Si      -4.02018993      -0.56322867      -0.22614074
Si       1.29531756       0.95207259       1.60731853
Si      -3.66890753       0.17001227      -0.87389719
Si       2.04987998       0.13118643       0.41226179
Si       2.17134218       1.22080713       0.97603720
14
Lattice="5.811624453280494 0.7702830022058011 1.349586910362603 -0.21498321538207865 1.0536891364671181 0.37663606300563707 -5.897014086825686 -0.9072483706492831 -1.1726641455359028" Properties=species:S:1:pos:R:3 unique_starting_index=10 config_type=initial n_minim_iter=2 stress="1.4870430076830927e+18 -2.5313444756488348e+16 -1.7432706275488164e+18 -2.5313444756488348e+16 4.860929946235744e+18 -1.6703672716166358e+17 -1.7432706275488164e+18 -1.6703672716166358e+17 4.09013468516803e+18" pbc="T T T"
Si       1.03913212       0.89153883       1.43898730
Si      -0.81856195      -0.44896295      -0.03494939
Si       1.55725159      -0.18575185       0.87208619
Si       1.48829835      -0.39982025       1.46614551
Si      -2.78136009      -0.49929078      -1.22852283
Si      -0.83827638       0.97817637       0.06849109
Si      -3.29947956       0.57799990      -0.66162172
Si       2.45150455       2.75300580       0.29361916
Si       2.65138969       1.43769185       0.19386890
Si      -3.94584248      -0.54116350      -0.25885616
Si       1.28841321       0.91549371       1.56589578
Si      -3.60800994       0.16312854      -0.88026628
Si       2.01603277       0.12620056       0.41908777
Si       2.13875334       1.17329586       0.96404084
14
Lattice="5.811624453280502 0.7702830022058016 1.3495869103626044 -0.21498321538208068 1.0536891364671184 0.3766360630056364 -5.897014086825694 -0.907248370649284 -1.172664145535905" Properties=species:S:1:pos:R:3 unique_starting_index=10 config_type=initial n_minim_iter=3 stress="1.4870430076830198e+18 -2.531344475648987e+16 -1.7432706275488243e+18 -2.531344475648987e+16 4.860929946235655e+18 -1.670367271616737e+17 -1.7432706275488243e+18 -1.670367271616737e+17 4.0901346851679304e+18" pbc="T T T"
Si       1.03913212       0.89153883       1.43898730
Si      -0.81856195      -0.44896295      -0.03494939
Si       1.55725159      -0.18575185       0.87208619
Si       1.48829835      -0.39982025       1.46614551
Si      -2.78136009      -0.49929078      -1.22852283
Si      -0.83827638       0.97817637       0.06849109
Si      -3.29947956       0.57799990      -0.66162172
Si       2.45150455       2.75300580       0.29361916
Si       2.65138969       1.43769185       0.19386890
Si      -3.94584248      -0.54116350      -0.25885616
Si       1.28841321       0.91549371       1.56589578
Si      -3.60800994       0.16312854      -0.88026628
Si       2.01603277       0.12620056       0.41908777
Si       2.13875334       1.17329586       0.96404084
14
Lattice="5.811624453280509 0.770283002205802 1.3495869103626053 -0.21498321538208007 1.0536891364671188 0.37663606300563635 -5.897014086825701 -0.9072483706492842 -1.1726641455359061" Properties=species:S:1:pos:R:3 unique_starting_index=10 config_type=initial n_minim_iter=4 stress="1.487043007683375e+18 -2.531344475648163e+16 -1.7432706275487898e+18 -2.531344475648163e+16 4.860929946235964e+18 -1.670367271616721e+17 -1.7432706275487898e+18 -1.670367271616721e+17 4.09013468516826e+18" pbc="T T T"
Si       1.03913212       0.89153883       1.43898730
Si      -0.81856195      -0.44896295      -0.03494939
Si       1.55725159      -0.18575185       0.87208619
Si       1.48829835      -0.39982025       1.46614551
Si      -2.78136009      -0.49929078      -1.22852283
Si      -0.83827638       0.97817637       0.06849109
Si      -3.29947956       0.57799990      -0.66162172
Si       2.45150455       2.75300580       0.29361916
Si       2.65138969       1.43769185       0.19386890
Si      -3.94584248      -0.54116350      -0.25885616
Si       1.28841321       0.91549371       1.56589578
Si      -3.60800994       0.16312854      -0.88026628
Si       2.01603277       0.12620056       0.41908777
Si       2.13875334       1.17329586       0.96404084
14
Lattice="5.788696303397124 0.769193649532786 1.3371114844364314 -0.21046270573121703 1.0518690615258928 0.37621769772380736 -5.874234995352036 -0.905127837575377 -1.1589694088277667" Properties=species:S:1:pos:R:3 unique_starting_index=10 config_type=initial n_minim_iter=5 stress="1.530614881896201e+18 -2.846923884185582e+16 -1.8691248229182339e+18 -2.846923884185582e+16 5.181272850917926e+18 -1.6283093496391693e+17 -1.8691248229182339e+18 -1.6283093496391693e+17 4.356126997307826e+18" pbc="T T T"
Si       1.04418057       0.88836419       1.44498326
Si      -0.80801172      -0.44595617      -0.02864769
Si       1.55926478      -0.18433928       0.87764726
Si       1.51252119      -0.39491370       1.48205854
Si      -2.77750971      -0.49566209      -1.22988475
Si      -0.83977873       0.97459247       0.06560413
Si      -3.29259392       0.57704138      -0.66254874
Si       2.41792196       2.74461270       0.26822708
Si       2.62684347       1.43424062       0.17622849
Si      -3.91920578      -0.53857264      -0.24341260
Si       1.30359968       0.91545838       1.57405713
Si      -3.60281966       0.16208110      -0.87860037
Si       2.00963752       0.12722844       0.41541162
Si       2.13126834       1.17060150       0.95865630
14
Lattice="5.791790566159696 0.7820578782136427 1.3511264051359066 -0.20400914292257152 1.0357065806563217 0.37520189120858277 -5.877881749570566 -0.9174252341461689 -1.1703292131380798" Properties=species:S:1:pos:R:3 unique_starting_index=10 config_type=initial n_minim_iter=6 stress="2.046543415320265e+18 -3.0246447973835308e+16 -1.8021089314321503e+18 -3.0246447973835308e+16 5.583705209117527e+18 -1.5893614360357085e+17 -1.8021089314321503e+18 -1.5893614360357085e+17 4.809131907255223e+18" pbc="T T T"
Si       1.05817519       0.87294992       1.46085631
Si      -0.80608374      -0.44408345      -0.02823858
Si       1.56913358      -0.17816292       0.89447269
Si       1.54456996      -0.38878948       1.51069591
Si      -2.78826646      -0.49473549      -1.24604070
Si      -0.83791635       0.95766524       0.06225700
Si      -3.29922486       0.55637736      -0.67965709
Si       2.39921137       2.72013572       0.24965080
Si       2.61875556       1.42858197       0.16835614
Si      -3.91022916      -0.55005128      -0.24288314
Si       1.32502578       0.90276428       1.59199057
Si      -3.61165267       0.14620784      -0.89342766
Si       2.01302526       0.13480417       0.42187712
Si       2.13476522       1.16083550       0.96326770
14
Lattice="5.764847017287485 0.8832580389310699 1.4010281488787706 -0.18389417595578156 1.0270807801644977 0.3902615116917825 -5.85173409074853 -1.0173525853686536 -1.2198982708274833" Properties=species:S:1:pos:R:3 unique_starting_index=10 config_type=initial n_minim_iter=7 stress="2.416497119203121e+18 3.4338159774233976e+16 -1.841187644401819e+18 3.4338159774233976e+16 6.163224963598879e+18 -8.566360983818464e+16 -1.841187644401819e+18 -8.566360983818464e+16 5.369760736640786e+18" pbc="T T T"
Si       1.08499938       0.89408241       1.49993994
Si      -0.80232730      -0.45782493      -0.04133661
Si       1.57332575      -0.14115568       0.91697779
Si       1.56904448      -0.34709673       1.53753352
Si      -2.79446237      -0.54572815      -1.28580603
Si      -0.82024862       0.94027373       0.07434064
Si      -3.28278875       0.48950994      -0.70284388
Si       2.38933244       2.73988436       0.28676018
Si       2.61173066       1.46025212       0.19484779
Si      -3.87988289      -0.61207046      -0.26829628
Si       1.34664626       0.93253550       1.62944591
Si      -3.59442713       0.07716668      -0.91859795
Si       2.00602445       0.17098200       0.43896102
Si       2.13624665       1.19472484       0.99507117
14
Lattice="5.746664562041384 0.8751982346723345 1.4323988635430462 -0.1872878592406442 1.0145982068904977 0.40114448122404267 -5.832961773130107 -1.007723565446481 -1.2498874281924253" Properties=species:S:1:pos:R:3 unique_starting_index=10 config_type=initial n_minim_iter=8 stress="2.920490494122604e+18 3.3792538574869476e+16 -1.8350270456184218e+18 3.3792538574869476e+16 6.731277477937287e+18 -7.818500474548053e+16 -1.8350270456184218e+18 -7.818500474548053e+16 5.930281705257428e+18" pbc="T T T"
Si       1.10650940       0.88232774       1.54356215
Si      -0.77722474      -0.46096960      -0.04550634
Si       1.59247163      -0.13378738       0.93773279
Si       1.60030387      -0.34703085       1.55275683
Si      -2.81308725      -0.53896664      -1.32703635
Si      -0.84305589       0.93685604       0.07952070
Si      -3.29904948       0.47714848      -0.72120699
Si       2.33879219       2.71271372       0.31480088
Si       2.60713509       1.43771878       0.21070984
Si      -3.86333232      -0.60520017      -0.28532894
Si       1.33196097       0.92796409       1.65684787
Si      -3.58991009       0.07336303      -0.93054413
Si       2.00588433       0.16847474       0.45010316
Si       2.12049960       1.18260993       1.01631007
14
Lattice="5.731988263406697 0.8033290476087718 1.4222313050491975 -0.2047604185504648 1.0094439529253987 0.4171937541932289 -5.817471208009291 -0.9317256532050301 -1.2390078555247295" Properties=species:S:1:pos:R:3 unique_starting_index=10 config_type=initial n_minim_iter=9 stress="3.132022475332292e+18 1.5201691262325242e+16 -1.9237548540175624e+18 1.5201691262325242e+16 7.134077289052569e+18 -1.0449951279509517e+17 -1.9237548540175624e+18 -1.0449951279509517e+17 6.2986609642198e+18" pbc="T T T"
Si       1.10921792       0.86705394       1.58155790
Si      -0.77381244      -0.45368156      -0.05673311
Si       1.60879523      -0.13912682       0.93989089
Si       1.63458977      -0.35799594       1.55392954
Si      -2.82400972      -0.50339814      -1.34938523
Si      -0.85549641       0.94573396       0.10568233
Si      -3.32358703       0.50278261      -0.70771822
Si       2.26332923       2.66282135       0.33444474
Si       2.58892145       1.38129922       0.20439844
Si      -3.84972901      -0.54908754      -0.27406682
Si       1.30899755       0.92352619       1.68397584
Si      -3.59705105       0.10941428      -0.91599182
Si       2.00589418       0.14392014       0.44316871
Si       2.09678524       1.15146130       1.02801181
14
Lattice="5.729436611020678 0.7305288750551523 1.4239120006338992 -0.22887583422754695 0.994598769711145 0.4551226303482883 -5.814685992547574 -0.8507283977463397 -1.2400000524584756" Properties=species:S:1:pos:R:3 unique_starting_index=10 config_type=initial n_minim_iter=10 stress="3.437478897370357e+18 -4312119439132882.0 -1.9991200343901734e+18 -4312119439132882.0 7.573663988801075e+18 -9.86744027004487e+16 -1.9991200343901734e+18 -9.86744027004487e+16 6.755186618611658e+18" pbc="T T T"
Si       1.09350147       0.85454193       1.64343293
Si      -0.76227318      -0.43528637      -0.06992847
Si       1.61846549      -0.13124789       0.93447139
Si       1.66654430      -0.35283671       1.55092486
Si      -2.82539157      -0.47152436      -1.38220104
Si      -0.88436753       0.93850347       0.14724841
Si      -3.35035559       0.51426546      -0.67323950
Si       2.18737576       2.58118146       0.40542972
Si       2.57565955       1.30003616       0.21155765
Si      -3.84663910      -0.48342742      -0.26681531
Si       1.27826051       0.92830858       1.74479692
Si      -3.61468761       0.13591612      -0.89586480
Si       2.00894163       0.12190862       0.43451826
Si       2.07385426       1.11183736       1.06671369
14
Lattice="5.704737759681804 0.7153949894469135 1.4613065773870242 -0.2355227490123462 0.9889289556155529 0.4693698299528931 -5.788727623715053 -0.8337170909764556 -1.2774318245311513" Properties=species:S:1:pos:R:3 unique_starting_index=10 config_type=initial n_minim_iter=11 stress="3.5939189865218483e+18 -1.434773702272886e+16 -2.028244233873536e+18 -1.434773702272886e+16 7.852598396971648e+18 -8.359147617143787e+16 -2.028244233873536e+18 -8.359147617143787e+16 7.029800074107652e+18" pbc="T T T"
Si       1.08713949       0.84237595       1.67986485
Si      -0.75527506      -0.41695848      -0.07928812
Si       1.62230523      -0.12207087       0.94430427
Si       1.69435166      -0.36361600       1.54785492
Si      -2.81595078      -0.45701113      -1.41735200
Si      -0.88954637       0.92064540       0.15792622
Si      -3.35111653       0.50743569      -0.68179141
Si       2.13004192       2.57162687       0.46145960
Si       2.56473379       1.27035237       0.22134268
Si      -3.82273207      -0.46597585      -0.29235312
Si       1.25965979       0.93765849       1.78797183
Si      -3.61081699       0.13594568      -0.90644059
Si       2.00174074       0.11789255       0.44275805
Si       2.05817559       1.10118936       1.09718663
14
Lattice="5.719259230141269 0.73300638397394 1.452095521264513 -0.2395393728984637 0.9787620568455925 0.48138643890627464 -5.804766723585018 -0.8499989464600617 -1.2681770796729623" Properties=species:S:1:pos:R:3 unique_starting_index=10 config_type=initial n_minim_iter=12 stress="3.861580676914433e+18 3596368142219614.5 -2.0501269254287204e+18 3596368142219614.5 8.120959323096349e+18 -7.137067537745204e+16 -2.0501269254287204e+18 -7.137067537745204e+16 7.268868329884758e+18" pbc="T T T"
Si       1.08740692       0.83223942       1.70223755
Si      -0.75661108      -0.40320249      -0.07963880
Si       1.63234177      -0.10389531       0.93963319
Si       1.72246444      -0.36557082       1.52485429
Si      -2.82513750      -0.45690831      -1.42834394
Si      -0.89561200       0.89552616       0.16961397
Si      -3.37007234       0.47922641      -0.66573958
Si       2.10503233       2.56966293       0.49860284
Si       2.57921991       1.25143341       0.20350580
Si      -3.82916913      -0.47292398      -0.28912863
Si       1.24827687       0.95265870       1.81995133
Si      -3.62782068       0.11524870      -0.88907328
Si       2.00864462       0.12610802       0.43493426
Si       2.05839153       1.09922203       1.10713643
14
Lattice="5.692193006643761 0.7348959874344488 1.4937470421446066 -0.24300019044035015 0.9715806490356985 0.49354073043642854 -5.776765441700333 -0.8511276589051194 -1.309338155426369" Properties=species:S:1:pos:R:3 unique_starting_index=10 config_type=initial n_minim_iter=13 stress="4.103375447329499e+18 6539178793002755.0 -2.0418297924649037e+18 6539178793002755.0 8.420365546847028e+18 -7.313599682569494e+16 -2.0418297924649037e+18 -7.313599682569494e+16 7.583378841906152e+18" pbc="T T T"
Si       1.08884779       0.81759018       1.74240901
Si      -0.75250320      -0.39103405      -0.08050282
Si       1.63655393      -0.09336465       0.95078536
Si       1.74366158      -0.37663548       1.51694107
Si      -2.82100483      -0.44697620      -1.46907689
Si      -0.89508141       0.87787971       0.16942605
Si      -3.36871097       0.46397864      -0.67745324
Si       2.05794663       2.56995777       0.55926994
Si       2.56337317       1.22159630       0.19257437
Si      -3.80379653      -0.47326104      -0.31615966
Si       1.23823504       0.97172599       1.88363664
Si      -3.62055353       0.10897903      -0.90425526
Si       2.00231087       0.13043559       0.44429079
Si       2.04229753       1.09130605       1.13837948
14
Lattice="5.680531681389009 0.736520419263094 1.5162659032286654 -0.24682664334747415 0.9655220803264817 0.5044437648813057 -5.764811349574647 -0.8516573141400307 -1.3318326768334032" Properties=species:S:1:pos:R:3 unique_starting_index=10 config_type=initial n_minim_iter=14 stress="4.2839765785912576e+18 1.7346484906323178e+16 -2.058283897824822e+18 1.7346484906323178e+16 8.669139110858062e+18 -9.172458130182678e+16 -2.058283897824822e+18 -9.172458130182678e+16 7.822696601136861e+18" pbc="T T T"
Si       1.08424697       0.80932538       1.76695272
Si      -0.75304937      -0.37968358      -0.07651172
Si       1.64725642      -0.09058375       0.95602797
Si       1.76189958      -0.37586423       1.51318672
Si      -2.81591937      -0.44201927      -1.49103653
Si      -0.89434336       0.86212659       0.16799468
Si      -3.37892882       0.45788987      -0.68011178
Si       2.02441272       2.56034974       0.59900591
Si       2.56828057       1.19068027       0.17664786
Si      -3.79188518      -0.47361952      -0.32819097
Si       1.21803173       0.99380524       1.93554477
Si      -3.62031891       0.10440522      -0.91215875
Si       1.99974660       0.13669850       0.44891475
Si       2.03339235       1.08226493       1.15883411
14
Lattice="5.668528310758129 0.7422884347992015 1.5414429671071543 -0.24945124524435766 0.9591853166544363 0.5137931321363747 -5.752492652809546 -0.8567025545919029 -1.35702030931786" Properties=species:S:1:pos:R:3 unique_starting_index=10 config_type=initial n_minim_iter=15 stress="4.469018849503972e+18 3.0466933772958184e+16 -2.0836382009150103e+18 3.0466933772958184e+16 8.923960282617333e+18 -1.1522097489514197e+17 -2.0836382009150103e+18 -1.1522097489514197e+17 8.07354223013507e+18" pbc="T T T"
Si       1.07820637       0.80010878       1.79019143
Si      -0.75378880      -0.37295101      -0.07177471
Si       1.66014694      -0.08569657       0.96080528
Si       1.78122543      -0.37701688       1.51076934
Si      -2.80837339      -0.43791308      -1.51357333
Si      -0.89241388       0.84956083       0.16397015
Si      -3.39031396       0.44789227      -0.68418718
Si       1.99164895       2.55510045       0.63666219
Si       2.57405912       1.16289075       0.16099887
Si      -3.77834438      -0.47844657      -0.34278792
Si       1.19881527       1.01519282       1.98643266
Si      -3.62035095       0.09835384      -0.92203695
Si       1.99568907       0.14475496       0.45335918
Si       2.02663656       1.07414330       1.18027922
14
Lattice="5.657163442015669 0.7493352102746883 1.5664393726785604 -0.25106149802139077 0.9534505219557532 0.520392001965697 -5.740760024683697 -0.8635037401628884 -1.382101602464586" Properties=species:S:1:pos:R:3 unique_starting_index=10 config_type=initial n_minim_iter=16 stress="4.642405880991098e+18 3.6953535677058776e+16 -2.1143469433375278e+18 3.6953535677058776e+16 9.156498133129165e+18 -1.3375393566357149e+17 -2.1143469433375278e+18 -1.3375393566357149e+17 8.314368643987577e+18" pbc="T T T"
Si       1.07379106       0.79050175       1.80567715
Si      -0.75030732      -0.36982307      -0.07535117
Si       1.67087853      -0.08201083       0.96283179
Si       1.80153036      -0.37791093       1.50809627
Si      -2.80177292      -0.43400045      -1.53048634
Si      -0.89407795       0.84049290       0.16620421
Si      -3.39886038       0.43851213      -0.68764097
Si       1.96018631       2.55136648       0.66958815
Si       2.57924938       1.13683746       0.14475103
Si      -3.76535809      -0.48500320      -0.35717905
Si       1.18246729       1.03661810       2.03293339
Si      -3.61978720       0.09216928      -0.93406951
Si       1.99363133       0.15250886       0.46105113
Si       2.01914684       1.06749617       1.19624129
14
Lattice="5.646772522994124 0.7698283240939605 1.598285822754122 -0.25034419941138797 0.9475281886784996 0.5251371214121417 -5.730048771883775 -0.8845486583425952 -1.4143608850502183" Properties=species:S:1:pos:R:3 unique_starting_index=10 config_type=initial n_minim_iter=17 stress="4.795078428330667e+18 5.1394170688852744e+16 -2.1468488172730145e+18 5.1394170688852744e+16 9.354820536064514e+18 -1.4716398517187382e+17 -2.1468488172730145e+18 -1.4716398517187382e+17 8.540341970658766e+18" pbc="T T T"
Si       1.08291678       0.78274293       1.81487565
Si      -0.75127418      -0.36603805      -0.07102696
Si       1.67495762      -0.07010722       0.95079365
Si       1.82076222      -0.37218056       1.51460643
Si      -2.80728243      -0.43663436      -1.54470686
Si      -0.88981522       0.82686694       0.15727081
Si      -3.39932327       0.41621578      -0.68062486
Si       1.93457670       2.55036597       0.69506037
Si       2.58601806       1.11443760       0.14488822
Si      -3.75578848      -0.50105712      -0.37559507
Si       1.16932086       1.06374780       2.06477858
Si      -3.61534969       0.07733736      -0.95252196
Si       1.98548452       0.16084908       0.46843251
Si       2.02019860       1.06980814       1.21609717
14
Lattice="5.640160022153534 0.7819782962111937 1.6156125972646656 -0.2553775822036564 0.9419344775513154 0.5348365943894744 -5.723600461997219 -0.8968072325384467 -1.4322115638106971" Properties=species:S:1:pos:R:3 unique_starting_index=10 config_type=initial n_minim_iter=18 stress="4.967893323845658e+18 5.4635477660593784e+16 -2.1562383930706662e+18 5.4635477660593784e+16 9.518406951187147e+18 -1.489682364321988e+17 -2.1562383930706662e+18 -1.489682364321988e+17 8.709154977874372e+18" pbc="T T T"
Si       1.08495879       0.77237738       1.81982219
Si      -0.74735639      -0.34985999      -0.07792011
Si       1.70223407      -0.05416249       0.93622820
Si       1.82133808      -0.36643217       1.52431621
Si      -2.81169264      -0.43366449      -1.54749634
Si      -0.89593702       0.80340181       0.16684492
Si      -3.42896792       0.39287537      -0.66390235
Si       1.92015095       2.54388676       0.71505780
Si       2.58301316       1.08444430       0.14671471
Si      -3.75013470      -0.51162763      -0.38563025
Si       1.15847587       1.09301029       2.09265930
Si      -3.61675917       0.06836222      -0.95765650
Si       1.97703887       0.16733038       0.46537702
Si       2.01982774       1.06818973       1.23916039
14
Lattice="5.630874083779204 0.797011552593343 1.6322616834276014 -0.26208550109142864 0.9374610418787813 0.5441871492667193 -5.714457042501842 -0.912673977692107 -1.4500161027076182" Properties=species:S:1:pos:R:3 unique_starting_index=10 config_type=initial n_minim_iter=19 stress="5.110979952204449e+18 5.200038647203299e+16 -2.1914396798985582e+18 5.200038647203299e+16 9.70711557910445e+18 -1.4616617862392e+17 -2.1914396798985582e+18 -1.4616617862392e+17 8.868978685686402e+18" pbc="T T T"
Si       1.08327001       0.75465548       1.82321652
Si      -0.74471458      -0.33593135      -0.08094241
Si       1.71574021      -0.03056845       0.92646994
Si       1.81688627      -0.36666990       1.55153281
Si      -2.81292709      -0.42430622      -1.54977321
Si      -0.90135954       0.78194303       0.17214014
Si      -3.44539730       0.36091771      -0.65302663
Si       1.90582818       2.54715417       0.71611376
Si       2.58261654       1.05929063       0.15388907
Si      -3.74476663      -0.53091436      -0.39856059
Si       1.14009791       1.12119364       2.11375750
Si      -3.61576454       0.06425206      -0.96025778
Si       2.00413335       0.18034318       0.46353345
Si       1.98066661       1.06268005       1.25992597
14
Lattice="5.623536412724035 0.825198742087755 1.6596571412234526 -0.26567815879581597 0.9316989402297562 0.5497567493468336 -5.70717863673691 -0.9427244248305006 -1.4788551821228757" Properties=species:S:1:pos:R:3 unique_starting_index=10 config_type=initial n_minim_iter=20 stress="5.291542016678861e+18 5.503981180466115e+16 -2.2122956793284808e+18 5.503981180466115e+16 9.8858066658212e+18 -1.572475971361945e+17 -2.2122956793284808e+18 -1.572475971361945e+17 9.022193194788491e+18" pbc="T T T"
Si       1.09089873       0.72599769       1.82500677
Si      -0.73727192      -0.32811601      -0.09339222
Si       1.71508788      -0.00315490       0.93661513
Si       1.81304039      -0.35768851       1.58933889
Si      -2.82150478      -0.40981169      -1.55640056
Si      -0.90969191       0.76182769       0.18119647
Si      -3.44569394       0.31934089      -0.66800891
Si       1.89785404       2.54829787       0.70787926
Si       2.58553259       1.04344118       0.16192929
Si      -3.73942789      -0.56080547      -0.42328071
Si       1.12536183       1.14716818       2.13528886
Si      -3.61471458       0.05179272      -0.96777022
Si       2.01596463       0.21032682       0.44680878
Si       1.96060795       1.04858360       1.30065262
14
Lattice="5.620212432382364 0.8419044833809852 1.6776599907463488 -0.27270495187134747 0.925911678891507 0.5596523434156281 -5.704118597959975 -0.960104069892479 -1.4981782590271053" Properties=species:S:1:pos:R:3 unique_starting_index=10 config_type=initial n_minim_iter=21 stress="5.441797746123928e+18 5.579367887979506e+16 -2.2343503456704236e+18 5.579367887979506e+16 1.005662144703229e+19 -1.5929898839519955e+17 -2.2343503456704236e+18 -1.5929898839519955e+17 9.14787025098432e+18" pbc="T T T"
Si       1.09651242       0.69397412       1.81381510
Si      -0.73397540      -0.32526711      -0.09818048
Si       1.71527078       0.01900139       0.95335959
Si       1.80933252      -0.34828743       1.61561680
Si      -2.83195349      -0.38731586      -1.54426824
Si      -0.91755950       0.75012495       0.18824561
Si      -3.45071185       0.28765687      -0.68381273
Si       1.88664006       2.54096144       0.71176066
Si       2.58763024       1.02443048       0.17126027
Si      -3.73634602      -0.57486030      -0.44416194
Si       1.10834234       1.16824353       2.15611719
Si      -3.61930748       0.03961408      -0.96395119
Si       2.02361041       0.22881430       0.44552475
Si       1.94506712       1.03794803       1.32220037
