65
Lattice="10.982754685698184 0.0 0.0 0.0 10.982754685698184 0.0 0.0 0.0 10.982754685698184" Properties=species:S:1:pos:R:3:forces:R:3 cutoff=-1.0 nneightol=1.2 Zs=14 interstitial_position="mean 1 3 4 5 7 18" interstitial_constraint="plane atoms 4 5 7" bulk_struct_test=bulk_Si_diamond supercell_a1_in_bulk_lattice_coords="2 2 -2" n_minim_iter=0 pbc="T T T"
Si      -0.05730569      -0.02898084      -0.05730569      -0.00402238       0.00275051      -0.00402238
Si       2.76357903       2.72779830      -0.12085403       0.00213235      -0.00213235       0.00101401
Si       2.75089835      -0.03285613       2.75089835      -0.00008130       0.00192207      -0.00008130
Si      -0.12085403       2.72779830       2.76357903       0.00101401      -0.00213235       0.00213235
Si       1.35495397       1.25199031       1.35495397      -0.00213235       0.00101401      -0.00213235
Si       4.23938703       4.13642337       1.35495397      -0.00101401       0.00213235      -0.00213235
Si       4.08127325       1.41010409       4.08127325       0.00390580      -0.00390580       0.00390580
Si       1.35495397       4.13642337       4.23938703      -0.00213235       0.00213235      -0.00101401
Si       0.02011950      -0.02458466       5.51596200      -0.00152819       0.00078569      -0.00078569
Si       2.75089835       2.74047899       5.52423347      -0.00008130       0.00008130      -0.00192207
Si       2.74591302      -0.00913116       8.23209270      -0.00144575       0.00052408      -0.00026109
Si      -0.00471111       2.74762436       8.22370813      -0.00024105       0.00484184       0.00002239
Si       1.37478002       1.36813322       6.87757956       0.00484184      -0.00024105      -0.00002239
Si       4.12324412       4.11659732       6.87757956       0.00024105      -0.00484184      -0.00002239
Si       4.17583869       1.31553865       9.58092951       0.00402238      -0.00402238       0.00275051
Si       1.36763466       4.12374268       9.57705422       0.00008130      -0.00008130       0.00192207
Si       0.03725975       5.45411759       0.03725975      -0.00390580       0.00390580      -0.00390580
Si       2.74375298       8.25042390      -0.00471111      -0.00484184      -0.00002239      -0.00024105
Si       2.76357903       5.61223137       2.76357903       0.00213235      -0.00101401       0.00213235
Si      -0.00471111       8.25042390       2.74375298      -0.00024105      -0.00002239      -0.00484184
Si       1.36763466       6.89707781       1.36763466       0.00008130      -0.00192207       0.00008130
Si       4.12324412       9.59655246       1.37478002       0.00024105       0.00002239       0.00484184
Si       4.17583869       6.89320252       4.17583869       0.00402238      -0.00275051       0.00402238
Si       1.37478002       9.59655246       4.12324412       0.00484184       0.00002239       0.00024105
Si      -0.05730569       5.54868303       5.52035818      -0.00402238       0.00402238      -0.00275051
Si       2.74591302       8.24203932       5.50050850      -0.00144575       0.00026108      -0.00052408
Si       2.74375298       5.49608845       8.22370813      -0.00484184       0.00024105       0.00002239
Si      -0.00114103       8.22291240       8.25121962      -0.00308458       0.00224307      -0.00224308
Si       1.37261999       6.87335283       6.86919499       0.00144575      -0.00052408       0.00026108
Si       4.11967403       9.62406396       6.85006807       0.00308458      -0.00224307       0.00224307
Si       4.09841351       6.88880633       9.58532569       0.00152819      -0.00078569       0.00078569
Si       1.37261999       9.60493704       9.60077919       0.00144575      -0.00026108       0.00052408
Si       5.51596200      -0.02458466       0.02011950      -0.00078569       0.00078569      -0.00152819
Si       8.22370813       2.74762436      -0.00471111       0.00002239       0.00484184      -0.00024105
Si       8.23209270      -0.00913116       2.74591302      -0.00026109       0.00052408      -0.00144575
Si       5.52423347       2.74047899       2.75089835      -0.00192207       0.00008130      -0.00008130
Si       6.87757956       1.36813322       1.37478002      -0.00002239      -0.00024105       0.00484184
Si       9.57705422       4.12374268       1.36763466       0.00192207      -0.00008130       0.00008130
Si       9.58092951       1.31553865       4.17583869       0.00275051      -0.00402238       0.00402238
Si       6.87757956       4.11659732       4.12324412      -0.00002239      -0.00484184       0.00024105
Si       5.46082332       0.03055402       5.46082332       0.00161626      -0.00161626       0.00161626
Si       8.23209270       2.74546432       5.50050850      -0.00026109       0.00144575      -0.00052408
Si       8.22476679       0.00009485       8.22476679      -0.00145133      -0.00051594      -0.00145133
Si       5.50050850       2.74546432       8.23209270      -0.00052408       0.00144575      -0.00026109
Si       6.85006807       1.37170331       6.85006807       0.00224307      -0.00308458       0.00224307
Si       9.60077919       4.11875735       6.86919499       0.00052408      -0.00144575       0.00026108
Si       9.58532569       1.39296383       9.58532569       0.00078569      -0.00152819       0.00078569
Si       6.86919499       4.11875735       9.60077919       0.00026108      -0.00144575       0.00052408
Si       5.52035818       5.54868303      -0.05730569      -0.00275051       0.00402238      -0.00402238
Si       8.25121962       8.22291240      -0.00114103      -0.00224308       0.00224307      -0.00308458
Si       8.22370813       5.49608845       2.74375298       0.00002239       0.00024105      -0.00484184
Si       5.50050850       8.24203932       2.74591302      -0.00052408       0.00026108      -0.00144575
Si       6.86919499       6.87335283       1.37261999       0.00026108      -0.00052408       0.00144575
Si       9.60077919       9.60493704       1.37261999       0.00052408      -0.00026108       0.00144575
Si       9.58532569       6.88880633       4.09841351       0.00078569      -0.00078569       0.00152819
Si       6.85006807       9.62406396       4.11967403       0.00224307      -0.00224307       0.00308458
Si       5.51596200       5.47125784       5.51596200      -0.00078569       0.00152819      -0.00078569
Si       8.22476679       8.24936523       5.49128249      -0.00145133       0.00145133       0.00051594
Si       8.25121962       5.49251837       8.25121962      -0.00224308       0.00308458      -0.00224308
Si       5.49128249       8.24936523       8.22476679       0.00051594       0.00145133      -0.00145133
Si       6.87652090       6.86412682       6.87652090       0.00145133       0.00051594       0.00145133
Si       9.61000520       9.59761113       6.87652090      -0.00051594      -0.00145133       0.00145133
Si       9.64046437       6.83366766       9.64046437      -0.00161626       0.00161626      -0.00161626
Si       6.87652090       9.59761113       9.61000520       0.00145133      -0.00145133      -0.00051594
Si       2.05926650       3.43211084       2.05926650       0.00000000      -0.00000000       0.00000000
