64
Lattice="10.906908439862535 0.0 0.0 0.0 10.906908439862535 0.0 0.0 0.0 10.906908439862535" Properties=species:S:1:pos:R:3:forces:R:3 cutoff=-1.0 nneightol=1.2 Zs=14 interstitial_position="mean 1 3 4 5 7 18" interstitial_constraint="plane atoms 4 5 7" bulk_struct_test=bulk_Si_diamond supercell_a1_in_bulk_lattice_coords="2 2 -2" n_minim_iter=0 energy=-10443.21556646489 stress="-0.0018799544867750524 -3.0773513679341556e-10 -3.077351278142514e-10 -3.0773513679341556e-10 -0.0018799544867750513 -3.077351178644392e-10 -3.077351278142514e-10 -3.077351178644392e-10 -0.0018799544867750908" free_energy=-10443.21556646489 pbc="T T T"
Si       0.00000000       0.00000000       0.00000000      -0.00000000      -0.00000000      -0.00000000
Si       2.72672711       2.72672711       0.00000000      -0.00000007      -0.00000007      -0.00000000
Si       2.72672711       0.00000000       2.72672711      -0.00000007      -0.00000000      -0.00000007
Si       0.00000000       2.72672711       2.72672711      -0.00000000      -0.00000007      -0.00000007
Si       1.36336356       1.36336356       1.36336356      -0.00000001      -0.00000001      -0.00000001
Si       4.09009066       4.09009066       1.36336356       0.00000007       0.00000007      -0.00000001
Si       4.09009066       1.36336356       4.09009066       0.00000007      -0.00000001       0.00000007
Si       1.36336356       4.09009066       4.09009066      -0.00000001       0.00000007       0.00000007
Si       0.00000000       0.00000000       5.45345421      -0.00000000      -0.00000000       0.00000001
Si       2.72672711       2.72672711       5.45345421      -0.00000007      -0.00000007       0.00000001
Si       2.72672711       0.00000000       8.18018133      -0.00000007      -0.00000000       0.00000000
Si       0.00000000       2.72672711       8.18018133      -0.00000000      -0.00000007       0.00000000
Si       1.36336356       1.36336356       6.81681777      -0.00000001      -0.00000001       0.00000000
Si       4.09009066       4.09009066       6.81681777       0.00000007       0.00000007       0.00000000
Si       4.09009066       1.36336356       9.54354488       0.00000007      -0.00000001      -0.00000000
Si       1.36336356       4.09009066       9.54354488      -0.00000001       0.00000007      -0.00000000
Si       0.00000000       5.45345421       0.00000000      -0.00000000       0.00000001      -0.00000000
Si       2.72672711       8.18018133       0.00000000      -0.00000007       0.00000000      -0.00000000
Si       2.72672711       5.45345421       2.72672711      -0.00000007       0.00000001      -0.00000007
Si       0.00000000       8.18018133       2.72672711      -0.00000000       0.00000000      -0.00000007
Si       1.36336356       6.81681777       1.36336356      -0.00000001       0.00000000      -0.00000001
Si       4.09009066       9.54354488       1.36336356       0.00000007      -0.00000000      -0.00000001
Si       4.09009066       6.81681777       4.09009066       0.00000007       0.00000000       0.00000007
Si       1.36336356       9.54354488       4.09009066      -0.00000001      -0.00000000       0.00000007
Si       0.00000000       5.45345421       5.45345421      -0.00000000       0.00000001       0.00000001
Si       2.72672711       8.18018133       5.45345421      -0.00000007       0.00000000       0.00000001
Si       2.72672711       5.45345421       8.18018133      -0.00000007       0.00000001       0.00000000
Si       0.00000000       8.18018133       8.18018133      -0.00000000       0.00000000       0.00000000
Si       1.36336356       6.81681777       6.81681777      -0.00000001       0.00000000       0.00000000
Si       4.09009066       9.54354488       6.81681777       0.00000007      -0.00000000       0.00000000
Si       4.09009066       6.81681777       9.54354488       0.00000007       0.00000000      -0.00000000
Si       1.36336356       9.54354488       9.54354488      -0.00000001      -0.00000000      -0.00000000
Si       5.45345421       0.00000000       0.00000000       0.00000001      -0.00000000      -0.00000000
Si       8.18018133       2.72672711       0.00000000       0.00000000      -0.00000007      -0.00000000
Si       8.18018133       0.00000000       2.72672711       0.00000000      -0.00000000      -0.00000007
Si       5.45345421       2.72672711       2.72672711       0.00000001      -0.00000007      -0.00000007
Si       6.81681777       1.36336356       1.36336356       0.00000000      -0.00000001      -0.00000001
Si       9.54354488       4.09009066       1.36336356      -0.00000000       0.00000007      -0.00000001
Si       9.54354488       1.36336356       4.09009066      -0.00000000      -0.00000001       0.00000007
Si       6.81681777       4.09009066       4.09009066       0.00000000       0.00000007       0.00000007
Si       5.45345421       0.00000000       5.45345421       0.00000001      -0.00000000       0.00000001
Si       8.18018133       2.72672711       5.45345421       0.00000000      -0.00000007       0.00000001
Si       8.18018133       0.00000000       8.18018133       0.00000000      -0.00000000       0.00000000
Si       5.45345421       2.72672711       8.18018133       0.00000001      -0.00000007       0.00000000
Si       6.81681777       1.36336356       6.81681777       0.00000000      -0.00000001       0.00000000
Si       9.54354488       4.09009066       6.81681777      -0.00000000       0.00000007       0.00000000
Si       9.54354488       1.36336356       9.54354488      -0.00000000      -0.00000001      -0.00000000
Si       6.81681777       4.09009066       9.54354488       0.00000000       0.00000007      -0.00000000
Si       5.45345421       5.45345421       0.00000000       0.00000001       0.00000001      -0.00000000
Si       8.18018133       8.18018133       0.00000000       0.00000000       0.00000000      -0.00000000
Si       8.18018133       5.45345421       2.72672711       0.00000000       0.00000001      -0.00000007
Si       5.45345421       8.18018133       2.72672711       0.00000001       0.00000000      -0.00000007
Si       6.81681777       6.81681777       1.36336356       0.00000000       0.00000000      -0.00000001
Si       9.54354488       9.54354488       1.36336356      -0.00000000      -0.00000000      -0.00000001
Si       9.54354488       6.81681777       4.09009066      -0.00000000       0.00000000       0.00000007
Si       6.81681777       9.54354488       4.09009066       0.00000000      -0.00000000       0.00000007
Si       5.45345421       5.45345421       5.45345421       0.00000001       0.00000001       0.00000001
Si       8.18018133       8.18018133       5.45345421       0.00000000       0.00000000       0.00000001
Si       8.18018133       5.45345421       8.18018133       0.00000000       0.00000001       0.00000000
Si       5.45345421       8.18018133       8.18018133       0.00000001       0.00000000       0.00000000
Si       6.81681777       6.81681777       6.81681777       0.00000000       0.00000000       0.00000000
Si       9.54354488       9.54354488       6.81681777      -0.00000000      -0.00000000       0.00000000
Si       9.54354488       6.81681777       9.54354488      -0.00000000       0.00000000      -0.00000000
Si       6.81681777       9.54354488       9.54354488       0.00000000      -0.00000000      -0.00000000
