2
Lattice="4.644233060733383 4.702479075105516e-17 1.3652386727163908e-16 4.702479075105439e-17 4.644233060733383 -2.983117498823307e-16 2.3221165303666913 2.3221165303666913 1.2805510874241057" Properties=species:S:1:pos:R:3 cutoff=-1.0 nneightol=1.2 n_minim_iter=1 energy=-325.584002165379 free_energy=-325.584002165379 pbc="T T T"
Si      -0.00000000      -1.16105826      -0.32013777
Si      -0.00000000       1.16105827       0.32013777
