2
Lattice="4.600826473906908 4.65852810115482e-17 1.3524786862533584e-16 4.6585281011547484e-17 4.600826473906908 -2.9552362648212814e-16 2.300413236953454 2.300413236953454 1.2685826200291395" Properties=species:S:1:pos:R:3 cutoff=-1.0 nneightol=1.2 n_minim_iter=1 energy=-325.5029516113995 free_energy=-325.5029516113995 pbc="T T T"
Si      -0.00000000      -1.15020662      -0.31714566
Si      -0.00000000       1.15020662       0.31714566
2
Lattice="4.622348214970215 5.606306828243938e-17 -1.3844185620750892e-16 5.606306828243871e-17 4.622348214970218 1.4470560299692855e-16 2.3111741074851073 2.311174107485109 1.2567970314774481" Properties=species:S:1:pos:R:3 cutoff=-1.0 nneightol=1.2 n_minim_iter=2 stress="-0.11982340613005082 1.5676562985158544e-16 2.810397668641051e-17 1.5676562985158544e-16 -0.11982340613004695 1.0064872980161097e-16 2.810397668641051e-17 1.0064872980161097e-16 -0.12008543583579748" pbc="T T T"
Si      -0.00000000      -1.15558705      -0.31419926
Si      -0.00000000       1.15558705       0.31419926
