2
Lattice="4.931046236081114 2.055156227082632e-16 2.7823520126881212e-15 2.0551562270827275e-16 4.931046236081114 -4.710210034064452e-15 2.4655231180405566 2.4655231180405583 1.4830033377047451" Properties=species:S:1:pos:R:3 cutoff=-1.0 nneightol=1.2 n_minim_iter=1 stress="0.04211357477666497 2.7567544663853342e-18 -7.43383184012272e-17 2.7567544663853342e-18 0.04211357477666475 -1.0432914001392386e-16 -7.43383184012272e-17 -1.0432914001392386e-16 0.03677222454295575" pbc="T T T"
Si      -0.00000000      -1.23276156      -0.37075083
Si      -0.00000000       1.23276156       0.37075083
