2
Lattice="5.000020850931509 2.0839033939988914e-16 2.8212710674414807e-15 2.0839033939990435e-16 5.000020850931509 -4.776095630631534e-15 2.500010425465754 2.500010425465756 1.5037473297791997" Properties=species:S:1:pos:R:3 cutoff=-1.0 nneightol=1.2 n_minim_iter=1 stress="0.048158063870506175 6.609586252961342e-17 -1.24663135455385e-16 6.609586252961342e-17 0.04815806387050625 -1.3367919021780315e-17 -1.24663135455385e-16 -1.3367919021780315e-17 0.038847090608445434" pbc="T T T"
Si      -0.00000000      -1.25000521      -0.37593683
Si      -0.00000000       1.25000521       0.37593683
