1
Lattice="2.787442173472068 1.1205219905818678e-17 6.562181822234276e-51 1.3937210867360337 2.413995733806921 -5.890320301826375e-51 -6.907011772872578e-50 1.4734962505447313e-49 2.600275823682813" Properties=species:S:1:pos:R:3 cutoff=-1.0 nneightol=1.2 n_minim_iter=1 energy=-162.73695372072095 free_energy=-162.73695372072095 pbc="T T T"
Si       0.00000000       0.00000000       0.00000000
1
Lattice="2.806183661576756 1.1670158915099819e-17 6.547153972729055e-51 1.4030918307883777 2.4302263386103053 -1.590418942530084e-50 -7.355480250566661e-50 1.501360990579355e-49 2.5656591990519932" Properties=species:S:1:pos:R:3 cutoff=-1.0 nneightol=1.2 n_minim_iter=2 stress="0.06780346275671856 2.3749565950294314e-16 -8.145159191114012e-19 2.3749565950294314e-16 0.06780346275671745 1.0692227465651445e-18 -8.145159191114012e-19 1.0692227465651445e-18 0.0704420423067242" pbc="T T T"
Si       0.00000000       0.00000000       0.00000000
