1
Lattice="2.5447352403522387 1.0229563949918802e-17 5.990802426526382e-51 1.2723676201761194 2.203805364050538 -5.377440935518665e-51 -5.187899020381297e-50 1.1648177008683725e-49 2.3738657562604675" Properties=species:S:1:pos:R:3 cutoff=-1.0 nneightol=1.2 n_minim_iter=1 stress="-0.07939363389626283 1.6043020269326445e-16 -6.017518213744003e-19 1.6043020269326445e-16 -0.07939363389626303 6.20754510470434e-18 -6.017518213744003e-19 6.20754510470434e-18 -0.09263100979674717" pbc="T T T"
Si       0.00000000       0.00000000       0.00000000
