1
Lattice="2.3942467048864344 6.374337456383037e-18 -6.8854556973126585e-50 1.1971233524432172 2.073478469358837 -1.831413362896991e-49 -7.352758944928215e-50 9.017846950989619e-49 2.2985649364920397" Properties=species:S:1:pos:R:3 cutoff=-1.0 nneightol=1.2 n_minim_iter=2 stress="-0.24917583809818805 2.465690858705996e-16 1.9419522276204743e-17 2.465690858705996e-16 -0.249175838098187 5.296233348055839e-17 1.9419522276204743e-17 5.296233348055839e-17 -0.24884626915465285" pbc="T T T"
Si       0.00000000       0.00000000       0.00000000
