1
Lattice="2.9154577737650498 7.701883993349213e-17 2.0361346725704036e-51 1.4577288868825249 2.5248604957413585 -4.552979809802402e-50 -8.20770117618866e-50 2.3607544022562658e-49 2.5319544487109056" Properties=species:S:1:pos:R:3 cutoff=-1.0 nneightol=1.2 n_minim_iter=2 stress="0.06333227106062624 3.5915082391503736e-17 -7.255939079612957e-20 3.5915082391503736e-17 0.0633322710606253 4.633912432671282e-18 -7.255939079612957e-20 4.633912432671282e-18 0.07016852871190925" pbc="T T T"
Si       0.00000000       0.00000000       0.00000000
