1
Lattice="2.974651429504271 8.272771757777245e-17 1.6770670131982097e-50 1.4873257147521355 2.576123705354394 -5.800275208217345e-50 -7.939652510069703e-50 3.1255146724759296e-49 2.4818250243887943" Properties=species:S:1:pos:R:3 cutoff=-1.0 nneightol=1.2 n_minim_iter=2 stress="0.03907363768993739 7.53902604136519e-17 1.7613977499213955e-17 7.53902604136519e-17 0.039073637689937116 1.4598597428783434e-19 1.7613977499213955e-17 1.4598597428783434e-19 0.03610791613025541" pbc="T T T"
Si       0.00000000       0.00000000       0.00000000
