1
Lattice="2.7670951548478215 1.1123427063519644e-17 6.514280977142885e-51 1.3835475774239108 2.396374698787048 -5.847323730265304e-51 -4.4258453126613655e-50 1.0704593920946016e-49 2.5812950315013006" Properties=species:S:1:pos:R:3 cutoff=-1.0 nneightol=1.2 n_minim_iter=1 stress="0.05362632397757721 3.483677305665837e-17 2.1905561894377714e-17 3.483677305665837e-17 0.053626323977577245 5.279134291552993e-18 2.1905561894377714e-17 5.279134291552993e-18 0.061045124408904784" pbc="T T T"
Si       0.00000000       0.00000000       0.00000000
