2
Lattice="2.600783363802506 9.217315304321223e-17 2.600783363802506 2.600783363802506 2.600783363802506 9.853689200413132e-17 1.1403688362610705e-16 2.600783363802506 2.600783363802506" Properties=species:S:1:pos:R:3 n_minim_iter=1 energy=-326.0869347193559 free_energy=-326.0869347193559 pbc="T T T"
Si       0.00000000       0.00000000       0.00000000
Si       1.30039168       1.30039168       1.30039168
