2
Lattice="2.722488632943614 9.648645285696808e-17 2.722488632943614 2.722488632943614 2.722488632943614 1.0314798692599264e-16 1.1937331026082562e-16 2.722488632943614 2.722488632943614" Properties=species:S:1:pos:R:3 n_minim_iter=1 stress="-0.0051943976004713115 -5.692959345010189e-17 -1.7868251606404213e-16 -5.692959345010189e-17 -0.005194397600471386 -9.009346973063081e-17 -1.7868251606404213e-16 -9.009346973063081e-17 -0.005194397600471096" pbc="T T T"
Si       0.00000000       0.00000000       0.00000000
Si       1.36124432       1.36124432       1.36124432
