2
Lattice="2.4945083252766507 8.840670885295293e-17 2.4945083252766507 2.4945083252766507 2.4945083252766507 9.451040823785317e-17 1.0937702830351154e-16 2.4945083252766507 2.4945083252766507" Properties=species:S:1:pos:R:3 n_minim_iter=1 stress="-0.21746351234108294 -3.147886137973166e-16 1.6053995850261374e-16 -3.147886137973166e-16 -0.21746351234108288 -6.251698155602778e-17 1.6053995850261374e-16 -6.251698155602778e-17 -0.21746351234108344" pbc="T T T"
Si      -0.00000000       0.00000000       0.00000000
Si       1.24725416       1.24725416       1.24725416
