2
Lattice="2.6751313700124637 9.480808613692009e-17 2.6751313700124637 2.6751313700124637 2.6751313700124637 1.0135374386522674e-16 1.17296830244499e-16 2.6751313700124637 2.6751313700124637" Properties=species:S:1:pos:R:3 n_minim_iter=1 stress="-0.020785410474544557 2.365945927888025e-16 -7.689187163367676e-17 2.365945927888025e-16 -0.020785410474544515 -5.152593578206222e-17 -7.689187163367676e-17 -5.152593578206222e-17 -0.02078541047454421" pbc="T T T"
Si      -0.00000000       0.00000000       0.00000000
Si       1.33756569       1.33756569       1.33756569
