2
Lattice="2.548753678458324 9.032919317451796e-17 2.548753678458324 2.548753678458324 2.548753678458324 9.656562305604299e-17 1.1175553130154336e-16 2.548753678458324 2.548753678458324" Properties=species:S:1:pos:R:3 n_minim_iter=1 stress="-0.17659545241610322 -2.7978284630832173e-16 7.593375612189027e-17 -2.7978284630832173e-16 -0.17659545241610364 -4.3082387743803075e-16 7.593375612189027e-17 -4.3082387743803075e-16 -0.17659545241610353" pbc="T T T"
Si       0.00000000       0.00000000       0.00000000
Si       1.27437684       1.27437684       1.27437684
