18
Lattice="0.0 -2.746678442182066 2.746678442182066 2.746678442182066 -2.746678442182066 0.0 22.085569194804368 22.085569194804368 22.085569194804368" Properties=species:S:1:pos:R:3:travel:I:3:map_shift:I:3:n_neighb:I:1:orig_index:I:1:forces:R:3 cutoff=2.0 nneightol=1.2 bulk_struct_test=bulk_Si_diamond supercell_a1_in_bulk_lattice_coords="1 -1 0" n_minim_iter=0 energy=-2934.774608991137 stress="0.0019221066729529794 -0.0009798693934450057 -0.0009798693934450207 -0.0009798693934450057 0.0019221066729529718 -0.000979869393445202 -0.0009798693934450207 -0.000979869393445202 0.0019221066729530163" free_energy=-2934.774608991137 pbc="T T T"
Si       0.04108613       0.04108613       0.04108613        0        0        0        0        0        0       21        1       0.00078103       0.00078103       0.00078103
Si       1.40860172       1.40860172       1.40860172        0        0        0        0        0        0       21        2      -0.00122480      -0.00122480      -0.00122480
Si       2.77392930       0.02725086       2.77392930        0       -1        0        0        0        0       20        3       0.00064444       0.00064444       0.00064444
Si      -1.21880914      -3.96548758      -1.21880914        0       -1        1        0        0        0       20        4       0.00030146       0.00030146       0.00030146
Si      -2.69287516       0.05380328      -2.69287516        1       -1        1        0        0        0       20        5      -0.00072571      -0.00072571      -0.00072571
Si      -1.31297798       1.43370046      -1.31297798        1       -1        1        0        0        0       20        6      -0.00016338      -0.00016338      -0.00016338
Si       5.48932553       5.48932553       5.48932553        0        0        0        0        0        0       21        1      -0.00090091      -0.00090091      -0.00090091
Si       6.85496372       6.85496372       6.85496372        0        0        0        0        0        0       21        2       0.00153800       0.00153800       0.00153800
Si       8.22029561       5.47361717       8.22029561        0       -1        0        0        0        0       20        3      -0.00066727      -0.00066727      -0.00066727
Si       4.13975738       1.39307893       4.13975738        0       -1        1        0        0        0       20        4       0.00066727       0.00066727       0.00066727
Si       2.75841083       5.50508927       2.75841083        1       -1        1        0        0        0       20        5      -0.00153800      -0.00153800      -0.00153800
Si       4.12404902       6.87072746       4.12404902        1       -1        1        0        0        0       20        6       0.00090091       0.00090091       0.00090091
Si      10.92635252      10.92635252      10.92635252        0        0        0        0        0        0       21        1       0.00016338       0.00016338       0.00016338
Si      12.30624971      12.30624971      12.30624971        0        0        0        0        0        0       21        2       0.00072571       0.00072571       0.00072571
Si      13.57886213      10.83218369      13.57886213        0       -1        0        0        0        0       20        3      -0.00030146      -0.00030146      -0.00030146
Si       9.58612369       6.83944524       9.58612369        0       -1        1        0        0        0       20        4      -0.00064444      -0.00064444      -0.00064444
Si       8.20477283      10.95145127       8.20477283        1       -1        1        0        0        0       20        5       0.00122480       0.00122480       0.00122480
Si       9.57228841      12.31896686       9.57228841        1       -1        1        0        0        0       20        6      -0.00078103      -0.00078103      -0.00078103
