2
Lattice="2.937753530005756 -5.823361390316482e-17 2.937753530005756 2.937753530005756 2.937753530005756 1.3741924301828643e-16 1.7943141360712086e-17 2.937753530005756 2.937753530005756" Properties=species:S:1:pos:R:3 n_minim_iter=1 energy=-325.911402987682 free_energy=-325.911402987682 pbc="T T T"
Si       0.00000000       0.00000000       0.00000000
Si       1.46887677       1.46887677       1.46887677
