2
Lattice="2.6508439578286813 -5.2546349440495845e-17 2.6508439578286813 2.6508439578286813 2.6508439578286813 1.239984792201755e-16 1.619076187797699e-17 2.6508439578286813 2.6508439578286813" Properties=species:S:1:pos:R:3 n_minim_iter=1 energy=-326.2603708292891 free_energy=-326.2603708292891 pbc="T T T"
Si       0.00000000       0.00000000       0.00000000
Si       1.32542198       1.32542198       1.32542198
