2
Lattice="2.8555350903037637 -5.660383903457087e-17 2.8555350903037637 2.8555350903037637 2.8555350903037637 1.3357331257157188e-16 1.74409695239797e-17 2.8555350903037637 2.8555350903037637" Properties=species:S:1:pos:R:3 n_minim_iter=1 stress="0.054350526538124916 -2.1134962459022985e-17 4.472477827613779e-17 -2.1134962459022985e-17 0.054350526538124916 4.529719724771239e-17 4.472477827613779e-17 4.529719724771239e-17 0.05435052653812489" pbc="T T T"
Si       0.00000000       0.00000000       0.00000000
Si       1.42776755       1.42776755       1.42776755
