2
Lattice="2.6990516512637015 -5.35019463542545e-17 2.6990516512637015 2.6990516512637015 2.6990516512637015 1.2625348961224375e-16 1.6485203685005215e-17 2.6990516512637015 2.6990516512637015" Properties=species:S:1:pos:R:3 n_minim_iter=1 stress="-0.004898257351273426 -1.260429778421624e-16 1.9357544587499159e-16 -1.260429778421624e-16 -0.004898257351273422 1.209188450377597e-16 1.9357544587499159e-16 1.209188450377597e-16 -0.004898257351273563" pbc="T T T"
Si       0.00000000       0.00000000       0.00000000
Si       1.34952583       1.34952583       1.34952583
