2
Lattice="2.9576038181612474 -5.862709620333286e-17 2.9576038181612474 2.9576038181612474 2.9576038181612474 1.3834777958344109e-16 1.806438248008678e-17 2.9576038181612474 2.9576038181612474" Properties=species:S:1:pos:R:3 n_minim_iter=1 stress="0.07561324224140208 -6.18556918872674e-17 5.766020418466395e-18 -6.18556918872674e-17 0.07561324224140208 -2.2797602562171035e-18 5.766020418466395e-18 -2.2797602562171035e-18 0.07561324224140205" pbc="T T T"
Si       0.00000000       0.00000000       0.00000000
Si       1.47880191       1.47880191       1.47880191
