8
Lattice="3.4167354614203322 0.17133783401930272 0.27743670124704595 0.21438335100520145 6.704951264346018 -0.19250854691915745 -0.24064146985091883 -1.3781676596546117 9.668307105011396" Properties=species:S:1:pos:R:3 unique_starting_index=25 config_type=initial n_minim_iter=1 energy=-1314.1355388498678 free_energy=-1314.1355388498678 pbc="T T T"
Si       1.25286887       6.21667592       3.93088001
Si       2.13760847      -0.71855448       5.82235525
Si       1.95340930       0.77261729       7.02892836
Si       1.43706805       4.72550415       2.72430690
Si       0.19574101       6.18478841       2.16011885
Si       3.19473633      -0.68666697       7.59311641
Si       1.09806463       5.71750035       8.83308386
Si       2.29241271      -0.21937892       0.92015140
8
Lattice="3.416631205076103 0.1716916203157124 0.27698384165412376 0.21532487409129536 6.700899815758017 -0.1928178805319637 -0.24179950638647763 -1.3778744189877499 9.66493908350635" Properties=species:S:1:pos:R:3 unique_starting_index=25 config_type=initial n_minim_iter=2 stress="-0.0029768734370380786 -0.00029930067342666107 -0.0032563056335775955 -0.00029930067342666107 0.001597670159684746 0.0004924536635452683 -0.0032563056335775955 0.0004924536635452683 -0.005010786567238947" pbc="T T T"
Si       1.25325658       6.21278518       3.92907472
Si       2.13689999      -0.71806816       5.82003032
Si       1.95284471       0.77203011       7.02632690
Si       1.43731187       4.72268690       2.72277814
Si       0.19627839       6.18102731       2.15891847
Si       3.19387818      -0.68631029       7.59018657
Si       1.09780165       5.71382566       8.82928251
Si       2.29235492      -0.21910865       0.91982254
8
Lattice="3.4178941876060702 0.17230986893764016 0.2778806963170479 0.21701972829949098 6.6933699335019465 -0.19374521869376765 -0.23968944704820652 -1.3777625362511372 9.6659714118433" Properties=species:S:1:pos:R:3 unique_starting_index=25 config_type=initial n_minim_iter=3 stress="0.0005710301809691719 -0.0003269571521340952 0.0004454456368402567 -0.0003269571521340952 -0.001613200156055775 -0.0010064692261121894 0.0004454456368402567 -0.0010064692261121894 0.000229877886125543" pbc="T T T"
Si       1.25614484       6.20534629       3.92899962
Si       2.13907963      -0.71742902       5.82110727
Si       1.95575264       0.77058944       7.02774827
Si       1.43947183       4.71732783       2.72235862
Si       0.19825628       6.17397024       2.15813740
Si       3.19696819      -0.68605297       7.59196949
Si       1.10163415       5.70665688       8.82910957
Si       2.29359032      -0.21873961       0.92099732
8
Lattice="3.4180099116757896 0.17524260586145746 0.2783705559029967 0.22208951242576308 6.6957257439558555 -0.18700993591674836 -0.24004108628176207 -1.3686732864103839 9.667090901728063" Properties=species:S:1:pos:R:3 unique_starting_index=25 config_type=initial n_minim_iter=4 stress="0.0005336285775088509 8.152689266303307e-05 -0.000412588097935555 8.152689266303307e-05 0.0008462641337946875 0.0001606000165095583 -0.000412588097935555 0.0001606000165095583 0.00036403552338502246" pbc="T T T"
Si       1.26061145       6.21185974       3.93720273
Si       2.13944689      -0.70956467       5.82124880
Si       1.95777791       0.77900087       7.03237652
Si       1.44228043       4.72329419       2.72607500
Si       0.20245294       6.17948673       2.16475854
Si       3.19760540      -0.67719167       7.59369298
Si       1.10591634       5.71973147       8.83608950
Si       2.29414200      -0.21743641       0.92236202
8
Lattice="3.4153739973372597 0.17949851249784396 0.281242651989507 0.22951400507844702 6.691198888786781 -0.1768247599579811 -0.23391534638358272 -1.3536190775093624 9.663586953376484" Properties=species:S:1:pos:R:3 unique_starting_index=25 config_type=initial n_minim_iter=5 stress="-0.004961563192935816 6.092262012355418e-05 0.002925445747845053 6.092262012355418e-05 -0.0009428552387160331 0.0016524698110550436 0.002925445747845053 0.0016524698110550436 -0.0002989226152233434" pbc="T T T"
Si       1.26767281       6.21320542       3.94727875
Si       2.14329985      -0.69612709       5.82072610
Si       1.96464342       0.78998273       7.03874106
Si       1.44632923       4.72709559       2.72926378
Si       0.21066255       6.18133983       2.17541174
Si       3.20031011      -0.66426151       7.59259311
Si       1.11871989       5.73286645       8.84443025
Si       2.29225276      -0.21578813       0.92357459
8
Lattice="3.4189447777366446 0.18258838324203844 0.28004322637130635 0.2356208952059931 6.690042802469449 -0.1730534435941064 -0.23906412920122694 -1.3480065510991934 9.66328539888029" Properties=species:S:1:pos:R:3 unique_starting_index=25 config_type=initial n_minim_iter=6 stress="0.0014309403776884516 0.001778567163773243 -0.00019955313713597718 0.001778567163773243 -0.0007149081098494576 0.001415702952824109 -0.00019955313713597718 0.001415702952824109 0.0005484614406747532" pbc="T T T"
Si       1.27119992       6.21382532       3.95070668
Si       2.14430162      -0.68920069       5.81956851
Si       1.96643573       0.79459314       7.04246492
Si       1.44906582       4.73003149       2.72781026
Si       0.21488733       6.18380925       2.18023460
Si       3.20061421      -0.65918461       7.59004058
Si       1.12173216       5.73984849       8.84801435
Si       2.29376939      -0.21522386       0.92226083
8
Lattice="3.417692889262497 0.1770251955230384 0.2795219756108733 0.22520608424511127 6.695450238996345 -0.1831847126923438 -0.2373019676648095 -1.3634555858380102 9.661680757505959" Properties=species:S:1:pos:R:3 unique_starting_index=25 config_type=initial n_minim_iter=7 stress="4.454436085634731e-05 -0.00016521419583122367 0.0005226136790376728 -0.00016521419583122367 0.0011933135511646837 -0.0010917952237524218 0.0005226136790376728 -0.0010917952237524218 -0.0009973640538362334" pbc="T T T"
Si       1.25836152       6.20667301       3.93996078
Si       2.14723549      -0.69765316       5.81805724
Si       1.96798503       0.77913505       7.04697036
Si       1.43761197       4.72988480       2.71104766
Si       0.20218743       6.19098146       2.17067381
Si       3.20340957      -0.68196161       7.58734421
Si       1.11231034       5.73337021       8.83689225
Si       2.29328667      -0.22435036       0.92112577
8
Lattice="3.416672178082298 0.17441967728554852 0.27831402238969266 0.22033459755661353 6.690146831273189 -0.18283472025941874 -0.240242934735117 -1.3614000895160354 9.66836309579567" Properties=species:S:1:pos:R:3 unique_starting_index=25 config_type=initial n_minim_iter=8 stress="-0.0006472775967745175 1.432415484008636e-05 -0.00020855089392889236 1.432415484008636e-05 -0.0004481587571648051 -0.0003831005984224132 -0.00020855089392889236 -0.0003831005984224132 0.001279941534964504" pbc="T T T"
Si       1.25172655       6.19882697       3.94380829
Si       2.14503729      -0.69566055       5.82003411
Si       1.96635233       0.77621923       7.05648190
Si       1.43041151       4.72694719       2.70736049
Si       0.19449743       6.18977211       2.17205868
Si       3.20226641      -0.68660569       7.59178372
Si       1.10509803       5.73040009       8.84489049
Si       2.29166581      -0.22723367       0.91895191
8
Lattice="3.4202965902429647 0.1733348042510748 0.2799992394130161 0.21799703323712763 6.6907916160999985 -0.17903227817716177 -0.23464723845873492 -1.3564602142185755 9.657372290910795" Properties=species:S:1:pos:R:3 unique_starting_index=25 config_type=initial n_minim_iter=9 stress="0.0010814093252006112 -9.862270820486261e-05 0.0008523177746960697 -9.862270820486261e-05 7.316846331120138e-05 0.00038332097930616284 0.0008523177746960697 0.00038332097930616284 -0.0010691257012420234" pbc="T T T"
Si       1.25352171       6.20029061       3.94271065
Si       2.15012468      -0.69262440       5.81562860
Si       1.97356970       0.77799170       7.05337406
Si       1.43007668       4.72967450       2.70496519
Si       0.19279922       6.19307452       2.17240444
Si       3.21084716      -0.68540832       7.58593481
Si       1.10929405       5.73503054       8.83976331
Si       2.29435234      -0.22736434       0.91857595
8
Lattice="3.4183223391307616 0.17103548678541067 0.2776267226139618 0.21361385902229652 6.689269681372874 -0.1795600258847901 -0.24129220805472174 -1.3561905112573995 9.669496150361423" Properties=species:S:1:pos:R:3 unique_starting_index=25 config_type=initial n_minim_iter=10 stress="-0.0009999884679217034 0.00029397948952927696 -0.0011755302886542497 0.00029397948952927696 -0.0001619256242477425 0.0007081961840274126 -0.0011755302886542497 0.0007081961840274126 0.0005245231755159328" pbc="T T T"
Si       1.24877656       6.19631018       3.94252090
Si       2.14186743      -0.69219552       5.82504194
Si       1.97189403       0.77195129       7.06871777
Si       1.41874996       4.73216337       2.69884508
Si       0.18659678       6.19505360       2.17388253
Si       3.20404721      -0.69093894       7.59368032
Si       1.09767497       5.73102788       8.84976735
Si       2.29296902      -0.22691322       0.91779549
8
Lattice="3.419531610117738 0.16848203487943417 0.27803243021769036 0.2089953675159743 6.6913489778165305 -0.18502333926196304 -0.23850184434536334 -1.3645182537821168 9.666048562251985" Properties=species:S:1:pos:R:3 unique_starting_index=25 config_type=initial n_minim_iter=11 stress="-0.0005112479333262743 0.00019932336974854187 -0.0007640918842501647 0.00019932336974854187 0.0004738325086136195 0.00010467146724139523 -0.0007640918842501647 0.00010467146724139523 -0.0008138598151318425" pbc="T T T"
Si       1.24886209       6.19300879       3.93538286
Si       2.14116304      -0.69769603       5.82367479
Si       1.97715082       0.76218743       7.07039612
Si       1.41287431       4.73312533       2.68866153
Si       0.18375647       6.19713894       2.16848386
Si       3.20626867      -0.70182618       7.59057379
Si       1.09566558       5.72316362       8.84068389
Si       2.29435955      -0.22785086       0.91837376
8
Lattice="3.421481828084618 0.16239260520406637 0.2779865783004772 0.19754659821657006 6.688068538035243 -0.18762908157077604 -0.23603235069437062 -1.3673189066544507 9.66432525952858" Properties=species:S:1:pos:R:3 unique_starting_index=25 config_type=initial n_minim_iter=12 stress="0.000744713486904818 -0.0006376263855054033 0.0005840923143919368 -0.0006376263855054033 -0.0008834249642295077 0.000370867604896075 0.0005840923143919368 0.000370867604896075 0.0002722028620103608" pbc="T T T"
Si       1.23735875       6.18924734       3.93386777
Si       2.14563733      -0.70610510       5.82081499
Si       1.98083199       0.75547780       7.07304321
Si       1.40216409       4.72766444       2.68163955
Si       0.17451134       6.19608940       2.16591407
Si       3.20848473      -0.71294716       7.58876869
Si       1.08759934       5.71057029       8.83430469
Si       2.29539674      -0.22742806       0.92037807
8
Lattice="3.4205154296114775 0.16470863458627016 0.2786530724233921 0.20264906970744684 6.694754362701151 -0.1998334921955082 -0.23408685984666242 -1.386523586103346 9.664785938413903" Properties=species:S:1:pos:R:3 unique_starting_index=25 config_type=initial n_minim_iter=13 stress="0.00047818567042130983 0.0005844385155333908 0.0011287021650719607 0.0005844385155333908 -3.440851538758094e-05 -0.0006667501809906227 0.0011287021650719607 -0.0006667501809906227 0.0007530504969120198" pbc="T T T"
Si       1.24220826       6.19046071       3.92283894
Si       2.14686938      -0.71752130       5.82076658
Si       1.98672361       0.74281832       7.07469399
Si       1.40235403       4.73012109       2.66891152
Si       0.17928954       6.20055465       2.15422606
Si       3.20978810      -0.72761524       7.58937945
Si       1.09550992       5.69618718       8.82136503
Si       2.29356772      -0.22324777       0.92224049
8
Lattice="3.4207546471545314 0.16092233472756606 0.27768004718789435 0.19531959026681847 6.6933784752137955 -0.19936391550365645 -0.23554745704050445 -1.3852004217049316 9.666648884659958" Properties=species:S:1:pos:R:3 unique_starting_index=25 config_type=initial n_minim_iter=14 stress="1.1162163760016326e-05 0.00013077982964671873 0.00015014439935824293 0.00013077982964671873 0.00018546629836148397 -0.00013191779070368385 0.00015014439935824293 -0.00013191779070368385 0.00020391537205360728" pbc="T T T"
Si       1.23467295       6.18939500       3.92352734
Si       2.14585383      -0.72029461       5.82143767
Si       1.98646425       0.73888236       7.07781493
Si       1.39406253       4.73021803       2.66715009
Si       0.17043178       6.20121895       2.15629668
Si       3.21009500      -0.73211856       7.58866833
Si       1.08634931       5.69274467       8.82307172
Si       2.29417747      -0.22364429       0.92189329
8
Lattice="3.4210406160830185 0.15751086215093069 0.2769416243119359 0.1888316550057277 6.691423795382569 -0.19996884119212582 -0.2363807023241461 -1.385373139986231 9.667982658954168" Properties=species:S:1:pos:R:3 unique_starting_index=25 config_type=initial n_minim_iter=15 stress="-0.0001910215590494544 -0.00010017364201684299 -0.00035056978421797914 -0.00010017364201684299 0.00013044124761843692 0.00014565959109598837 -0.00035056978421797914 0.00014565959109598837 -0.00018247581664833314" pbc="T T T"
Si       1.22791683       6.18820473       3.92357222
Si       2.14557474      -0.72464321       5.82138322
Si       1.98711943       0.73320982       7.07934209
Si       1.38637214       4.73035169       2.66561336
Si       0.16227577       6.20142049       2.15743326
Si       3.21121580      -0.73785897       7.58752219
Si       1.07960675       5.68753152       8.82258516
Si       2.29388482      -0.22397001       0.92237028
8
Lattice="3.4212781441587983 0.1547963434525542 0.2764933943871363 0.18377800580352913 6.689700219331427 -0.20177541254359266 -0.23652442602927118 -1.387418069185515 9.66867369164213" Properties=species:S:1:pos:R:3 unique_starting_index=25 config_type=initial n_minim_iter=16 stress="-0.00014684914119670757 -0.0001640014956350341 -0.0003460754264974278 -0.0001640014956350341 3.255517043603167e-05 0.00018518961726901256 -0.0003460754264974278 0.00018518961726901256 -0.0001902309668701049" pbc="T T T"
Si       1.22254427       6.18744153       3.92271706
Si       2.14598746      -0.73036304       5.82067461
Si       1.98891735       0.72604886       7.07946036
Si       1.37961437       4.73102963       2.66393132
Si       0.15585335       6.20211641       2.15710204
Si       3.21267838      -0.74503791       7.58628964
Si       1.07515584       5.68128133       8.82033771
Si       2.29337589      -0.22420284       0.92305396
8
Lattice="3.4213585400921014 0.15350980313407162 0.2763326369083668 0.1814629257172519 6.6888205610016005 -0.20363988258221807 -0.2363382817213038 -1.3898506673302649 9.668602537498916" Properties=species:S:1:pos:R:3 unique_starting_index=25 config_type=initial n_minim_iter=17 stress="-4.084908394732153e-05 -0.00011134668998176531 -0.00015538621358517334 -0.00011134668998176531 -3.9028609155425544e-05 0.00010653848609306108 -0.00015538621358517334 0.00010653848609306108 -8.854637563749491e-05" pbc="T T T"
Si       1.22003883       6.18762529       3.92152710
Si       2.14644436      -0.73514560       5.81976819
Si       1.99070835       0.72044591       7.07838799
Si       1.37577483       4.73203379       2.66290730
Si       0.15310527       6.20338307       2.15579664
Si       3.21337791      -0.75090337       7.58549865
Si       1.07346769       5.67702018       8.81791482
Si       2.29301549      -0.22454049       0.92338047
8
Lattice="3.4212888835877324 0.15339668199749318 0.276348646281979 0.18136014085870786 6.688797866492944 -0.20515882273276226 -0.23608964756481596 -1.3920554565593848 9.668082391276506" Properties=species:S:1:pos:R:3 unique_starting_index=25 config_type=initial n_minim_iter=18 stress="3.258119763057204e-05 -2.777193770805432e-05 3.217431470965062e-05 -2.777193770805432e-05 -5.373368748314624e-05 8.259410835590818e-06 3.217431470965062e-05 8.259410835590818e-06 1.6142355273192615e-05" pbc="T T T"
Si       1.21994671       6.18863313       3.92025378
Si       2.14661267      -0.73849404       5.81901843
Si       1.99196038       0.71703022       7.07695095
Si       1.37459899       4.73310887       2.66232126
Si       0.15330720       6.20505308       2.15410969
Si       3.21325218      -0.75491399       7.58516252
Si       1.07361919       5.67507598       8.81600559
Si       2.29294018      -0.22493689       0.92326662
8
Lattice="3.421186634452485 0.15388046359751203 0.2764121131856238 0.18232526608671085 6.689229818532613 -0.20574271700599034 -0.23601417727840776 -1.3930355071834128 9.667655441597505" Properties=species:S:1:pos:R:3 unique_starting_index=25 config_type=initial n_minim_iter=19 stress="3.202647773711594e-05 5.387428608633159e-06 6.585745899316382e-05 5.387428608633159e-06 -2.2468368152868263e-05 -2.1769595390498186e-05 6.585745899316382e-05 -2.1769595390498186e-05 4.231538003456141e-05" pbc="T T T"
Si       1.22105370       6.18958847       3.91952745
Si       2.14644402      -0.73951370       5.81879739
Si       1.99212440       0.71640676       7.07630458
Si       1.37537332       4.73366801       2.66202026
Si       0.15472262       6.20610242       2.15314160
Si       3.21277510      -0.75602765       7.58518323
Si       1.07441574       5.67521459       8.81535582
Si       2.29308199      -0.22513981       0.92296902
8
Lattice="3.4211391719522046 0.15428133405330127 0.2764485064365139 0.18310892198282627 6.68953970714784 -0.20595900002109593 -0.23603009474657738 -1.3934453748160562 9.667422694757473" Properties=species:S:1:pos:R:3 unique_starting_index=25 config_type=initial n_minim_iter=20 stress="9.856596171178649e-06 5.945621564492483e-06 3.322764772044189e-05 5.945621564492483e-06 3.3467259194448305e-06 -1.3148477313064338e-05 3.322764772044189e-05 -1.3148477313064338e-05 2.8656917062351027e-05" pbc="T T T"
Si       1.22195551       6.19013551       3.91913789
Si       2.14626249      -0.73975984       5.81877431
Si       1.99186351       0.71645499       7.07622841
Si       1.37635449       4.73392068       2.66168379
Si       0.15573621       6.20654555       2.15270908
Si       3.21248179      -0.75616988       7.58520313
Si       1.07499418       5.67554109       8.81513957
Si       2.29322382      -0.22516542       0.92277263
8
Lattice="3.4211306888852744 0.15499538800199025 0.2764964794818629 0.18453365027646482 6.6899070822921916 -0.2065148813016469 -0.2361003412933309 -1.3943834935035446 9.666999255988936" Properties=species:S:1:pos:R:3 unique_starting_index=25 config_type=initial n_minim_iter=21 stress="-3.592366169919952e-05 -7.61916138988294e-06 -5.49690752056251e-05 -7.61916138988294e-06 3.729482939654369e-05 1.9147627347449615e-05 -5.49690752056251e-05 1.9147627347449615e-05 -2.2603759383505263e-05" pbc="T T T"
Si       1.22357223       6.19095455       3.91830184
Si       2.14599177      -0.74043558       5.81867902
Si       1.99096341       0.71607771       7.07639205
Si       1.37860059       4.73444127       2.66058880
Si       0.15741079       6.20701970       2.15190879
Si       3.21215321      -0.75650072       7.58507207
Si       1.07607244       5.67553710       8.81446160
Si       2.29349155      -0.22501812       0.92251925
