16
Lattice="5.011033008325556 -1.2670644598981087 1.417410133659249 0.05102267216776902 9.30494152131556 -0.9994969024884717 2.077049374083614 1.812939646597344 10.841515822639659" Properties=species:S:1:pos:R:3 unique_starting_index=65 config_type=initial n_minim_iter=1 energy=-2627.0461953704325 free_energy=-2627.0461953704325 pbc="T T T"
Si       3.33168569       5.84736398       5.08078063
Si       2.91734762       5.02505842       3.36673645
Si       2.82579166       9.73478383       8.36975641
Si       4.29268830       9.03636549       6.16406779
Si       2.45024952       3.03504950       3.28671698
Si       0.98830913       2.29760108       2.13427500
Si       3.91154156       6.77710613       3.40814883
Si       4.18770865       3.57177251       2.82429028
Si       2.81007282       0.59832709       6.55679567
Si       3.02642616       8.29119377       5.90572690
Si       2.56380218       1.21097825       2.54539638
Si       4.31625127       1.30929938       7.21002608
Si       0.57585945       0.09656619       0.92814733
Si       4.44201088       1.63783908       2.48020095
Si       4.80564113       7.00179742       1.62887493
Si       4.54679775       5.68250486       1.33465919
16
Lattice="5.009808709674919 -1.2515498080599574 1.425189871133007 0.07082847837120242 9.318498954882429 -0.9610780779812708 2.098776811285267 1.8702266654260677 10.893468171794789" Properties=species:S:1:pos:R:3 unique_starting_index=65 config_type=initial n_minim_iter=2 stress="0.007387328993183668 -0.004872690274122368 -0.008050712284101598 -0.004872690274122368 0.015754408541304277 0.000557655138331071 -0.008050712284101598 0.000557655138331071 0.018496575149420196" pbc="T T T"
Si       3.35315093       5.88919124       5.13048183
Si       2.93543556       5.05757251       3.40681011
Si       2.86134532       9.79733923       8.45221239
Si       4.32322811       9.09195391       6.23264724
Si       2.46180896       3.06119089       3.31771784
Si       0.99705593       2.31478175       2.15468335
Si       3.93041398       6.81356254       3.45969732
Si       4.20007672       3.60252183       2.85767803
Si       2.82244497       0.63429704       6.58842349
Si       3.05523388       8.34121965       5.97031223
Si       2.56993525       1.23081660       2.56430118
Si       4.32987921       1.35327875       7.25006648
Si       0.57832630       0.10246997       0.93229581
Si       4.44936101       1.66288094       2.50410934
Si       4.82414955       7.03445694       1.67357490
Si       4.56170252       5.70901543       1.37187048
16
Lattice="4.998723824170046 -1.2226173711654313 1.437573228999479 0.1019073287308932 9.28595503617213 -0.9192415369134503 2.1457341889024426 1.9185206755890905 10.886109632860297" Properties=species:S:1:pos:R:3 unique_starting_index=65 config_type=initial n_minim_iter=3 stress="-0.013839021330089228 -0.0012929954719285556 0.008236224851528508 -0.0012929954719285556 0.004268656722024446 0.008988106666575249 0.008236224851528508 0.008988106666575249 -0.01808804660950123" pbc="T T T"
Si       3.38834861       5.90529723       5.15603215
Si       2.96419323       5.06915863       3.43312421
Si       2.92598540       9.81288824       8.49181027
Si       4.37284608       9.10743322       6.27110737
Si       2.47999447       3.07492652       3.33555097
Si       1.01248213       2.32211362       2.16477198
Si       3.95775800       6.82006718       3.49923503
Si       4.21527184       3.62221379       2.88386599
Si       2.84633098       0.66837077       6.58845115
Si       3.10471486       8.35334180       6.00606428
Si       2.57779694       1.24770835       2.57395269
Si       4.35294380       1.39397922       7.25815461
Si       0.58267752       0.10836354       0.93123674
Si       4.45532300       1.68609196       2.52411268
Si       4.84588036       7.03927559       1.71899781
Si       4.57823692       5.71294887       1.41022102
16
Lattice="5.00937446066999 -1.1834047926610094 1.4518174016925653 0.15311507952558065 9.205717776827477 -0.924245269910849 2.1829590363941556 1.9123192899856414 10.923676645857272" Properties=species:S:1:pos:R:3 unique_starting_index=65 config_type=initial n_minim_iter=4 stress="-0.011604180911067755 -0.002148320571996353 -0.00021314260814705045 -0.002148320571996353 -0.025812879369093635 -0.0004104641267104976 -0.00021314260814705045 -0.0004104641267104976 0.0015316120221736248" pbc="T T T"
Si       3.44074322       5.87195604       5.17310283
Si       3.01346283       5.04541528       3.44933052
Si       3.00559934       9.74152644       8.53051801
Si       4.44931417       9.05336719       6.28709869
Si       2.50829245       3.06172546       3.35414279
Si       1.03321087       2.31088655       2.17476002
Si       4.00700079       6.77835194       3.52143465
Si       4.25435185       3.61919193       2.89964612
Si       2.87347672       0.67193539       6.61489693
Si       3.17401673       8.30014084       6.03140898
Si       2.59476652       1.25099639       2.58501439
Si       4.38404775       1.40084153       7.28887225
Si       0.58994979       0.11055535       0.93062860
Si       4.48352693       1.69838279       2.53989897
Si       4.90405440       7.00785339       1.72894269
Si       4.62751327       5.68618026       1.41912421
16
Lattice="5.046909789421737 -1.1585780948186124 1.4628412687722183 0.21026835911965777 9.237511935589524 -0.941321427362055 2.238653750556664 1.9078692651154958 10.893876482065604" Properties=species:S:1:pos:R:3 unique_starting_index=65 config_type=initial n_minim_iter=5 stress="0.012971475875475827 0.005707044708975604 0.007494691575929538 0.005707044708975604 -0.003760328528178325 -0.006721784168622932 0.007494691575929538 -0.006721784168622932 -0.006491020126832319" pbc="T T T"
Si       3.51705308       5.89949904       5.14913914
Si       3.08322239       5.07558266       3.43799211
Si       3.11258029       9.77037628       8.49989227
Si       4.55834786       9.09706809       6.24854140
Si       2.55237039       3.07993754       3.34981120
Si       1.06236680       2.32527001       2.16880199
Si       4.08504898       6.81517942       3.50897934
Si       4.32043441       3.65613162       2.89418121
Si       2.92091347       0.66882235       6.60412990
Si       3.26935896       8.33794722       6.00862254
Si       2.62722969       1.26474968       2.57916044
Si       4.44185867       1.41066558       7.27633244
Si       0.60190436       0.11252282       0.92293953
Si       4.53862853       1.72849117       2.54003339
Si       4.99136122       7.05956719       1.72281053
Si       4.70585675       5.72606899       1.41131550
16
Lattice="5.012203817954895 -1.1404385625061402 1.4197799059748206 0.2632650304331467 9.287108791322964 -0.9361496436381416 2.1552682979002746 1.9314228548299255 10.852703210030205" Properties=species:S:1:pos:R:3 unique_starting_index=65 config_type=initial n_minim_iter=6 stress="-0.002701526886899621 0.005279832485450025 -0.012579737043114728 0.005279832485450025 0.0006370636522413896 -0.0013423414434502636 -0.012579737043114728 -0.0013423414434502636 -0.007365059708548315" pbc="T T T"
Si       3.48826415       5.94457205       5.09653797
Si       3.08591203       5.12856539       3.41595715
Si       3.08947722       9.83168836       8.47034502
Si       4.54022546       9.17039108       6.16367708
Si       2.51954458       3.11364176       3.34219335
Si       1.05832297       2.36492305       2.16733365
Si       4.05765346       6.86418543       3.47247792
Si       4.30483041       3.71222725       2.85627799
Si       2.87592745       0.65592753       6.57637334
Si       3.26495699       8.41835708       5.98822035
Si       2.59554737       1.28116840       2.54492171
Si       4.36053713       1.42003937       7.22697326
Si       0.60558653       0.11531890       0.89766538
Si       4.51645702       1.76596890       2.50003500
Si       4.98577177       7.12881730       1.70273867
Si       4.70978868       5.76729605       1.36914619
16
Lattice="5.034293402279727 -1.1548842809662554 1.467317754689386 0.226329284309602 9.267770034736763 -0.9504155474179958 2.2328215930822704 1.911553945254357 10.938265579359673" Properties=species:S:1:pos:R:3 unique_starting_index=65 config_type=initial n_minim_iter=7 stress="0.01430774416272323 -0.004494822880925127 0.001924065756228443 -0.004494822880925127 0.014097681601532007 0.006714853414850072 0.001924065756228443 0.006714853414850072 0.006748620596243245" pbc="T T T"
Si       3.50830097       5.91733625       5.14216343
Si       3.10348741       5.10486392       3.45885092
Si       3.13062921       9.78811647       8.53503045
Si       4.56078891       9.13349894       6.20910839
Si       2.53254034       3.10012958       3.38927475
Si       1.07112262       2.36748953       2.19245258
Si       4.05776587       6.83411390       3.51747408
Si       4.32216260       3.69626630       2.90344470
Si       2.93515228       0.62061330       6.64620105
Si       3.29434804       8.39396119       6.05001534
Si       2.61068945       1.26855267       2.57488887
Si       4.40686693       1.38630822       7.30619353
Si       0.61820744       0.11178994       0.90037709
Si       4.53808791       1.74978826       2.54771193
Si       4.97721486       7.10002979       1.75385794
Si       4.71112561       5.73694780       1.40549634
16
Lattice="4.984652975300682 -1.1254807689496242 1.520055598674423 0.2879187930988123 9.269607029627682 -1.0124622391866067 2.295291701544475 1.8643217704617032 11.04343863816075" Properties=species:S:1:pos:R:3 unique_starting_index=65 config_type=initial n_minim_iter=8 stress="-0.0019979731474909766 0.006782551452029216 -0.0008218054917355766 0.006782551452029216 -0.006909461348371573 -0.009526234365153359 -0.0008218054917355766 -0.009526234365153359 0.02566874012490395" pbc="T T T"
Si       3.54437759       5.91393271       5.16756424
Si       3.13149078       5.09354686       3.48442270
Si       3.23672655       9.74517659       8.56184360
Si       4.61863302       9.12998482       6.21675224
Si       2.54556116       3.09334604       3.43036200
Si       1.09627410       2.38252245       2.21380363
Si       4.07650695       6.84852521       3.54286340
Si       4.32720641       3.71895596       2.93867016
Si       2.96766701       0.56931724       6.73544273
Si       3.37621374       8.38780592       6.08847400
Si       2.60616460       1.28588378       2.60605834
Si       4.40604545       1.36001330       7.39507171
Si       0.62616152       0.10979823       0.90273363
Si       4.52518141       1.77370776       2.59015268
Si       4.98839250       7.12665134       1.76778000
Si       4.72300443       5.76129281       1.41513275
16
Lattice="4.988958702208521 -1.141589824342616 1.5097480618534227 0.2520984461196346 9.267562608270042 -0.9859810189881403 2.2861114041655655 1.8820129531781553 10.9985735579882" Properties=species:S:1:pos:R:3 unique_starting_index=65 config_type=initial n_minim_iter=9 stress="-0.005340872790343508 0.0027526391514266333 0.0009464911520888497 0.0027526391514266333 -0.01175821761917519 -0.0032241816195405226 0.0009464911520888497 -0.0032241816195405226 0.0006281077834995676" pbc="T T T"
Si       3.51394329       5.91962377       5.15034135
Si       3.10455732       5.07613920       3.48291209
Si       3.19946837       9.74542283       8.53857688
Si       4.57609827       9.13228699       6.18860217
Si       2.52839769       3.09237693       3.43382008
Si       1.08886817       2.40319562       2.21491172
Si       4.03281501       6.85188326       3.55569494
Si       4.31489038       3.71660340       2.93538616
Si       2.98190813       0.54082527       6.71850584
Si       3.35342943       8.39014358       6.08666141
Si       2.59772290       1.29326547       2.59456486
Si       4.38874247       1.34921714       7.36274369
Si       0.63025468       0.10574544       0.89171802
Si       4.52173682       1.76756804       2.58214999
Si       4.96200352       7.11446329       1.77173271
Si       4.71018466       5.75392105       1.42290974
16
Lattice="4.96277762292366 -1.1733342357237948 1.5202338432469458 0.2164435404278196 9.330488151530178 -1.0204083143805247 2.276614663979185 1.8465917921519002 11.0017196148515" Properties=species:S:1:pos:R:3 unique_starting_index=65 config_type=initial n_minim_iter=10 stress="-0.011651425007561162 0.00253366361880595 -0.0026326265280954926 0.00253366361880595 -0.004048067195123875 -0.00429015019221061 -0.0026326265280954926 -0.00429015019221061 0.006599223159083711" pbc="T T T"
Si       3.46720254       5.93755923       5.13367821
Si       3.06354773       5.07842504       3.47092733
Si       3.14821893       9.76514419       8.52415676
Si       4.51639077       9.15751975       6.15039721
Si       2.50565714       3.09129179       3.44229929
Si       1.07414356       2.42348813       2.20739585
Si       3.97018512       6.87542738       3.53470114
Si       4.27857709       3.71556553       2.93245823
Si       2.98917626       0.47611485       6.72702427
Si       3.31701359       8.38457840       6.05835481
Si       2.57840789       1.29709800       2.59112796
Si       4.36020129       1.31361544       7.35641521
Si       0.62873347       0.09427684       0.88758323
Si       4.49309574       1.75843027       2.58146287
Si       4.90440599       7.13185847       1.75529768
Si       4.67444831       5.78578702       1.41529695
16
Lattice="4.992829679199865 -1.1756084452792546 1.5071976825075013 0.21286476952036382 9.345707503476804 -0.9988063870712072 2.281344073971183 1.867854481865687 10.945424565070722" Properties=species:S:1:pos:R:3 unique_starting_index=65 config_type=initial n_minim_iter=11 stress="0.0016236137393175066 -0.004005083854152892 3.4189017716842574e-05 -0.004005083854152892 -0.012363569121045637 -0.0009148861825089628 3.4189017716842574e-05 -0.0009148861825089628 0.00019914592518155302" pbc="T T T"
Si       3.47084513       5.96524758       5.11331744
Si       3.07321520       5.09828395       3.46056359
Si       3.15200330       9.79448702       8.48977480
Si       4.53338161       9.18872701       6.12565713
Si       2.51957111       3.09983902       3.44449098
Si       1.07416850       2.44638514       2.19404621
Si       3.96496518       6.88931695       3.52144930
Si       4.30385184       3.72288939       2.92459313
Si       3.02257120       0.45325347       6.69106254
Si       3.33401728       8.37249937       6.03206842
Si       2.59127078       1.32200296       2.57632482
Si       4.37895924       1.32927766       7.30367313
Si       0.63227970       0.09011804       0.88338524
Si       4.52193184       1.77411671       2.56745325
Si       4.92563080       7.14305082       1.76190581
Si       4.71033325       5.81189988       1.43085370
16
Lattice="4.973490750606928 -1.1809848890640504 1.5058269401560902 0.23311379149717376 9.43984578024437 -1.0212652492151637 2.2847494158168273 1.8573156613593067 10.878264294686293" Properties=species:S:1:pos:R:3 unique_starting_index=65 config_type=initial n_minim_iter=12 stress="-0.007320710978155951 0.003722896778897328 0.00021918289111014827 0.003722896778897328 0.011851203463752819 0.0010431639221930085 0.00021918289111014827 0.0010431639221930085 -0.0087094269972977" pbc="T T T"
Si       3.46392289       6.01610904       5.06578092
Si       3.06997973       5.14485322       3.42816440
Si       3.17283557       9.86779519       8.40797147
Si       4.54306147       9.27290634       6.06449419
Si       2.52727895       3.13890659       3.44079809
Si       1.07461701       2.48087107       2.16655694
Si       3.94171486       6.95225511       3.48644148
Si       4.30284970       3.75982027       2.90313179
Si       3.03287934       0.40956691       6.64379604
Si       3.35477273       8.40374635       5.96891297
Si       2.58804149       1.34471096       2.55113903
Si       4.36915843       1.33452677       7.24569760
Si       0.62877610       0.08380591       0.88281307
Si       4.51527853       1.80529723       2.54820382
Si       4.92538978       7.22258838       1.73482239
Si       4.71730145       5.88464711       1.42993941
16
Lattice="4.9920339862545005 -1.1899885454585117 1.497863719683545 0.22247668797134598 9.462017347995717 -1.0166635283405534 2.2875405446838624 1.8588322638831103 10.824499999995112" Properties=species:S:1:pos:R:3 unique_starting_index=65 config_type=initial n_minim_iter=13 stress="-0.001075718068044195 0.0022990423648492223 0.0013008883964707833 0.0022990423648492223 0.0010526640730205298 -0.002093605319385928 0.0013008883964707833 -0.002093605319385928 -0.008879654079811596" pbc="T T T"
Si       3.45472044       6.01520527       5.03646016
Si       3.06290877       5.14902289       3.41156662
Si       3.17324295       9.88358538       8.37106957
Si       4.55086344       9.28836852       6.02996991
Si       2.53830013       3.14707216       3.43923365
Si       1.07521318       2.50171052       2.14819741
Si       3.92216634       6.96677143       3.47030801
Si       4.31727546       3.76867735       2.89076423
Si       3.04974974       0.37253694       6.59209906
Si       3.36843732       8.38930809       5.93242126
Si       2.59764452       1.37190859       2.53539768
Si       4.37837931       1.33839429       7.19459275
Si       0.62806413       0.07880658       0.88491647
Si       4.53114225       1.81556363       2.53074933
Si       4.92846360       7.24378045       1.73453711
Si       4.73377929       5.89784047       1.44262714
16
Lattice="5.015766725143768 -1.2019808278738224 1.4912672047538549 0.22353804486911677 9.540430594579274 -1.0235403234696856 2.307507771822796 1.854936706593358 10.719409886902879" Properties=species:S:1:pos:R:3 unique_starting_index=65 config_type=initial n_minim_iter=14 stress="0.0021420598637306725 -0.002533343997258157 0.004301691601483996 -0.002533343997258157 0.007338127828592735 0.003573991065667573 0.004301691601483996 0.003573991065667573 -0.008633959400254925" pbc="T T T"
Si       3.45080796       6.01204819       4.97873818
Si       3.06331536       5.18586822       3.37369756
Si       3.20465051       9.93549649       8.28389091
Si       4.59345093       9.34488382       5.94951026
Si       2.56534423       3.18717399       3.43599411
Si       1.09379913       2.55305243       2.11162305
Si       3.88783941       7.00810694       3.44350489
Si       4.34745689       3.80771827       2.86944071
Si       3.06994457       0.29341692       6.49220918
Si       3.42891362       8.41186755       5.85843097
Si       2.61768993       1.42401366       2.49447205
Si       4.39433524       1.34098550       7.10350672
Si       0.63249808       0.07717885       0.89043818
Si       4.55678681       1.85286324       2.49461978
Si       4.93511604       7.31998691       1.73051164
Si       4.77654342       5.95769925       1.45171814
16
Lattice="5.036475557403791 -1.169602626833978 1.4741714590031978 0.2785148566056977 9.52209022435718 -1.008941879421323 2.3083144654142678 1.876020354695548 10.676402692165984" Properties=species:S:1:pos:R:3 unique_starting_index=65 config_type=initial n_minim_iter=15 stress="0.010137658655155299 0.003709144529622546 -0.002741484905497977 0.003709144529622546 0.012107777890166645 0.010397939452241047 -0.002741484905497977 0.010397939452241047 0.00899868701162501" pbc="T T T"
Si       3.48254290       5.99982573       4.96688319
Si       3.08974093       5.18777742       3.35747132
Si       3.26563554       9.93954309       8.25822835
Si       4.66934387       9.35307014       5.91589299
Si       2.59529175       3.21325039       3.43805169
Si       1.12121587       2.57775600       2.09634150
Si       3.91555823       7.01936698       3.44432886
Si       4.39121772       3.83350233       2.85830971
Si       3.07209270       0.28125213       6.44344637
Si       3.50999639       8.40328586       5.83586639
Si       2.63992048       1.46080037       2.46663328
Si       4.40079556       1.36420846       7.05753593
Si       0.63881982       0.08361193       0.89314722
Si       4.59052868       1.90163395       2.46935080
Si       4.98299159       7.34750987       1.74269790
Si       4.84500014       5.98078614       1.45683474
16
Lattice="5.045281024773798 -1.1927521810691761 1.4784997064047642 0.2573702966107465 9.57884989075489 -1.0381555803018263 2.3207934950604483 1.8420098857333367 10.618281986312946" Properties=species:S:1:pos:R:3 unique_starting_index=65 config_type=initial n_minim_iter=16 stress="0.010508300680206138 0.0015645575019180586 -0.0006609489542722064 0.0015645575019180586 0.00542030511552903 0.0021702722577837197 -0.0006609489542722064 0.0021702722577837197 0.002886432595534717" pbc="T T T"
Si       3.47152222       5.97740673       4.93778302
Si       3.07490259       5.19369494       3.31984133
Si       3.26603416       9.95586063       8.18266056
Si       4.67321869       9.36434527       5.84416655
Si       2.59875453       3.21746581       3.42252751
Si       1.13458713       2.60529495       2.06757923
Si       3.87945453       7.02938947       3.43204382
Si       4.39214178       3.84285086       2.84158175
Si       3.07353577       0.22206307       6.39671952
Si       3.53642803       8.40405861       5.77825607
Si       2.65112905       1.48453842       2.43784972
Si       4.39409182       1.32312692       7.01166446
Si       0.64618435       0.08329143       0.89760969
Si       4.59317121       1.91751446       2.44459506
Si       4.95446279       7.38724105       1.73320525
Si       4.84805039       6.00193919       1.44451798
16
Lattice="5.036879639583111 -1.2270604630861524 1.5034018162238876 0.21743731176067427 9.634550559951338 -1.0902738453871474 2.352215829675317 1.779544283427848 10.585631860278262" Properties=species:S:1:pos:R:3 unique_starting_index=65 config_type=initial n_minim_iter=17 stress="0.005197868585198101 -0.0064148182085908105 0.0022715343851259346 -0.0064148182085908105 0.010272354118306992 0.00287787641966405 0.0022715343851259346 0.00287787641966405 0.006154493198758622" pbc="T T T"
Si       3.46974298       5.91727575       4.96624340
Si       3.03911878       5.18067586       3.26940355
Si       3.25586117       9.94796542       8.10643921
Si       4.66265220       9.34236975       5.75962544
Si       2.59109812       3.20637398       3.40672914
Si       1.15443806       2.62930945       2.01884707
Si       3.83857613       6.99876040       3.46214494
Si       4.36661834       3.86869639       2.84151159
Si       3.05963731       0.15739863       6.38000317
Si       3.57295572       8.39751941       5.73723278
Si       2.65457507       1.49615833       2.39020487
Si       4.36442946       1.22516625       6.97311900
Si       0.66583234       0.08727003       0.91780639
Si       4.59212070       1.92496798       2.41768671
Si       4.87996918       7.42827084       1.73879198
Si       4.81888928       6.01094953       1.42760024
16
Lattice="5.013763116976371 -1.1866881434798906 1.5212578282293094 0.2895835445250023 9.62158546221964 -1.1053147924537572 2.403737878796756 1.771562056601052 10.55068923722444" Properties=species:S:1:pos:R:3 unique_starting_index=65 config_type=initial n_minim_iter=18 stress="-0.009879130552761156 0.005086371807777657 0.0035556936962470587 0.005086371807777657 -0.00802839674378088 -0.006499067176730907 0.0035556936962470587 -0.006499067176730907 -0.015130845862850892" pbc="T T T"
Si       3.55107485       5.89300665       5.00799578
Si       3.05717320       5.18781676       3.24952433
Si       3.35396883       9.94598873       8.06967427
Si       4.73706545       9.35218379       5.70900310
Si       2.60668630       3.20980889       3.38132862
Si       1.18902467       2.65019636       1.97634521
Si       3.91068971       6.97673402       3.51027980
Si       4.38656205       3.90645649       2.85262189
Si       3.06323227       0.14520665       6.38240827
Si       3.65670304       8.37641498       5.71262922
Si       2.68457534       1.52003640       2.34873554
Si       4.36828750       1.21719059       6.91078417
Si       0.68545146       0.08884821       0.93422718
Si       4.61627431       1.98866567       2.40679031
Si       4.91617863       7.46318212       1.75917181
Si       4.85431571       6.07799406       1.43791581
16
Lattice="5.015842751641139 -1.1784470742260387 1.5101075068889462 0.2818510890422518 9.566205885708348 -1.0654451860814327 2.383556358750644 1.8091852861325037 10.583971770497769" Properties=species:S:1:pos:R:3 unique_starting_index=65 config_type=initial n_minim_iter=19 stress="-0.00999650434383968 0.0038032192471916556 0.0003738492329869927 0.0038032192471916556 -0.009729565383444215 0.0008515139026079256 0.0003738492329869927 0.0008515139026079256 -0.004069143984640917" pbc="T T T"
Si       3.55371658       5.87935117       5.05024653
Si       3.04667038       5.17490098       3.28419491
Si       3.32507656       9.94455063       8.13086441
Si       4.70760780       9.32389518       5.76474718
Si       2.59063773       3.19578110       3.37887880
Si       1.17842471       2.62987263       1.98569580
Si       3.93632955       6.95174100       3.54009355
Si       4.37402387       3.90499181       2.87490978
Si       3.04486966       0.19469518       6.40251187
Si       3.61001462       8.36234449       5.77273127
Si       2.68646620       1.50389957       2.35360882
Si       4.36230706       1.24058312       6.92095478
Si       0.68814940       0.08991650       0.93601547
Si       4.61430498       1.97442333       2.41241192
Si       4.92887739       7.42734843       1.77946931
Si       4.83636813       6.04935911       1.46115812
16
Lattice="5.032372992253294 -1.197733333956829 1.4981315274676377 0.2529547272059152 9.596502284801801 -1.0537732179140662 2.372154964389366 1.8175449187894976 10.539705463267065" Properties=species:S:1:pos:R:3 unique_starting_index=65 config_type=initial n_minim_iter=20 stress="-0.0018751133754963541 -0.002046148516998193 -0.0018767419934172306 -0.002046148516998193 0.011612313523982646 0.0052379604904847325 -0.0018767419934172306 0.0052379604904847325 0.0025641708456897723" pbc="T T T"
Si       3.54631739       5.86050451       5.04505241
Si       3.02233821       5.19136158       3.28974768
Si       3.28952291       9.98119924       8.10243527
Si       4.66636452       9.33415748       5.73375009
Si       2.57981658       3.19675142       3.36005525
Si       1.17798432       2.65171014       1.95758207
Si       3.92792243       6.95326624       3.54757629
Si       4.36326421       3.93299518       2.88048947
Si       3.04034150       0.16482744       6.36134707
Si       3.57591063       8.35784476       5.76565284
Si       2.69817326       1.51671751       2.31450943
Si       4.34919219       1.22704805       6.86068103
Si       0.70520552       0.08903107       0.93865795
Si       4.62687559       1.98814884       2.38515353
Si       4.93395326       7.45973820       1.78450590
Si       4.82904949       6.06589514       1.47172290
16
Lattice="5.044793531034702 -1.2166362840808602 1.4942575911228408 0.2145604898085768 9.598048155577159 -1.0375687480346967 2.3714657079794534 1.8253458752778444 10.513507699210567" Properties=species:S:1:pos:R:3 unique_starting_index=65 config_type=initial n_minim_iter=21 stress="0.0019217563454171894 -0.005306846184402241 0.000980503900650402 -0.005306846184402241 0.01063963194591728 0.005280131702546129 0.000980503900650402 0.005280131702546129 0.004050520867418689" pbc="T T T"
Si       3.54132814       5.82311109       5.05435794
Si       2.99282139       5.19596919       3.31044468
Si       3.25187985       9.98862339       8.09724189
Si       4.61522862       9.31262009       5.72404187
Si       2.56774010       3.18648002       3.34770549
Si       1.17588036       2.66114441       1.93419400
Si       3.92268499       6.93798579       3.57157432
Si       4.34701438       3.92726116       2.89776312
Si       3.03740594       0.14115668       6.33167649
Si       3.53247813       8.33756350       5.77896238
Si       2.70994507       1.51956276       2.28087314
Si       4.33663466       1.20928817       6.81702931
Si       0.72671876       0.09220063       0.94210931
Si       4.63184368       2.01297559       2.37140356
Si       4.93371908       7.46729469       1.80027312
Si       4.81029396       6.06100617       1.48864749
