8
Lattice="5.586652515579998 -0.5108552342297765 -0.4035536207145348 1.1958041948765772 5.481031994769991 -0.4035536207140005 1.195804194876983 0.8762839887157376 5.425559291317638" Properties=species:S:1:pos:R:3 unique_starting_index=42 config_type=initial n_minim_iter=1 energy=-1303.6546163225053 free_energy=-1303.6546163225053 pbc="T T T"
Si       4.57371164       5.08987791       1.17120522
Si       6.23123277       1.79407253       2.48001188
Si       3.58783753       3.66306423       4.68046999
Si       6.14334564       5.46618075       2.36461589
Si       7.06289382       3.27531591       3.54951721
Si       5.25080468       4.78380485       4.77027224
Si       5.21133085       3.81885748       3.01673284
Si       1.84634423       1.35299901       1.06881091
8
Lattice="5.583972951854137 -0.5092898686800023 -0.4023170493866434 1.19648965144159 5.478005349702782 -0.402317049386107 1.1964896514419978 0.876786290526899 5.422328597599206" Properties=species:S:1:pos:R:3 unique_starting_index=42 config_type=initial n_minim_iter=2 stress="-0.015992466539227056 -0.009711934607596574 -0.00767200982277212 -0.009711934607596574 -0.009856155539233448 -0.005622040295363659 -0.00767200982277212 -0.005622040295363659 -0.007180430184650826" pbc="T T T"
Si       4.57293824       5.08812655       1.17188059
Si       6.22932978       1.79468096       2.47965133
Si       3.58784444       3.66225097       4.67860986
Si       6.14223023       5.46436388       2.36525352
Si       7.06082534       3.27581671       3.54886734
Si       5.25065910       4.78268109       4.76835712
Si       5.21102574       3.81863389       3.01655622
Si       1.84610237       1.35282178       1.06867091
8
Lattice="5.587343689450399 -0.5032442484845789 -0.3975412699566804 1.2032698451832804 5.479398320741708 -0.39754126995613986 1.20326984518369 0.8817548089864339 5.4225781207368255" Properties=species:S:1:pos:R:3 unique_starting_index=42 config_type=initial n_minim_iter=3 stress="-0.002096554543399663 -7.2888831519515706e-06 -5.757903592059865e-06 -7.2888831519515706e-06 -0.002091949193820415 -4.219385355990947e-06 -5.757903592059865e-06 -4.219385355990947e-06 -0.0020899410409294743" pbc="T T T"
Si       4.58271522       5.09446647       1.17864644
Si       6.23832043       1.80297913       2.48529661
Si       3.59846550       3.66914887       4.68321124
Si       6.15538091       5.47279700       2.37450696
Si       7.07282825       3.28713365       3.55645290
Si       5.26506613       4.79192099       4.77441895
Si       5.22263654       3.82714227       3.02327747
Si       1.85023227       1.35584816       1.07106162
8
Lattice="5.583886867289982 -0.4921590320186643 -0.3887844266447848 1.212798794528778 5.472762752347398 -0.3887844266442261 1.2127987945292018 0.8887376125060359 5.414095578210477" Properties=species:S:1:pos:R:3 unique_starting_index=42 config_type=initial n_minim_iter=4 stress="0.01823786339966664 0.00529958958659165 0.004186447397740326 0.00529958958659165 0.01488941314855771 0.0030678240133183497 0.004186447397740326 0.0030678240133183497 0.013429328541483224" pbc="T T T"
Si       4.58736709       5.11654354       1.19245214
Si       6.26077331       1.81589708       2.47994598
Si       3.61754711       3.66799917       4.70149250
Si       6.15241073       5.47315701       2.40478314
Si       7.07227679       3.31590659       3.54658311
Si       5.29233638       4.78019101       4.76776015
Si       5.20861182       3.81686497       3.01515885
Si       1.87235907       1.37206265       1.08387037
8
Lattice="5.595023032957397 -0.5228556546267314 -0.4130334356930514 1.1868827614510489 5.4926287044974895 -0.41303343569246254 1.1868827614514954 0.8697463721889731 5.4390355719128" Properties=species:S:1:pos:R:3 unique_starting_index=42 config_type=initial n_minim_iter=5 stress="0.017713992082464464 0.0019873876700812806 0.0015699506166855408 0.0019873876700812806 0.01645829696984562 0.0011504580719837968 0.0015699506166855408 0.0011504580719837968 0.015910753787891446" pbc="T T T"
Si       4.55158074       5.13145037       1.16442354
Si       6.26420737       1.77969052       2.44886913
Si       3.58405690       3.64104959       4.72248308
Si       6.10560070       5.44932904       2.40263645
Si       7.03545458       3.30514666       3.51063999
Si       5.27098391       4.73784622       4.74507646
Si       5.16454127       3.78457012       2.98964731
Si       1.88369471       1.38036940       1.09043234
8
Lattice="5.567386915059558 -0.5245466775810218 -0.41436927095555437 1.176945156104342 5.466785744700512 -0.41436927095495607 1.1769451561047954 0.8624641060045853 5.4142039061181615" Properties=species:S:1:pos:R:3 unique_starting_index=42 config_type=initial n_minim_iter=6 stress="0.007503525862003485 0.003719563163705621 0.0029382946118703614 0.003719563163705621 0.005153386854841515 0.002153179035151152 0.0029382946118703614 0.002153179035151152 0.0041286137414671764" pbc="T T T"
Si       4.51821472       5.10851994       1.15189717
Si       6.23229088       1.76173804       2.42753716
Si       3.55732379       3.61450356       4.70307546
Si       6.06834973       5.42002322       2.39639440
Si       6.99628856       3.29289480       3.48611769
Si       5.24750276       4.70619865       4.71801181
Si       5.12063551       3.75239603       2.96423116
Si       1.88186114       1.37902576       1.08937093
8
Lattice="5.544950922002175 -0.542601668996839 -0.4286319361287964 1.1529702122922219 5.450830853014823 -0.4286319361281921 1.1529702122926802 0.8448952937500895 5.401984289818439" Properties=species:S:1:pos:R:3 unique_starting_index=42 config_type=initial n_minim_iter=7 stress="-0.012447613860439972 -0.0018311503712146113 -0.001446529883352165 -0.0018311503712146113 -0.011290634471681002 -0.001060015495320069 -0.001446529883352165 -0.001060015495320069 -0.010786136071042023" pbc="T T T"
Si       4.47091272       5.07495493       1.12296798
Si       6.18603574       1.72549362       2.40019141
Si       3.50882904       3.58021751       4.67711947
Si       6.01801018       5.38238602       2.37064043
Si       6.94523533       3.25935280       3.45641249
Si       5.20013952       4.66836961       4.68735916
Si       5.06942160       3.71486654       2.93458448
Si       1.87181066       1.37166078       1.08355291
8
Lattice="5.534018528994021 -0.5696898283663755 -0.45003041471842153 1.1238470659127255 5.448566357513981 -0.450030414717801 1.123847065913196 0.8235538843598844 5.404735120795373" Properties=species:S:1:pos:R:3 unique_starting_index=42 config_type=initial n_minim_iter=8 stress="0.011898012722608578 0.001854725785149978 0.0014651534443998427 0.001854725785149978 0.010726137633175283 0.0010736628202910664 0.0014651534443998427 0.0010736628202910664 0.010215143993984878" pbc="T T T"
Si       4.42324842       5.04611761       1.09003336
Si       6.14417952       1.68494290       2.37205136
Si       3.45755318       3.54643012       4.65669000
Si       5.96284871       5.34266345       2.35200794
Si       6.89074106       3.23181980       3.42119676
Si       5.15746957       4.62400108       4.65302916
Si       5.00935672       3.67085105       2.89981414
Si       1.87896376       1.37690256       1.08769369
8
Lattice="5.536157323531659 -0.57718608198231 -0.4559521320383273 1.1173433209154424 5.452863980270689 -0.45595213203770324 1.117343320915916 0.818787947233866 5.410286889944637" Properties=species:S:1:pos:R:3 unique_starting_index=42 config_type=initial n_minim_iter=9 stress="0.00457785273965938 -0.0031401752257106843 -0.002480603108474828 -0.0031401752257106843 0.006561915911248894 -0.001817783208636723 -0.002480603108474828 -0.001817783208636723 0.007427062435531561" pbc="T T T"
Si       4.42115158       5.01614502       1.08532986
Si       6.11496756       1.68199454       2.37997881
Si       3.44594193       3.54789931       4.62862050
Si       5.95998726       5.33310873       2.34036298
Si       6.88076819       3.22052585       3.42403827
Si       5.14369601       4.62535152       4.64642985
Si       5.00303182       3.66621618       2.89615279
Si       1.90045103       1.39264841       1.10013223
8
Lattice="5.529797693482194 -0.5845666197919576 -0.4617824388578444 1.1083898419675515 5.449023088778364 -0.4617824388571834 1.1083898419680538 0.8122268477838328 5.407900072173552" Properties=species:S:1:pos:R:3 unique_starting_index=42 config_type=initial n_minim_iter=10 stress="-0.0011961435454090961 -0.00033610172341012493 -0.00026550587781155844 -0.00033610172341012493 -0.0009837837236255458 -0.0001945624129589557 -0.00026550587781155844 -0.0001945624129589557 -0.0008911846751183475" pbc="T T T"
Si       4.40158451       4.99419901       1.07887368
Si       6.08814658       1.67292481       2.36975361
Si       3.42921393       3.53266368       4.60876530
Si       5.93170115       5.30680784       2.34741548
Si       6.84716808       3.22297681       3.40387384
Si       5.13591139       4.59814675       4.61921077
Si       4.96360004       3.63732061       2.87332654
Si       1.95128749       1.42990131       1.12956042
8
Lattice="5.50927219527235 -0.6125797721909864 -0.48391162207999916 1.0754948330317071 5.437889752746132 -0.4839116220792809 1.0754948330322536 0.7881214216926186 5.402192151865105" Properties=species:S:1:pos:R:3 unique_starting_index=42 config_type=initial n_minim_iter=11 stress="-0.012036481378300653 0.001458609370757606 0.001152238546970971 0.001458609370757606 -0.012958077444238693 0.0008443591302590846 0.001152238546970971 0.0008443591302590846 -0.01335993744767281" pbc="T T T"
Si       4.33498401       4.94884069       1.04103198
Si       6.02483244       1.62457231       2.33002510
Si       3.36403468       3.48340991       4.57339964
Si       5.85246322       5.24801993       2.32963706
Si       6.76724128       3.19228942       3.35171323
Si       5.08257224       4.53189944       4.56613564
Si       4.87697920       3.57384495       2.82318351
Si       2.01375330       1.47567619       1.16572060
8
Lattice="5.503605229796353 -0.6238045644703181 -0.49277872426977465 1.0630843318833865 5.435867397518134 -0.49277872426903413 1.06308433188395 0.7790270202054737 5.402277495305243" Properties=species:S:1:pos:R:3 unique_starting_index=42 config_type=initial n_minim_iter=12 stress="-0.017817869182248737 -0.0008854094861630262 -0.0006994353389964104 -0.0008854094861630262 -0.017258439141941494 -0.0005125454411979496 -0.0006994353389964104 -0.0005125454411979496 -0.01701450086310952" pbc="T T T"
Si       4.30930058       4.93855619       1.02513336
Si       6.00728877       1.60415321       2.31289455
Si       3.33927921       3.46429596       4.56707510
Si       5.82346244       5.23015910       2.31938660
Si       6.74147389       3.17716110       3.33241809
Si       5.06038448       4.50849536       4.55113302
Si       4.84947317       3.55368857       2.80726083
Si       2.03369610       1.49029025       1.17726508
8
Lattice="5.513392531799036 -0.6177451469395722 -0.48799204553948833 1.0718106147833764 5.443374714485789 -0.4879920455387286 1.0718106147839552 0.7854216306433895 5.408472740148432" Properties=species:S:1:pos:R:3 unique_starting_index=42 config_type=initial n_minim_iter=13 stress="-0.005419747969507562 0.0004576586727281579 0.00036153062956811285 0.0004576586727281579 -0.005708911360889962 0.00026492924471788084 0.00036153062956811285 0.00026492924471788084 -0.005835000442303668" pbc="T T T"
Si       4.31329599       4.97764940       1.02507209
Si       6.04576960       1.60224930       2.30515849
Si       3.34905575       3.46539744       4.60512049
Si       5.83531119       5.25773599       2.31066373
Si       6.77133911       3.16936763       3.33734727
Si       5.06194966       4.52042686       4.57998013
Si       4.88166105       3.57727581       2.82589374
Si       2.04223092       1.49654456       1.18220571
8
Lattice="5.516131180858828 -0.6163494056809469 -0.4868894700919693 1.0739665146669835 5.44556569326834 -0.48688947009120964 1.0739665146675628 0.7870014716887493 5.410348949868707" Properties=species:S:1:pos:R:3 unique_starting_index=42 config_type=initial n_minim_iter=14 stress="-0.0008134285583140111 -0.001474674845987825 -0.0011649295800228922 -0.001474674845987825 0.00011831818880375484 -0.0008536591051194721 -0.0011649295800228922 -0.0008536591051194721 0.0005246043753799111" pbc="T T T"
Si       4.31981869       4.96644985       1.02835907
Si       6.03705520       1.60766791       2.31373040
Si       3.35159752       3.47143491       4.59346424
Si       5.84570020       5.26224704       2.30332679
Si       6.77877021       3.16420878       3.34736110
Si       5.05926900       4.53216883       4.58606716
Si       4.89226694       3.58504779       2.83203327
Si       2.05140209       1.50326518       1.18751472
8
Lattice="5.511424383516806 -0.6122793937553583 -0.48367433606012206 1.076429585785361 5.4398514812527505 -0.483674336059359 1.0764295857859434 0.7888064074745157 5.4040456560780665" Properties=species:S:1:pos:R:3 unique_starting_index=42 config_type=initial n_minim_iter=15 stress="0.0012439898977264319 0.0008987371495594005 0.0007099636188094389 0.0008987371495594005 0.0006761390132397849 0.0005202605530521782 0.0007099636188094389 0.0005202605530521782 0.000428528843400404" pbc="T T T"
Si       4.31722460       4.96218157       1.03284406
Si       6.03220375       1.61175608       2.31153657
Si       3.35403433       3.46794462       4.58827363
Si       5.85031774       5.26096928       2.30002396
Si       6.77894280       3.16210410       3.35278361
Si       5.05731407       4.53762891       4.58558873
Si       4.89423906       3.58649297       2.83317489
Si       2.05270066       1.50421677       1.18826643
8
Lattice="5.514992400473179 -0.611574984778971 -0.48311788332393885 1.0781761068172981 5.443041559824188 -0.483117883323166 1.0781761068178868 0.7900862561510773 5.407020253244852" Properties=species:S:1:pos:R:3 unique_starting_index=42 config_type=initial n_minim_iter=16 stress="-0.00045574642736040784 0.0010692755512680641 0.0008446816071074028 0.0010692755512680641 -0.0011313489300559564 0.0006189817455726828 0.0008446816071074028 0.0006189817455726828 -0.0014259439637745765" pbc="T T T"
Si       4.31760712       4.96848683       1.03798417
Si       6.03833135       1.61640128       2.30885366
Si       3.36030964       3.46636331       4.59321765
Si       5.85638966       5.26249117       2.29999216
Si       6.78222310       3.16330740       3.35797755
Si       5.05944964       4.54332196       4.58707663
Si       4.89908373       3.59004313       2.83597937
Si       2.05890240       1.50876140       1.19185649
8
Lattice="5.51383738140768 -0.6141924191829755 -0.4851855437097873 1.0753323182561907 5.4427286724312305 -0.4851855437090081 1.0753323182567835 0.7880023310452191 5.407194535042676" Properties=species:S:1:pos:R:3 unique_starting_index=42 config_type=initial n_minim_iter=17 stress="-0.0017420861060794095 0.00017633392784329114 0.00013929620422030274 0.00017633392784329114 -0.0018534995231471708 0.00010207610409589311 0.00013929620422030274 0.00010207610409589311 -0.0019020811065653682" pbc="T T T"
Si       4.31184156       4.96715810       1.03649795
Si       6.03532752       1.61377536       2.30423873
Si       3.35690081       3.46139378       4.59226908
Si       5.85301814       5.25830045       2.29603937
Si       6.77721140       3.15900998       3.35699318
Si       5.05384212       4.54155769       4.58391483
Si       4.89476450       3.58687800       2.83347905
Si       2.05516372       1.50602170       1.18969224
8
Lattice="5.513145695395986 -0.6165175357296968 -0.48702228558526284 1.0729068437531903 5.44276953720749 -0.4870222855844739 1.0729068437537905 0.7862249460175306 5.407659500751533" Properties=species:S:1:pos:R:3 unique_starting_index=42 config_type=initial n_minim_iter=18 stress="-2.815248541932392e-05 1.6850751465617556e-05 1.3311367509318793e-05 1.6850751465617556e-05 -3.8799329301899536e-05 9.75455537557219e-06 1.3311367509318793e-05 9.75455537557219e-06 -4.344186289522507e-05" pbc="T T T"
Si       4.30679425       4.96594626       1.03589514
Si       6.03265151       1.61215924       2.30005132
Si       3.35455364       3.45684210       4.59122971
Si       5.85053448       5.25431620       2.29275684
Si       6.77266405       3.15554621       3.35661675
Si       5.04916940       4.54042923       4.58079874
Si       4.89065756       3.58386845       2.83110163
Si       2.05332044       1.50467095       1.18862521
8
Lattice="5.513093864370222 -0.6167559123188472 -0.48721059281831136 1.07266392659605 5.442791922654877 -0.48721059281752005 1.0726639265966518 0.7860469365939984 5.407724871749742" Properties=species:S:1:pos:R:3 unique_starting_index=42 config_type=initial n_minim_iter=19 stress="-3.798154803033173e-05 -1.3636480989087973e-05 -1.0772232330129186e-05 -1.3636480989087973e-05 -2.9365583096109128e-05 -7.893879905382816e-06 -1.0772232330129186e-05 -7.893879905382816e-06 -2.5608609886158306e-05" pbc="T T T"
Si       4.30652073       4.96581819       1.03567657
Si       6.03244699       1.61189516       2.29988571
Si       3.35424022       3.45665427       4.59115572
Si       5.85013683       5.25389690       2.29275108
Si       6.77214445       3.15548207       3.35637209
Si       5.04895171       4.54008098       4.58039217
Si       4.89007841       3.58344405       2.83076638
Si       2.05313658       1.50453622       1.18851877
