22
Lattice="5.184230843631195 0.9821208330358937 1.1291196757500745 3.3584775837179173 7.079901888434287 2.2517097368025176 2.762771343925857 5.580466465589413 22.47623968355044" Properties=species:S:1:pos:R:3 unique_starting_index=40 config_type=initial n_minim_iter=1 energy=-3702.4477636777206 free_energy=-3702.4477636777206 pbc="T T T"
Si       8.03465291       8.88895044      22.07992000
Si       3.27864027       3.91970596       7.12656354
Si       5.47603263       4.19800797      11.05182511
Si       4.21934880       7.82719389      19.48959602
Si       5.37844512       8.39915177      21.59825253
Si       7.33026164       9.34003278      12.41410452
Si       5.43632426       4.64362753       5.88067122
Si       5.80232209       9.04575816      15.63809960
Si       4.89696527       2.93807155       0.98757622
Si       7.67604617       9.27627663      22.88460859
Si       5.58955170       6.01558893      16.24035203
Si       4.15994101       8.69941665      16.55003095
Si       2.23209317       3.10193143       0.13632089
Si       3.09497755       2.95790823      11.79993862
Si       5.24416113       7.77031651      22.35182397
Si       9.02560209       9.86210965      14.25922289
Si       4.22431703       5.33012570       8.16745618
Si       5.51156103      10.44665721      12.30011690
Si       5.79255243       5.75166062       6.34664560
Si       5.31157790       4.09083712      13.36623321
Si       7.96309868       7.96124029      22.38962225
Si       4.94528794       3.87862875       7.84138787
22
Lattice="5.095582375936065 0.9354660752246579 1.1673786148259981 3.249224024495247 7.1506718401562965 2.2118592698528245 2.82494032279203 5.370383949451411 22.68762064712645" Properties=species:S:1:pos:R:3 unique_starting_index=40 config_type=initial n_minim_iter=2 stress="-0.3749087278792366 -0.04136301873892664 -0.1258135183221798 -0.04136301873892664 -0.08187171924794648 0.03172031961051788 -0.1258135183221798 0.03172031961051788 -0.06362193016591124" pbc="T T T"
Si       7.96457827       8.69711075      22.27627002
Si       3.23617403       3.86994903       7.18266034
Si       5.42220693       4.08146770      11.16742709
Si       4.21229871       7.68274061      19.64968463
Si       5.36021628       8.22620195      21.78460659
Si       7.20517476       9.28504013      12.49290323
Si       5.34102489       4.59913903       5.92836859
Si       5.72971376       8.95847809      15.74742851
Si       4.79645168       2.92525983       0.99618010
Si       7.61959777       9.08954055      23.08821064
Si       5.55437102       5.86548654      16.39485554
Si       4.12527601       8.60983103      16.66080115
Si       2.17040329       3.13845731       0.11154358
Si       3.09695347       2.83299689      11.92169625
Si       5.24435993       7.57225688      22.54890741
Si       8.88219802       9.77596879      14.36633638
Si       4.16013664       5.28486482       8.22523786
Si       5.40913450      10.43057442      12.35009438
Si       5.68601664       5.72519221       6.38999327
Si       5.27982848       3.94391708      13.50847775
Si       7.91843638       7.74811094      22.61778572
Si       4.88184979       3.80165992       7.92032072
22
Lattice="5.1281037809270575 0.88402312666267 1.2771802579521958 3.2261391431125825 7.305837241625197 2.176025150400672 3.2295600995023444 5.037009581146806 23.130862583017112" Properties=species:S:1:pos:R:3 unique_starting_index=40 config_type=initial n_minim_iter=3 stress="-0.002988504117054245 -0.0019923258914999204 0.01601937371633853 -0.0019923258914999204 0.033056059306119545 0.012089690687483827 0.01601937371633853 0.012089690687483827 0.0710625496435551" pbc="T T T"
Si       8.32830729       8.43008038      22.73325184
Si       3.34760908       3.81052210       7.32332249
Si       5.61912504       3.91913881      11.43810530
Si       4.53372439       7.47448692      20.00885556
Si       5.72040606       7.97554160      22.20381501
Si       7.37778004       9.25005748      12.71858422
Si       5.42673303       4.56078668       6.06862581
Si       5.96637946       8.85953783      16.02180543
Si       4.80797759       2.93451738       1.05219638
Si       8.00424167       8.83103565      23.55860653
Si       5.83768607       5.65022331      16.74696170
Si       4.37830436       8.49778441      16.92693952
Si       2.15508994       3.21973209       0.08676560
Si       3.31031247       2.64184080      12.18522672
Si       5.63417460       7.27672242      22.98653459
Si       9.09705471       9.69698618      14.65938922
Si       4.28094747       5.24143293       8.37915936
Si       5.56621390      10.45522282      12.51227130
Si       5.77355673       5.72339462       6.52690020
Si       5.52735463       3.72816951      13.82960147
Si       8.32374829       7.44186012      23.13242784
Si       5.01802916       3.70345084       8.11582319
22
Lattice="5.147773387155193 0.8302489853270778 1.2529157914143223 3.2019557819432873 7.271016572077211 1.9902857452702352 3.3040940267848558 4.580498637134437 22.485077795579304" Properties=species:S:1:pos:R:3 unique_starting_index=40 config_type=initial n_minim_iter=4 stress="0.00098417659115229 -0.0263461180623874 0.011279687397762578 -0.0263461180623874 0.021675321738915367 -0.022762864137392574 0.011279687397762578 -0.022762864137392574 -0.0004181965090086418" pbc="T T T"
Si       8.38449178       7.95976491      22.04239487
Si       3.36510774       3.66286869       7.08390928
Si       5.65887166       3.67306446      11.11010845
Si       4.58341863       7.07952321      19.40329738
Si       5.78396554       7.51571116      21.54893004
Si       7.39775399       8.99205659      12.25805695
Si       5.44055284       4.41423870       5.85098614
Si       5.99944668       8.54519302      15.47869020
Si       4.81071869       2.88788674       0.96944768
Si       8.07248990       8.36277478      22.86088427
Si       5.89208708       5.30343591      16.25974250
Si       4.41032440       8.17023828      16.36271930
Si       2.15632923       3.21274902       0.01528239
Si       3.34186775       2.39414567      11.84892141
Si       5.69897307       6.81216032      22.28932633
Si       9.13746829       9.38843543      14.15639933
Si       4.29542373       5.07082283       8.08897184
Si       5.58653050      10.21097347      12.02870617
Si       5.78988779       5.59385857       6.28227077
Si       5.58429371       3.43240075      13.44473505
Si       8.41757346       6.98590645      22.49039734
Si       5.05007135       3.52166889       7.87263064
22
Lattice="5.125460347948473 0.8889311109187052 1.277377786341928 3.2588438460219606 7.341197754442206 2.0184137682924113 3.405181552458701 4.631276332780471 22.699147724344936" Properties=species:S:1:pos:R:3 unique_starting_index=40 config_type=initial n_minim_iter=5 stress="-0.036390909893007965 -0.009981996006906822 0.01377784887545056 -0.009981996006906822 0.02582747557917796 -0.0027833039254864067 0.01377784887545056 -0.0027833039254864067 0.02157048711192925" pbc="T T T"
Si       8.47121817       8.07027695      22.25390130
Si       3.39920646       3.71574902       7.15405807
Si       5.69019888       3.74642943      11.22773345
Si       4.68538534       7.15513042      19.60383261
Si       5.89472739       7.58305752      21.77227168
Si       7.47534158       9.11620225      12.38836021
Si       5.46193149       4.47768106       5.91671380
Si       6.09757286       8.65405262      15.63014271
Si       4.80558252       2.95594098       0.96491637
Si       8.18490695       8.49634775      23.11949835
Si       5.96008120       5.38491793      16.43091857
Si       4.51741429       8.25381669      16.51978282
Si       2.18863579       3.24547564       0.01012657
Si       3.36367112       2.44237032      11.96002026
Si       5.80238140       6.89252027      22.48385081
Si       9.22551703       9.52758639      14.31696522
Si       4.34158681       5.14452522       8.17463040
Si       5.71102152      10.31262962      12.16288869
Si       5.83221286       5.70039768       6.35740401
Si       5.63103423       3.50088135      13.58006827
Si       8.51225766       7.13697501      22.73908360
Si       5.08193133       3.58327905       7.96409298
22
Lattice="5.136929877383362 0.869003651804456 1.2260892673177444 3.243857985302946 7.3136536137450445 1.918061854980062 3.1841350578730183 4.331335826569133 22.88357812859625" Properties=species:S:1:pos:R:3 unique_starting_index=40 config_type=initial n_minim_iter=6 stress="-0.05321639908304015 -0.03145436499061042 -0.021706428836979208 -0.03145436499061042 0.026644239468095104 -0.015445618959164705 -0.021706428836979208 -0.015445618959164705 0.02227272009450346" pbc="T T T"
Si       8.27440622       7.76974783      22.34363934
Si       3.33041789       3.61965455       7.15153324
Si       5.59071005       3.59048079      11.26139585
Si       4.49005831       6.88920723      19.72891130
Si       5.69092595       7.27309037      21.86732431
Si       7.36594827       8.95817996      12.34313010
Si       5.41354636       4.37618080       5.87396939
Si       5.95824401       8.46132857      15.63314686
Si       4.80921977       2.95389294       0.86325329
Si       7.97657393       8.19679270      23.22332842
Si       5.81279469       5.16183892      16.51442975
Si       4.35883958       8.03615168      16.56490618
Si       2.19108947       3.22992628      -0.06786360
Si       3.22009255       2.28776510      12.03308970
Si       5.61799804       6.57136055      22.60499115
Si       9.12366621       9.33524776      14.28505030
Si       4.26872269       5.04529819       8.16602215
Si       5.63734734      10.13992119      12.13913224
Si       5.79498993       5.64121604       6.30320700
Si       5.52219302       3.31257677      13.63808075
Si       8.31210382       6.87418350      22.84509067
Si       5.02709557       3.46263857       7.97370601
22
Lattice="5.124683778239963 0.893475901485945 1.2700671371112524 3.3012929721138944 7.265068808114145 1.9013392649266123 3.4294820118839313 4.145475252039676 22.885165945279507" Properties=species:S:1:pos:R:3 unique_starting_index=40 config_type=initial n_minim_iter=7 stress="-0.06508575429626334 -0.019597521087088697 0.0002967395915901826 -0.019597521087088697 -0.0020520071170467306 -0.01136393710471692 0.0002967395915901826 -0.01136393710471692 -0.0015957418839371504" pbc="T T T"
Si       8.50496621       7.60742334      22.38325603
Si       3.40375220       3.56109150       7.15192069
Si       5.69192378       3.51147512      11.29822366
Si       4.70600986       6.70983118      19.74790675
Si       5.93509733       7.07454929      21.87046445
Si       7.50797570       8.85830063      12.35156835
Si       5.46631274       4.32019295       5.89475851
Si       6.14889762       8.33919918      15.61227406
Si       4.81874551       2.97487158       0.88273997
Si       8.22339116       8.02058859      23.24296903
Si       5.98247425       5.03589803      16.54979996
Si       4.56272223       7.87895958      16.54772706
Si       2.20733352       3.20325747      -0.08367530
Si       3.30726056       2.20119641      12.04802212
Si       5.87610609       6.37746800      22.60672667
Si       9.29433517       9.22489684      14.31960173
Si       4.36135991       4.98527983       8.17561715
Si       5.84221176       9.99784635      12.14181051
Si       5.87332343       5.61776627       6.32251853
Si       5.65739780       3.21799666      13.66396234
Si       8.54208255       6.73102075      22.87632239
Si       5.10927861       3.39964541       8.01131841
22
Lattice="5.127777942809459 0.929975100700383 1.231802245341327 3.335864366069262 7.33533429183076 1.8432459722089252 3.305567205091949 4.069103793747035 22.946797243222083" Properties=species:S:1:pos:R:3 unique_starting_index=40 config_type=initial n_minim_iter=8 stress="-0.04148278322445029 -0.004359200140355622 -0.02313260455150027 -0.004359200140355622 0.016866563595711523 -0.0036508287584166538 -0.02313260455150027 -0.0036508287584166538 -0.010798005349918502" pbc="T T T"
Si       8.41237538       7.61129664      22.38460233
Si       3.37424080       3.57198381       7.13162206
Si       5.63802508       3.50171005      11.30025210
Si       4.60426979       6.66997418      19.79750232
Si       5.85593455       7.02995793      21.89575960
Si       7.48265014       8.91864651      12.30130884
Si       5.45017663       4.33929267       5.85384709
Si       6.10543534       8.38345577      15.56357708
Si       4.83947195       3.04249831       0.83569791
Si       8.11524861       8.01620247      23.24730560
Si       5.90657906       5.01863927      16.57361842
Si       4.50493028       7.87806486      16.54231358
Si       2.23489507       3.23047895      -0.13897553
Si       3.21068590       2.16740662      12.07443015
Si       5.76510408       6.32979776      22.61425825
Si       9.27102936       9.28626900      14.27290049
Si       4.33680272       5.01915854       8.15498989
Si       5.86581898      10.04140450      12.11036701
Si       5.87777355       5.69607034       6.27534371
Si       5.59771651       3.19566533      13.66093425
Si       8.44824905       6.71899946      22.87331515
Si       5.08732918       3.39927944       8.00666992
22
Lattice="5.131329290996606 0.8637343122282628 1.2773164526478675 3.29573949069444 7.179202858323242 1.8492596604287446 3.418847943335127 3.799890519210852 23.248157473036034" Properties=species:S:1:pos:R:3 unique_starting_index=40 config_type=initial n_minim_iter=9 stress="-0.0051702393742142205 -0.02706612418971602 -0.014741192517863929 -0.02706612418971602 -0.02017477045313248 -0.0018075340205248231 -0.014741192517863929 -0.0018075340205248231 0.02645183828794736" pbc="T T T"
Si       8.50560884       7.25141882      22.68871275
Si       3.39336135       3.44223234       7.22456973
Si       5.69322731       3.29550797      11.48625367
Si       4.65727414       6.35909959      20.08301080
Si       5.95221486       6.69194827      22.18008416
Si       7.49748093       8.62751775      12.46573884
Si       5.44938740       4.16387680       5.93878971
Si       6.14614197       8.10568074      15.73257408
Si       4.82305475       2.96612682       0.85547069
Si       8.19640191       7.64337343      23.57858171
Si       5.97205211       4.76042394      16.82492467
Si       4.55305863       7.58964721      16.74265209
Si       2.21748022       3.16024041      -0.15873080
Si       3.24585483       2.00787535      12.25380902
Si       5.86238896       6.00752263      22.89491021
Si       9.29669748       8.96229632      14.47769151
Si       4.34090713       4.84403067       8.26024515
Si       5.89140249       9.74253570      12.25462862
Si       5.88249473       5.53775356       6.36366449
Si       5.66464772       2.98332835      13.84997608
Si       8.55814377       6.37030295      23.17789049
Si       5.11896237       3.22254824       8.14446035
22
Lattice="5.109951173203295 0.9004146596823998 1.45245274808557 3.4388061788961877 7.203276255551102 1.6871136160184115 4.41375740692372 2.958152632765629 23.027528900493877" Properties=species:S:1:pos:R:3 unique_starting_index=40 config_type=initial n_minim_iter=10 stress="0.3003157263816194 0.06286496586006945 0.040109902934783 0.06286496586006945 0.004775242308930523 -0.0043971017635706005 0.040109902934783 -0.0043971017635706005 0.036166894871497525" pbc="T T T"
Si       9.50603470       6.54580250      22.55084901
Si       3.69778594       3.27776840       7.14624604
Si       6.21100229       2.85019347      11.61252555
Si       5.40831341       5.57727501      20.02280670
Si       6.95651091       5.93803601      21.90333202
Si       8.05288620       8.32962990      12.34454606
Si       5.63515305       3.95365459       5.92572066
Si       6.85276999       7.75606607      15.37682476
Si       4.78035451       3.08192163       0.86443633
Si       9.19376845       6.89283142      23.48039797
Si       6.65172700       4.20377156      16.85315755
Si       5.32119285       7.04642412      16.46433611
Si       2.24574029       3.25994319      -0.25286373
Si       3.63731038       1.57258112      12.23470034
Si       6.85821001       5.20843929      22.61305030
Si       9.88980708       8.63329670      14.41611775
Si       4.63803866       4.62945231       8.16102192
Si       6.55674398       9.42121086      12.00935505
Si       6.16535877       5.56130523       6.31727908
Si       6.21194417       2.49081582      13.78914774
Si       9.53357162       5.64191531      22.99484457
Si       5.45153676       2.89261588       8.25638302
22
Lattice="5.092764945768483 0.8835728477716593 1.740563719271433 3.5423179922070496 7.201833148305055 1.6309393349749546 5.792488807124516 2.1785034514114394 22.985223654216806" Properties=species:S:1:pos:R:3 unique_starting_index=40 config_type=initial n_minim_iter=11 stress="0.962644072696572 0.22264904428396343 0.28935391387978693 0.22264904428396343 0.0009895931184022663 0.016639321610332044 0.28935391387978693 0.016639321610332044 -0.05662142757256247" pbc="T T T"
Si      10.85386154       5.84145401      22.72227916
Si       4.09488430       3.12183666       7.17287672
Si       6.93648697       2.34260200      11.97623437
Si       6.41194995       4.76564472      20.22399452
Si       8.33423975       5.20691884      21.86786607
Si       8.74841281       8.00906164      12.46884617
Si       5.85995815       3.67145864       6.06651421
Si       7.74204811       7.46220173      15.18791726
Si       4.69196070       3.14552987       0.95618572
Si      10.54326931       6.17773055      23.67133140
Si       7.59658343       3.63688417      17.12428765
Si       6.31503941       6.52849430      16.37306457
Si       2.22252574       3.34300132      -0.31007186
Si       4.20745835       1.15912415      12.32023626
Si       8.21180482       4.46914121      22.53654882
Si      10.64302793       8.27118319      14.64720941
Si       5.01336982       4.40938000       8.19102742
Si       7.37069052       9.09035734      11.99756860
Si       6.50870691       5.60629869       6.42395802
Si       6.95835040       1.97871240      13.89363020
Si      10.85603685       4.94136498      23.07982060
Si       5.90540943       2.49539686       8.55805244
22
Lattice="5.089221221641319 0.8943549203509364 1.7870459525565052 3.585380150497907 7.19914810784892 1.585321371800642 6.018055076353025 1.8795982138640797 23.17944377695648" Properties=species:S:1:pos:R:3 unique_starting_index=40 config_type=initial n_minim_iter=12 stress="1.1089984949988252 0.28071933360645523 0.38000559461846267 0.28071933360645523 -0.011568589159841223 0.019206948852738846 0.38000559461846267 0.019206948852738846 -0.08261196215026521" pbc="T T T"
Si      11.08893421       5.58746714      22.92988806
Si       4.16689640       3.06509409       7.21333222
Si       7.07909737       2.16770319      12.15437718
Si       6.55714594       4.45043401      20.45129523
Si       8.57526322       4.93665032      22.02011909
Si       8.88763095       7.89281495      12.54802745
Si       5.89730986       3.58349423       6.10963026
Si       7.90596976       7.34596227      15.20854954
Si       4.68073711       3.17767966       0.92224779
Si      10.78065746       5.91172664      23.87501597
Si       7.75704764       3.42735860      17.31756093
Si       6.49749229       6.32986715      16.46232510
Si       2.24311947       3.37563584      -0.35874991
Si       4.28463411       1.00487262      12.44277755
Si       8.44319778       4.20220464      22.68106970
Si      10.78461963       8.14013649      14.75561355
Si       5.07452727       4.32659027       8.23209395
Si       7.54598805       8.96352703      12.04509874
Si       6.58475378       5.61840414       6.45029020
Si       7.07666464       1.80194744      14.01067957
Si      11.08595719       4.68240043      23.25651215
Si       5.99017994       2.36101324       8.68674238
22
Lattice="5.0902822449017995 0.8860356668699003 1.8061318794252148 3.574423980368495 7.252244512085438 1.5784949228058107 6.0910202501298425 1.8509250568015279 23.21077625457441" Properties=species:S:1:pos:R:3 unique_starting_index=40 config_type=initial n_minim_iter=13 stress="1.1624171984273532 0.2851151272451349 0.4626323724279055 0.2851151272451349 -0.008411350761720797 0.036889406734222405 0.4626323724279055 0.036889406734222405 -0.17197848469958335" pbc="T T T"
Si      11.15015786       5.58543809      22.99001961
Si       4.18378857       3.08747105       7.21941009
Si       7.14555117       2.11464059      12.23018406
Si       6.57473955       4.39337530      20.52523186
Si       8.65041846       4.92433265      22.04154642
Si       8.91351888       7.93002967      12.57483259
Si       5.89491671       3.56328046       6.11756272
Si       7.93978468       7.41578097      15.17438827
Si       4.67309460       3.20412487       0.89682442
Si      10.85463098       5.91797149      23.93058489
Si       7.80437477       3.40918611      17.38206755
Si       6.53813821       6.34602268      16.47605998
Si       2.23921113       3.41078982      -0.38191519
Si       4.29608313       0.98790437      12.46802803
Si       8.51962733       4.20034201      22.68649925
Si      10.80455987       8.17515798      14.78637250
Si       5.07107221       4.34575572       8.23643366
Si       7.58493075       9.01008475      12.05813295
Si       6.59720755       5.69104811       6.45515839
Si       7.11531889       1.76557791      14.02599331
Si      11.15329469       4.66696902      23.27550257
Si       6.01886714       2.31658478       8.74110862
22
Lattice="5.087363084707124 0.9470021930738214 1.7627871127105743 3.6857062255242634 7.1773082285281875 1.4198907379483767 5.96837270570263 1.2160892732867628 23.75743925379571" Properties=species:S:1:pos:R:3 unique_starting_index=40 config_type=initial n_minim_iter=14 stress="1.1902634955967117 0.3497853169077813 0.40951486374044654 0.3497853169077813 -0.006132145562489417 0.0380126738144144 0.40951486374044654 0.0380126738144144 -0.09765199074782523" pbc="T T T"
Si      11.08624693       5.05121174      23.41432447
Si       4.19577826       2.93973631       7.30038117
Si       7.16733563       1.79389466      12.53244064
Si       6.42890773       3.73741538      20.97648592
Si       8.61110424       4.34080573      22.43050709
Si       8.96813986       7.63226633      12.66088922
Si       5.88638637       3.40654568       6.11416583
Si       7.96528580       7.08576388      15.24555824
Si       4.70559493       3.21270360       0.76873738
Si      10.81460446       5.35322992      24.35684264
Si       7.74096251       2.97420170      17.76513897
Si       6.53528029       5.86619600      16.72425218
Si       2.31458761       3.44384850      -0.53510327
Si       4.18624855       0.69073653      12.73822377
Si       8.46432910       3.64777449      23.07802245
Si      10.81674655       7.85401637      14.89495185
Si       5.04661584       4.14038307       8.29554832
Si       7.68332760       8.66733417      12.11820122
Si       6.65767818       5.65275906       6.40374905
Si       7.03954994       1.43356694      14.25621982
Si      11.07735605       4.12887847      23.65529187
Si       6.00212353       2.08036367       8.91519876
22
Lattice="5.071302969423973 0.9657427253542241 1.760974205246094 3.6985602902582637 7.188699472245104 1.4170880542519013 5.910088103377003 1.1361193807917958 24.111842849864004" Properties=species:S:1:pos:R:3 unique_starting_index=40 config_type=initial n_minim_iter=15 stress="1.1102726688597873 0.3448036105934769 0.3862290821264311 0.3448036105934769 0.008186961233874404 0.06644838672498796 0.3862290821264311 0.06644838672498796 -0.015523778059998076" pbc="T T T"
Si      11.03822303       5.03644416      23.77605241
Si       4.18433723       2.94566274       7.38877760
Si       7.19543018       1.70940978      12.78150176
Si       6.29219904       3.59509992      21.30639315
Si       8.56557644       4.28722133      22.67926698
Si       8.95270662       7.62397993      12.83862022
Si       5.84704623       3.36026903       6.15012955
Si       7.94096738       7.12455748      15.35648056
Si       4.70230593       3.23154088       0.74432579
Si      10.76009904       5.27469497      24.69376683
Si       7.69034835       2.92492826      18.05449665
Si       6.50633587       5.81132200      16.96149362
Si       2.35847501       3.46190164      -0.55459823
Si       4.13397821       0.70350242      12.88659312
Si       8.40280075       3.61966606      23.34218333
Si      10.74767003       7.82563924      15.06395352
Si       5.00035472       4.13455621       8.39690154
Si       7.69645342       8.64314530      12.28954102
Si       6.65694140       5.74845349       6.43930370
Si       6.98269095       1.38514483      14.43416842
Si      11.05281776       4.08545666      23.99522468
Si       5.97566382       2.00329243       9.08175582
22
Lattice="5.06097819775722 0.9767282917147465 1.6839962901464862 3.6924611411446877 7.193821469157089 1.3252982039175591 5.582993370794547 0.9507171849101038 24.271637684416685" Properties=species:S:1:pos:R:3 unique_starting_index=40 config_type=initial n_minim_iter=16 stress="0.9121951528492426 0.30474259209029386 0.29129103378745735 0.30474259209029386 0.005566999837207461 0.05835459414337351 0.29129103378745735 0.05835459414337351 0.02082636375535173" pbc="T T T"
Si      10.72102401       4.92945236      23.78774141
Si       4.08931326       2.91677283       7.36494132
Si       7.09216735       1.57443858      12.85766161
Si       5.92046903       3.36387161      21.46575647
Si       8.27620301       4.13235043      22.74305748
Si       8.80376626       7.55347000      12.81767540
Si       5.75812160       3.29704792       6.05814719
Si       7.74893288       7.09113181      15.25743014
Si       4.72205091       3.25857773       0.64760654
Si      10.44493861       5.07120886      24.75645570
Si       7.44827034       2.80264989      18.12475586
Si       6.29030885       5.68274648      17.01069523
Si       2.41467695       3.47727808      -0.64003325
Si       3.97475880       0.68534656      12.90352048
Si       8.13094652       3.48837728      23.42645046
Si      10.51944682       7.71142578      14.97151527
Si       4.87322561       4.09242416       8.38322034
Si       7.57467759       8.55754042      12.27725378
Si       6.59605523       5.81396488       6.32693979
Si       6.77327189       1.28044175      14.46855997
Si      10.74221089       3.92483717      24.05331170
Si       5.86496728       1.88424181       9.12880155
22
Lattice="5.0477864039866605 0.9740501260501706 1.6149314113693136 3.6618984801006564 7.164976269113449 1.2969520572946207 5.220447627669291 0.9087463667887478 24.552414959674426" Properties=species:S:1:pos:R:3 unique_starting_index=40 config_type=initial n_minim_iter=17 stress="0.6498301501545509 0.2541770298965851 0.2074543607564183 0.2541770298965851 0.011968110193795903 0.06514403313018684 0.2074543607564183 0.06514403313018684 -0.0041558898243796915" pbc="T T T"
Si      10.38670851       4.91451185      23.95739974
Si       3.97164429       2.91511570       7.38666904
Si       6.96398218       1.49414062      12.98853759
Si       5.53172534       3.23619675      21.79353355
Si       7.89977890       4.07688660      22.94483688
Si       8.61213546       7.50000790      12.92511267
Si       5.65291696       3.24366137       6.00562587
Si       7.51587090       7.10978370      15.26830174
Si       4.76223881       3.23236384       0.59978729
Si      10.10729847       5.01283834      24.94075637
Si       7.17056531       2.76967136      18.28435574
Si       6.03877508       5.62796280      17.18523407
Si       2.41564747       3.47084529      -0.73915292
Si       3.83431894       0.75493598      12.98365621
Si       7.78853176       3.46659934      23.63982711
Si      10.24587850       7.62273686      14.99841983
Si       4.72240949       4.07044155       8.44457674
Si       7.40690351       8.48556092      12.40176747
Si       6.51007235       5.88077311       6.27774882
Si       6.51954004       1.24002324      14.57869867
Si      10.40376960       3.88266744      24.26363268
Si       5.73791523       1.78858042       9.24097615
22
Lattice="5.04795648033587 0.9152144783875074 1.5341837185940366 3.5634518229839 6.994108473986993 1.3681431257504315 4.6748718373955835 1.0726911951425984 25.017035536161483" Properties=species:S:1:pos:R:3 unique_starting_index=40 config_type=initial n_minim_iter=18 stress="0.41634023740443765 0.19904547040036 0.08909633724594604 0.19904547040036 -0.011724232060243549 0.033717279011154455 0.08909633724594604 0.033717279011154455 -0.02636468068996676" pbc="T T T"
Si       9.83953800       4.95103691      24.31805307
Si       3.77832357       2.90439156       7.47440579
Si       6.73445747       1.46541192      13.15835401
Si       4.99116281       3.27450198      22.31110184
Si       7.37823334       4.13181907      23.36740595
Si       8.27690463       7.36267659      13.21745061
Si       5.50423875       3.15043151       5.99615467
Si       7.12856171       7.10086158      15.44705175
Si       4.80410502       3.12262169       0.52413433
Si       9.55239292       5.06591865      25.24271594
Si       6.75082147       2.82646044      18.56527031
Si       5.62634930       5.61091220      17.55801893
Si       2.42253742       3.36561487      -0.74304613
Si       3.68281951       0.91895532      13.18916490
Si       7.24378699       3.52298268      24.10386386
Si       9.84486490       7.46925917      15.20182095
Si       4.49006301       4.02376416       8.62225498
Si       7.07600138       8.33534950      12.71316664
Si       6.34833755       5.85269002       6.31692308
Si       6.12542837       1.26384217      14.77368520
Si       9.84967449       3.92197827      24.72322287
Si       5.55245558       1.69988401       9.42509507
22