22
Lattice="4.652713238460516 0.5416734215585645 2.550720491392603 2.7163911381602848 6.663124712601694 2.1809652826153516 8.653807067937523 0.7678751396748483 32.97523466569966" Properties=species:S:1:pos:R:3 unique_starting_index=40 config_type=initial n_minim_iter=1 energy=-4076.4741258514496 free_energy=-4076.4741258514496 pbc="T T T"
Si      12.84531519       4.40313585      33.02401011
Si       4.28087442       3.48668890      10.51872081
Si       8.29941023       1.16941328      17.67803097
Si       8.53551161       3.10005884      30.00988859
Si      10.53971507       3.91280727      31.75766550
Si       8.93547954       6.69502765      18.31861918
Si       4.64811118       2.40284784      10.08458303
Si       8.48754762       6.46939040      19.18316692
Si       3.72052936       2.60191190       1.12783987
Si      12.42130759       4.28808721      33.82219685
Si       8.75196250       1.91597764      24.79228099
Si       7.36257415       4.81158668      24.14640438
Si       1.48921685       2.87607794      -0.43691968
Si       5.56786543       0.77193303      17.16832863
Si      10.52078751       3.03441793      31.97907543
Si      11.12323367       6.85441288      19.87034446
Si       6.89643951       3.93270053      11.22874309
Si       8.72920317       7.64622949      18.49230631
Si       4.87988540       3.41275540       9.44113563
Si       7.94669551       0.64358926      18.43273964
Si      12.81810081       3.27174365      33.31361975
Si       6.95496738       2.86162598      11.35162017
22
Lattice="4.652686464988925 0.5416739815411583 2.5507146091202335 2.7163214953872603 6.6632381854410685 2.1810361400897524 8.653592833529908 0.7681838919356063 32.97539316860092" Properties=species:S:1:pos:R:3 unique_starting_index=40 config_type=initial n_minim_iter=2 stress="-0.0004358305805535945 -5.1556815687666946e-05 -0.00023792204668879696 -5.1556815687666946e-05 6.932766948926321e-06 -2.8335210625959893e-05 -0.00023792204668879696 -2.8335210625959893e-05 -0.0001333286756429135" pbc="T T T"
Si      12.84507999       4.40349066      33.02413331
Si       4.28081432       3.48682005      10.51877511
Si       8.29921335       1.16951407      17.67814372
Si       8.53527141       3.10037756      30.01007468
Si      10.53947757       3.91313775      31.75781715
Si       8.93535791       6.69529763      18.31877501
Si       4.64799454       2.40294910      10.08460446
Si       8.48738151       6.46967180      19.18332306
Si       3.72050570       2.60191111       1.12780911
Si      12.42104387       4.28842456      33.82238806
Si       8.75178961       1.91617170      24.79240799
Si       7.36239014       4.81188021      24.14655430
Si       1.48918811       2.87613412      -0.43688183
Si       5.56778345       0.77208616      17.16842602
Si      10.52055473       3.03472920      31.97928917
Si      11.12295172       6.85469940      19.87045564
Si       6.89635646       3.93280803      11.22882790
Si       8.72906054       7.64649631      18.49248375
Si       4.87980282       3.41284533       9.44125001
Si       7.94656743       0.64373712      18.43273477
Si      12.81788125       3.27208002      33.31380494
Si       6.95484508       2.86180982      11.35165088
22
Lattice="4.652714307719475 0.5416774108195183 2.550730394059282 2.716340155125071 6.663246233841104 2.1810525001129606 8.653709312668415 0.7682162769780815 32.975473383112536" Properties=species:S:1:pos:R:3 unique_starting_index=40 config_type=initial n_minim_iter=3 stress="6.476298247457717e-05 5.262676151170567e-06 2.875840515528539e-05 5.262676151170567e-06 2.887393850928807e-05 3.2375029777973824e-06 2.875840515528539e-05 3.2375029777973824e-06 2.697510142871753e-05" pbc="T T T"
Si      12.84521761       4.40352800      33.02422366
Si       4.28086145       3.48683269      10.51880568
Si       8.29928968       1.16953012      17.67819866
Si       8.53537930       3.10040935      30.01015264
Si      10.53960052       3.91317146      31.75790112
Si       8.93544535       6.69532319      18.31883592
Si       4.64803782       2.40296017      10.08463302
Si       8.48746642       6.46969804      19.18338397
Si       3.72052677       2.60191308       1.12781944
Si      12.42118003       4.28846063      33.82248211
Si       8.75188808       1.91619459      24.79247515
Si       7.36248136       4.81190800      24.14661886
Si       1.48919413       2.87613795      -0.43687575
Si       5.56785068       0.77210305      17.16847132
Si      10.52067753       3.03476246      31.97937704
Si      11.12304606       6.85472748      19.87052261
Si       6.89641686       3.93282105      11.22886855
Si       8.72914685       7.64652129      18.49254595
Si       4.87984844       3.41285547       9.44128459
Si       7.94664758       0.64375549      18.43278295
Si      12.81801984       3.27211635      33.31389884
Si       6.95490282       2.86182789      11.35168810
22
Lattice="4.652716638521735 0.541675510086231 2.5507420766311775 2.7163204799423304 6.66312824765912 2.181120950887589 8.653795316668086 0.7685000607384576 32.975414606098106" Properties=species:S:1:pos:R:3 unique_starting_index=40 config_type=initial n_minim_iter=4 stress="-2.4051557621814236e-05 3.2667628859382046e-05 6.272081566775335e-05 3.2667628859382046e-05 -0.00021420778484884556 1.1720857629481939e-05 6.272081566775335e-05 1.1720857629481939e-05 -0.00012019264547155571" pbc="T T T"
Si      12.84529730       4.40376873      33.02416673
Si       4.28094813       3.48683286      10.51877941
Si       8.29933167       1.16965031      17.67828304
Si       8.53541394       3.10062453      30.01015788
Si      10.53968221       3.91333152      31.75786651
Si       8.93544604       6.69538974      18.31887146
Si       4.64799255       2.40296519      10.08456702
Si       8.48743712       6.46978382      19.18340034
Si       3.72053619       2.60181047       1.12779754
Si      12.42126283       4.28865615      33.82244927
Si       8.75194961       1.91628062      24.79246868
Si       7.36254578       4.81203944      24.14660585
Si       1.48917561       2.87611476      -0.43685279
Si       5.56787616       0.77222010      17.16843519
Si      10.52071421       3.03499924      31.97943635
Si      11.12308246       6.85479502      19.87058637
Si       6.89647848       3.93279818      11.22892029
Si       8.72914061       7.64651997      18.49260454
Si       4.87987798       3.41280042       9.44139918
Si       7.94674575       0.64388384      18.43274258
Si      12.81812375       3.27236818      33.31389300
Si       6.95487838       2.86197400      11.35164891
22
Lattice="4.6527052255181545 0.5416593364877206 2.550750873213384 2.716245494236114 6.663392785906354 2.1811546706955602 8.653395154892419 0.768501389480478 32.976214381055435" Properties=species:S:1:pos:R:3 unique_starting_index=40 config_type=initial n_minim_iter=5 stress="1.8331231525020585e-05 1.951038931334884e-06 -3.7380272998206504e-05 1.951038931334884e-06 6.793940298164525e-05 1.5258156120279025e-06 -3.7380272998206504e-05 1.5258156120279025e-06 6.799977830058882e-05" pbc="T T T"
Si      12.84489050       4.40391278      33.02490343
Si       4.28083488       3.48694787      10.51899791
Si       8.29912927       1.16966483      17.67869783
Si       8.53502035       3.10072613      30.01089235
Si      10.53929106       3.91342974      31.75860030
Si       8.93517978       6.69564127      18.31926678
Si       4.64783115       2.40302042      10.08475096
Si       8.48715102       6.47003201      19.18382085
Si       3.72052524       2.60186511       1.12776476
Si      12.42084961       4.28876745      33.82321267
Si       8.75165131       1.91626798      24.79305189
Si       7.36222898       4.81221890      24.14717550
Si       1.48915965       2.87625127      -0.43688342
Si       5.56766378       0.77222362      17.16883745
Si      10.52029878       3.03507803      31.98022666
Si      11.12282971       6.85502577      19.87099903
Si       6.89635525       3.93291274      11.22915491
Si       8.72886171       7.64679807      18.49301711
Si       4.87975873       3.41288377       9.44164406
Si       7.94654677       0.64385206      18.43315250
Si      12.81772799       3.27244972      33.31465085
Si       6.95472023       2.86209742      11.35184661
22
Lattice="4.652705482057141 0.5415633401944261 2.550779631802215 2.716106728528476 6.663438342083045 2.181172212227399 8.653848182296693 0.7683779213320197 32.97575800055093" Properties=species:S:1:pos:R:3 unique_starting_index=40 config_type=initial n_minim_iter=6 stress="-3.126234063829574e-05 -6.12321789973149e-05 8.048795314349904e-05 -6.12321789973149e-05 0.00013582692134631713 3.273697337412346e-05 8.048795314349904e-05 3.273697337412346e-05 -0.00014647041381223494" pbc="T T T"
Si      12.84523708       4.40382357      33.02453806
Si       4.28099620       3.48688534      10.51882663
Si       8.29928182       1.16962162      17.67854330
Si       8.53535896       3.10066304      30.01053086
Si      10.53969035       3.91322975      31.75816091
Si       8.93523842       6.69563304      18.31911486
Si       4.64781404       2.40289493      10.08454536
Si       8.48726406       6.47002832      19.18361552
Si       3.72046770       2.60177380       1.12778391
Si      12.42126136       4.28856300      33.82273262
Si       8.75194664       1.91597114      24.79279282
Si       7.36248661       4.81218741      24.14683948
Si       1.48907661       2.87636530      -0.43686947
Si       5.56789310       0.77215289      17.16863973
Si      10.52060323       3.03492731      31.97992301
Si      11.12294497       6.85491502      19.87079023
Si       6.89646553       3.93286190      11.22909234
Si       8.72891909       7.64677948      18.49288013
Si       4.87983596       3.41274510       9.44167905
Si       7.94670571       0.64364505      18.43298838
Si      12.81808157       3.27230154      33.31423051
Si       6.95473454       2.86210651      11.35167915
22
Lattice="4.652700590035618 0.5415557909719567 2.5507894757602485 2.716139298729631 6.663205048420683 2.1811458308367238 8.653384053209669 0.7681215847721974 32.97676743518347" Properties=species:S:1:pos:R:3 unique_starting_index=40 config_type=initial n_minim_iter=7 stress="1.536376411759867e-05 3.049877995935011e-05 -3.3444843592133005e-05 3.049877995935011e-05 -6.201903585466821e-05 9.642020809302469e-07 -3.3444843592133005e-05 9.642020809302469e-07 5.716940977080367e-05" pbc="T T T"
Si      12.84484233       4.40350949      33.02545108
Si       4.28093142       3.48667986      10.51907033
Si       8.29904100       1.16952842      17.67903771
Si       8.53495798       3.10037732      30.01143084
Si      10.53931555       3.91284336      31.75903795
Si       8.93504679       6.69533225      18.31956227
Si       4.64765589       2.40271049      10.08475379
Si       8.48706493       6.46971373      19.18409363
Si       3.72048949       2.60168550       1.12773916
Si      12.42085872       4.28816528      33.82365728
Si       8.75162204       1.91565083      24.79353076
Si       7.36220308       4.81186615      24.14750946
Si       1.48911322       2.87633941      -0.43694472
Si       5.56765713       0.77202434      17.16916340
Si      10.52014429       3.03459930      31.98089344
Si      11.12275924       6.85459608      19.87122089
Si       6.89639431       3.93270293      11.22934911
Si       8.72873939       7.64643238      18.49333892
Si       4.87976523       3.41252855       9.44195445
Si       7.94644002       0.64347969      18.43352348
Si      12.81764151       3.27199680      33.31514630
Si       6.95459424       2.86199727      11.35189994
22
Lattice="4.652694386499852 0.5412863640361177 2.5508529147763808 2.7158942598528664 6.66304758854929 2.1809700645147427 8.653995397165794 0.766697093670928 32.97667277441493" Properties=species:S:1:pos:R:3 unique_starting_index=40 config_type=initial n_minim_iter=8 stress="-4.9140386378393565e-06 -6.291850945065454e-06 1.292427457331949e-05 -6.291850945065454e-06 2.6204337137375253e-07 -4.4566196726967e-05 1.292427457331949e-05 -4.4566196726967e-05 -6.192797252225096e-06" pbc="T T T"
Si      12.84535960       4.40209156      33.02531249
Si       4.28113359       3.48609193      10.51890464
Si       8.29925376       1.16872382      17.67920555
Si       8.53543866       3.09921043      30.01129666
Si      10.53991078       3.91123306      31.75870931
Si       8.93506613       6.69447123      18.31941555
Si       4.64758660       2.40197694      10.08455161
Si       8.48712664       6.46875983      19.18388897
Si       3.72032292       2.60147025       1.12776633
Si      12.42138874       4.28637911      33.82349478
Si       8.75199264       1.91405849      24.79360554
Si       7.36254966       4.81082289      24.14726348
Si       1.48896811       2.87661145      -0.43707633
Si       5.56785319       0.77134564      17.16919586
Si      10.52047497       3.03301951      31.98093078
Si      11.12279155       6.85372195      19.87098951
Si       6.89652958       3.93229478      11.22929091
Si       8.72872575       7.64565729      18.49320453
Si       4.87989225       3.41186309       9.44200757
Si       7.94677309       0.64242746      18.43357791
Si      12.81803884       3.27041982      33.31501181
Si       6.95458318       2.86139454      11.35173534
22
Lattice="4.652684715393459 0.5413085579750955 2.55086167171551 2.7158031790325543 6.663090977150683 2.181182153429947 8.653933263327882 0.7676600791754131 32.976668689169344" Properties=species:S:1:pos:R:3 unique_starting_index=40 config_type=initial n_minim_iter=9 stress="-3.6742614286809814e-06 0.00011672681121652991 -2.3943553727333216e-05 0.00011672681121652991 5.73399309534287e-05 0.00011924642395040392 -2.3943553727333216e-05 0.00011924642395040392 -4.884502480288373e-05" pbc="T T T"
Si      12.84525672       4.40310131      33.02541052
Si       4.28110800       3.48634195      10.51900501
Si       8.29917661       1.16926635      17.67933739
Si       8.53533620       3.10012990      30.01135228
Si      10.53992713       3.91202237      31.75873487
Si       8.93491969       6.69501967      18.31960225
Si       4.64749523       2.40211926      10.08458278
Si       8.48695035       6.46929211      19.18406468
Si       3.72021652       2.60140142       1.12787879
Si      12.42130407       4.28726831      33.82358432
Si       8.75191916       1.91450390      24.79372318
Si       7.36249414       4.81152588      24.14736524
Si       1.48897031       2.87673992      -0.43706175
Si       5.56781739       0.77186110      17.16926111
Si      10.52031850       3.03392836      31.98111594
Si      11.12266933       6.85433819      19.87110983
Si       6.89650565       3.93268195      11.22939625
Si       8.72861198       7.64621914      18.49348752
Si       4.87988999       3.41204054       9.44210420
Si       7.94671751       0.64288294      18.43357523
Si      12.81793592       3.27134057      33.31504422
Si       6.95450502       2.86167581      11.35175636
22
Lattice="4.652681005268072 0.5409892689843805 2.550933565417469 2.715452730040758 6.662760533745865 2.1811150305226783 8.654166644991186 0.7665317966842363 32.97730330734493" Properties=species:S:1:pos:R:3 unique_starting_index=40 config_type=initial n_minim_iter=10 stress="4.693949320584252e-06 -0.00011335378971674195 5.718596184999622e-06 -0.00011335378971674195 -5.110474625332255e-05 -8.812081155188838e-06 5.718596184999622e-06 -8.812081155188838e-06 5.8714974155961214e-05" pbc="T T T"
Si      12.84529719       4.40173762      33.02600016
Si       4.28102097       3.48579523      10.51916346
Si       8.29922741       1.16851941      17.67978799
Si       8.53540358       3.09906122      30.01187553
Si      10.54005755       3.91066357      31.75921348
Si       8.93467974       6.69409687      18.31985959
Si       4.64742501       2.40151208      10.08473849
Si       8.48670067       6.46833964      19.18434288
Si       3.72004068       2.60105877       1.12790052
Si      12.42137422       4.28580665      33.82418403
Si       8.75201387       1.91328572      24.79426350
Si       7.36246950       4.81055668      24.14772939
Si       1.48882679       2.87673392      -0.43717870
Si       5.56792626       0.77121545      17.16963906
Si      10.52036154       3.03266307      31.98181396
Si      11.12246838       6.85328301      19.87135112
Si       6.89641543       3.93207768      11.22956370
Si       8.72835590       7.64526538      18.49378248
Si       4.87982875       3.41146627       9.44221836
Si       7.94681842       0.64204081      18.43394977
Si      12.81805160       3.26992558      33.31566628
Si       6.95443525       2.86101184      11.35191590
22
Lattice="4.652694288164116 0.540903744468059 2.5509218970468432 2.715429976720081 6.662733348804926 2.1809430645022303 8.654449215327462 0.7656858293199352 32.97683599918325" Properties=species:S:1:pos:R:3 unique_starting_index=40 config_type=initial n_minim_iter=11 stress="2.8340343150335204e-05 3.988735973095746e-05 -1.3504661453262344e-05 3.988735973095746e-05 3.097378953456477e-05 -6.421624408182333e-05 -1.3504661453262344e-05 -6.421624408182333e-05 -5.1775290785609355e-05" pbc="T T T"
Si      12.84560798       4.40099330      33.02548822
Si       4.28109773       3.48547419      10.51896715
Si       8.29932054       1.16822281      17.67971824
Si       8.53563012       3.09838635      30.01139355
Si      10.54042803       3.90976126      31.75849668
Si       8.93474631       6.69376523      18.31947311
Si       4.64747838       2.40108974      10.08456825
Si       8.48671696       6.46791526      19.18394315
Si       3.71997862       2.60091203       1.12784310
Si      12.42170433       4.28489560      33.82363928
Si       8.75219752       1.91226666      24.79402459
Si       7.36272094       4.80995241      24.14724676
Si       1.48879825       2.87696909      -0.43731781
Si       5.56808716       0.77076612      17.16946466
Si      10.52047800       3.03179304      31.98149773
Si      11.12259829       6.85291130      19.87084517
Si       6.89652816       3.93187707      11.22932958
Si       8.72849004       7.64487494      18.49346666
Si       4.87996378       3.41115690       9.44194686
Si       7.94693227       0.64148973      18.43371766
Si      12.81832974       3.26908146      33.31520181
Si       6.95450743       2.86071935      11.35166658
22
Lattice="4.652606842311875 0.5408103449386136 2.5511004360973177 2.7151557682069214 6.662587606440484 2.1812897414380914 8.65476953375006 0.7664964017713711 32.97806290470383" Properties=species:S:1:pos:R:3 unique_starting_index=40 config_type=initial n_minim_iter=12 stress="-0.00016206100356571778 2.0714517377312503e-05 0.00010229182911675835 2.0714517377312503e-05 1.4172296446909207e-06 3.5100720256692266e-05 0.00010229182911675835 3.5100720256692266e-05 0.00013865439308788382" pbc="T T T"
Si      12.84573091       4.40163518      33.02691283
Si       4.28103646       3.48556465      10.51950816
Si       8.29933534       1.16866148      17.68058384
Si       8.53578654       3.09910165      30.01262351
Si      10.54067610       3.91034679      31.75967671
Si       8.93456219       6.69403859      18.32044305
Si       4.64745898       2.40113347      10.08508207
Si       8.48654810       6.46818832      19.18491321
Si       3.71979645       2.60070644       1.12799695
Si      12.42185040       4.28547892      33.82507694
Si       8.75232261       1.91247282      24.79512454
Si       7.36283089       4.81041546      24.14827327
Si       1.48866238       2.87703894      -0.43722512
Si       5.56820044       0.77113967      17.17016697
Si      10.52057347       3.03240039      31.98292898
Si      11.12241119       6.85316861      19.87180847
Si       6.89642900       3.93194246      11.22991986
Si       8.72830205       7.64510753      18.49452800
Si       4.87992667       3.41119316       9.44236163
Si       7.94702834       0.64177372      18.43448833
Si      12.81842906       3.26973878      33.31657250
Si       6.95444090       2.86082597      11.35221034
22
Lattice="4.652701977565674 0.5406770721938541 2.550954459053047 2.7149736189051152 6.662438529827652 2.181282010321455 8.654343688938368 0.7666603304595848 32.977200346843105" Properties=species:S:1:pos:R:3 unique_starting_index=40 config_type=initial n_minim_iter=13 stress="7.086680590511842e-05 -4.184289040535827e-05 -4.3201470350564854e-05 -4.184289040535827e-05 -2.933740634923259e-05 3.10864646221112e-05 -4.3201470350564854e-05 3.10864646221112e-05 -5.219622316818861e-05" pbc="T T T"
Si      12.84535849       4.40163914      33.02601043
Si       4.28083272       3.48547756      10.51924885
Si       8.29917569       1.16873295      17.68014207
Si       8.53532972       3.09923143      30.01188029
Si      10.54032514       3.91033484      31.75874934
Si       8.93424263       6.69397291      18.31997386
Si       4.64734046       2.40103185      10.08483747
Si       8.48618780       6.46811109      19.18441519
Si       3.71980518       2.60051619       1.12789643
Si      12.42142962       4.28543521      33.82416042
Si       8.75202677       1.91226544      24.79451987
Si       7.36245313       4.81042771      24.14765153
Si       1.48863207       2.87709146      -0.43723529
Si       5.56797530       0.77118612      17.16971994
Si      10.52009480       3.03242369      31.98218456
Si      11.12214399       6.85306997      19.87118711
Si       6.89631098       3.93179268      11.22957489
Si       8.72793997       7.64501985      18.49410816
Si       4.87981354       3.41107931       9.44203763
Si       7.94689319       0.64170439      18.43395618
Si      12.81802508       3.26975962      33.31562403
Si       6.95436514       2.86072822      11.35184146
22
Lattice="4.652671599273137 0.5405310993650353 2.5510423813331404 2.714777639288359 6.662451081565071 2.181298334715884 8.654431823377235 0.7661449772196381 32.9781386581601" Properties=species:S:1:pos:R:3 unique_starting_index=40 config_type=initial n_minim_iter=14 stress="-4.300638704041811e-06 -5.08569592580881e-06 8.726970305612527e-06 -5.08569592580881e-06 2.02747812996566e-05 -2.964834850858692e-05 8.726970305612527e-06 -2.964834850858692e-05 1.0242400681758512e-05" pbc="T T T"
Si      12.84538453       4.40113120      33.02693744
Si       4.28074731       3.48519670      10.51949617
Si       8.29903877       1.16866546      17.68085551
Si       8.53533742       3.09887346      30.01273832
Si      10.54049410       3.90962918      31.75947687
Si       8.93404877       6.69383712      18.32048153
Si       4.64734881       2.40079344      10.08521961
Si       8.48604426       6.46785425      19.18491174
Si       3.71975097       2.60033853       1.12785911
Si      12.42144675       4.28478439      33.82510122
Si       8.75201099       1.91121796      24.79541774
Si       7.36251475       4.81002145      24.14822654
Si       1.48857906       2.87744224      -0.43743446
Si       5.56792388       0.77093778      17.17027961
Si      10.51986344       3.03190964      31.98337108
Si      11.12195773       6.85299414      19.87160009
Si       6.89622946       3.93144188      11.22982515
Si       8.72770896       7.64490206      18.49468939
Si       4.87979186       3.41083228       9.44210862
Si       7.94692668       0.64115235      18.43450656
Si      12.81792459       3.26923801      33.31651360
Si       6.95436641       2.86050982      11.35211756
22
Lattice="4.6526669124017825 0.5405571563627342 2.551048554926369 2.7146661578752997 6.662440878219037 2.1815722071264165 8.654043085676237 0.767340370772503 32.978665645360294" Properties=species:S:1:pos:R:3 unique_starting_index=40 config_type=initial n_minim_iter=15 stress="2.0812991298926158e-05 -5.1665359960341774e-05 -2.0045996577254854e-05 -5.1665359960341774e-05 -1.1808859357856308e-05 5.923789077323604e-05 -2.0045996577254854e-05 5.923789077323604e-05 3.117808472865325e-05" pbc="T T T"
Si      12.84497135       4.40230727      33.02760376
Si       4.28061052       3.48541465      10.51968476
Si       8.29868928       1.16946266      17.68131408
Si       8.53498717       3.09998450      30.01329776
Si      10.54015965       3.91054096      31.75987855
Si       8.93369718       6.69455279      18.32097821
Si       4.64725938       2.40115727      10.08552773
Si       8.48575302       6.46848384      19.18537882
Si       3.71973918       2.60025810       1.12793278
Si      12.42106450       4.28589168      33.82569400
Si       8.75168218       1.91150593      24.79601867
Si       7.36229119       4.81074472      24.14869515
Si       1.48852788       2.87769641      -0.43743053
Si       5.56769013       0.77159981      17.17063383
Si      10.51931583       3.03295118      31.98416677
Si      11.12172866       6.85389216      19.87200508
Si       6.89607902       3.93162168      11.23004071
Si       8.72734276       7.64561585      18.49530726
Si       4.87967253       3.41102818       9.44225253
Si       7.94670284       0.64160250      18.43475207
Si      12.81758322       3.27043156      33.31702425
Si       6.95430256       2.86077823      11.35233331
22
Lattice="4.652650018335712 0.5407225040675673 2.5510470809591292 2.7149289139625803 6.662609415464468 2.1814698070171876 8.654049805575962 0.7671940911674162 32.97865785696645" Properties=species:S:1:pos:R:3 unique_starting_index=40 config_type=initial n_minim_iter=16 stress="-1.6941590246346782e-06 1.594604991546752e-05 2.1007056170810145e-06 1.594604991546752e-05 9.07646410549327e-06 -6.0407918462079814e-05 2.1007056170810145e-06 -6.0407918462079814e-05 1.7958553289801145e-05" pbc="T T T"
Si      12.84499470       4.40248042      33.02752219
Si       4.28080408       3.48532341      10.51945578
Si       8.29843349       1.16991554      17.68162056
Si       8.53510948       3.10003394      30.01316416
Si      10.54047618       3.91029345      31.75953016
Si       8.93384519       6.69503740      18.32090331
Si       4.64739793       2.40134440      10.08561344
Si       8.48598040       6.46871623      19.18522872
Si       3.71982356       2.60038019       1.12785551
Si      12.42115933       4.28589567      33.82555569
Si       8.75166144       1.91062556      24.79628968
Si       7.36265872       4.81054656      24.14850286
Si       1.48866352       2.87827494      -0.43753969
Si       5.56763650       0.77164697      17.17072508
Si      10.51930480       3.03280701      31.98453836
Si      11.12204475       6.85460457      19.87170536
Si       6.89620987       3.93158966      11.22988932
Si       8.72748261       7.64604748      18.49531243
Si       4.87980706       3.41100418       9.44209249
Si       7.94665025       0.64140614      18.43478122
Si      12.81769858       3.27057841      33.31693957
Si       6.95450355       2.86075072      11.35228484
22
Lattice="4.652621821971934 0.541075825511474 2.551020413512336 2.715120883076043 6.662992023164746 2.1819085246507934 8.653761373949665 0.769901597140744 32.97827496168148" Properties=species:S:1:pos:R:3 unique_starting_index=40 config_type=initial n_minim_iter=17 stress="2.8418326759673265e-06 -1.1422108508991074e-05 -5.633163403968808e-06 -1.1422108508991074e-05 9.239121103537945e-06 4.543250851891396e-06 -5.633163403968808e-06 4.543250851891396e-06 1.831460583593893e-05" pbc="T T T"
Si      12.84471697       4.40552827      33.02725422
Si       4.28091780       3.48616777      10.51930960
Si       8.29787954       1.17207464      17.68192273
Si       8.53496332       3.10275489      30.01286939
Si      10.54048498       3.91262967      31.75898848
Si       8.93386488       6.69728556      18.32117309
Si       4.64745086       2.40242605      10.08576513
Si       8.48602811       6.47070325      19.18538209
Si       3.71996651       2.60062711       1.12798104
Si      12.42089815       4.28879745      33.82540515
Si       8.75138829       1.91150865      24.79649966
Si       7.36286123       4.81232483      24.14834756
Si       1.48871626       2.87896795      -0.43754645
Si       5.56733113       0.77316648      17.17062661
Si      10.51889601       3.03543380      31.98482767
Si      11.12217146       6.85708870      19.87143359
Si       6.89623336       3.93244904      11.22985858
Si       8.72730177       7.64821006      18.49573607
Si       4.87984882       3.41174405       9.44208770
Si       7.94646257       0.64275298      18.43472080
Si      12.81763312       3.27363068      33.31670615
Si       6.95463670       2.86151676      11.35230956
22
Lattice="4.652610839420165 0.5414434392928515 2.5509574589420065 2.7154427833282986 6.663389633742964 2.1821316918645177 8.653510942248202 0.7717965848698142 32.97758888935676" Properties=species:S:1:pos:R:3 unique_starting_index=40 config_type=initial n_minim_iter=18 stress="6.792776739647361e-07 2.3084969694507354e-06 -8.649363166180209e-07 2.3084969694507354e-06 2.9872117435895604e-05 -1.2785571693890152e-05 -8.649363166180209e-07 -1.2785571693890152e-05 3.9849324123426545e-06" pbc="T T T"
Si      12.84461751       4.40779652      33.02665061
Si       4.28105266       3.48700951      10.51910400
Si       8.29732299       1.17369815      17.68198399
Si       8.53486869       3.10470976      30.01235763
Si      10.54048188       3.91439007      31.75809501
Si       8.93406106       6.69914575      18.32098147
Si       4.64753305       2.40309329      10.08566543
Si       8.48626677       6.47231748      19.18529884
Si       3.72017875       2.60091512       1.12805410
Si      12.42072705       4.29105334      33.82479483
Si       8.75119456       1.91208171      24.79635369
Si       7.36312595       4.81350735      24.14786363
Si       1.48896067       2.87949457      -0.43754833
Si       5.56702507       0.77424624      17.17037510
Si      10.51861862       3.03735562      31.98463118
Si      11.12257490       6.85915285      19.87093095
Si       6.89636536       3.93315155      11.22966147
Si       8.72729205       7.65000244      18.49566433