14
Lattice="4.8873775944780515 -0.7484962928755048 -3.349847975069971e-15 -0.9217269684356516 5.23193483752765 1.1220163765206093e-14 5.7260092476454934e-15 -3.304562455311936e-14 15.93669135080817" Properties=species:S:1:pos:R:3 unique_starting_index=0 config_type=initial n_minim_iter=10 energy=-2293.027690717502 free_energy=-2293.027690717502 pbc="T T T"
Si       1.45372900      -0.23377003      13.37075273
Si       0.52909632       2.47548930       5.40240705
Si       2.51192163       4.71720858       2.56593863
Si       3.43655431       2.00794924      10.53428430
Si       3.43494134       1.99800923       5.40237734
Si       3.43526156      -0.50478625      13.37072302
Si       0.53070928       2.48542932      10.53431401
Si       0.53038906       4.98822479       2.56596833
Si       1.98257757       2.24002909       6.75807651
Si       0.00024774       0.00169018      14.72642219
Si       1.98307305       2.24340946       9.17861484
Si       3.96540289       4.48174836       1.21026916
Si       2.44368880      -0.37424815       0.00000000
Si      -0.46086348       2.61596742       7.96834568
