24
Lattice="5.547242040720377 0.07781120286492124 0.14989078971834743 5.299484174911419 8.968519097769626 6.159706733292814 4.840220763363834 10.52526847277767 22.147970443309696" Properties=species:S:1:pos:R:3 unique_starting_index=5 config_type=initial n_minim_iter=1 energy=-4662.465261605965 free_energy=-4662.465261605965 pbc="T T T"
Si       6.47042361       9.94740177      13.57387156
Si       9.21652337       9.62419700      14.88369641
Si       6.46962390       9.15427713      14.01218130
Si       9.21732308      10.41732164      14.44538666
Si      18.23219089      19.04275037      26.98746340
Si      -2.54524391       0.52884841       1.47010457
Si       7.06991404      13.71589554      24.70065336
Si       8.61703294       5.85570323       3.75691461
Si       3.00110488       7.56529433       5.74799824
Si      12.68584210      12.00630444      22.70956972
Si       9.24315799       9.19269320      14.08764070
Si       6.44378899      10.37890557      14.36992727
Si       7.99539216      11.65603367      22.98615800
Si       7.69155482       7.91556510       5.47140997
Si      12.66309571      11.49854824      23.45410746
Si       3.02385127       8.07305053       5.00346051
Si       3.12987135       3.20697585       2.56375908
Si      12.55707563      16.36462292      25.89380889
Si       2.20311672       7.30977815       6.10055372
Si      13.48383026      12.26182063      22.35701424
Si       6.44285806       9.58601205      14.80815237
Si       9.24408892       9.98558673      13.64941559
Si       2.61182737       5.28054521       4.32065046
Si      13.07511961      14.29105357      24.13691751
24
Lattice="5.547852569990372 0.07780189568498554 0.14989228087243847 5.300080077857872 8.967413461936811 6.159317227258075 4.840802149008243 10.524107993416234 22.146338410577325" Properties=species:S:1:pos:R:3 unique_starting_index=5 config_type=initial n_minim_iter=2 stress="0.001426462453506284 0.0003214384127071867 0.0002577799882151921 0.0003214384127071867 -0.0038288528753587414 -0.005970661795640459 0.0002577799882151921 -0.005970661795640459 -0.0011605950088178826" pbc="T T T"
Si       6.47116913       9.94621916      13.57294803
Si       9.21756567       9.62310419      14.88259988
Si       6.47037516       9.15323868      14.01119165
Si       9.21835964      10.41608467      14.44435627
Si      18.23424807      19.04052846      26.98556470
Si      -2.54551328       0.52879489       1.46998322
Si       7.07075877      13.71435880      24.69885211
Si       8.61797603       5.85496455       3.75669581
Si       3.00142740       7.56437400       5.74760013
Si      12.68730740      12.00494935      22.70794779
Si       9.24421137       9.19165038      14.08664607
Si       6.44452343      10.37767297      14.36890185
Si       7.99631149      11.65473410      22.98450442
Si       7.69242331       7.91458925       5.47104350
Si      12.66454588      11.49728672      23.45237762
Si       3.02418891       8.07203663       5.00317030
Si       3.13021346       3.20660508       2.56359813
Si      12.55852133      16.36271827      25.89194978
Si       2.20337688       7.30887507       6.10014909
Si      13.48535791      12.26044828      22.35539883
Si       6.44359264       9.58491883      14.80705710
Si       9.24514216       9.98440452      13.64849082
Si       2.61211086       5.27990569       4.32038074
Si      13.07662394      14.28941766      24.13516718
24
Lattice="5.548635445691073 0.07776498102086862 0.14986710244670384 5.300695257725455 8.967924398421408 6.160720699692203 4.84125285604072 10.528086340670503 22.146560989017484" Properties=species:S:1:pos:R:3 unique_starting_index=5 config_type=initial n_minim_iter=3 stress="0.010284063944498805 5.495986589199563e-05 0.0002785103764345191 5.495986589199563e-05 0.0037510893766838117 0.0023238898098701935 0.0002785103764345191 0.0023238898098701935 0.002168340448493984" pbc="T T T"
Si       6.47191466       9.94823954      13.57397372
Si       9.21866890       9.62553618      14.88317507
Si       6.47114358       9.15554811      14.01191806
Si       9.21943998      10.41822761      14.44523074
Si      18.23644660      19.04466410      26.98719032
Si      -2.54586304       0.52911162       1.46995847
Si       7.07151769      13.71864360      24.69952838
Si       8.61906587       5.85513212       3.75762041
Si       3.00166913       7.56496665       5.74866343
Si      12.68891443      12.00880907      22.70848536
Si       9.24536064       9.19394228      14.08734057
Si       6.44522291      10.37983344      14.36980822
Si       7.99715660      11.65876365      22.98497621
Si       7.69342696       7.91501207       5.47217258
Si      12.66610251      11.50142653      23.45258389
Si       3.02448105       8.07234919       5.00456490
Si       3.13058122       3.20692730       2.56407302
Si      12.56000234      16.36684842      25.89307577
Si       2.20359048       7.30951650       6.10120754
Si      13.48699308      12.26425922      22.35594125
Si       6.44429580       9.58735238      14.80765174
Si       9.24628776       9.98642334      13.64949705
Si       2.61235357       5.28038200       4.32119394
Si      13.07822999      14.29339372      24.13595485
24
Lattice="5.547659414889422 0.0776903796108939 0.14976955539429027 5.299530280855874 8.967077900494845 6.161293720195866 4.8398962644531975 10.530039519618027 22.14458280895741" Properties=species:S:1:pos:R:3 unique_starting_index=5 config_type=initial n_minim_iter=4 stress="-0.0009689642366593086 -0.00020440354915665307 1.3280512786101927e-05 -0.00020440354915665307 -0.0023081283711433175 0.0027434077267808493 1.3280512786101927e-05 0.0027434077267808493 -0.0016947095286463341" pbc="T T T"
Si       6.47043574       9.94852572      13.57357828
Si       9.21665022       9.62628208      14.88206780
Si       6.46969665       9.15626360      14.01117212
Si       9.21738931      10.41854420      14.44447396
Si      18.23249817      19.04548236      26.98583395
Si      -2.54541221       0.52932544       1.46981214
Si       7.06975069      13.72043240      24.69766656
Si       8.61733527       5.85437540       3.75797952
Si       3.00082617       7.56441244       5.74895774
Si      12.68625979      12.01039536      22.70668834
Si       9.24340885       9.19462215      14.08651492
Si       6.44367711      10.38018565      14.36913116
Si       7.99516306      11.66058466      22.98316421
Si       7.69192290       7.91422314       5.47248188
Si      12.66336687      11.50336361      23.45033273
Si       3.02371909       8.07144419       5.00531335
Si       3.12990214       3.20678746       2.56421451
Si      12.55718382      16.36802034      25.89143157
Si       2.20302492       7.30900126       6.10152632
Si      13.48406104      12.26580654      22.35411977
Si       6.44275023       9.58810860      14.80660447
Si       9.24433573       9.98669920      13.64904161
Si       2.61167473       5.28004503       4.32149692
Si      13.07541123      14.29476277      24.13414916
24
Lattice="5.547418452789667 0.07783297176386224 0.14945689801139922 5.299221977266114 8.968747766611083 6.15900063846436 4.838745604848752 10.526558309083057 22.145007444574063" Properties=species:S:1:pos:R:3 unique_starting_index=5 config_type=initial n_minim_iter=5 stress="0.0004630854584306803 -9.469769555459823e-05 0.0003064986885806955 -9.469769555459823e-05 0.002011275513411994 -0.00021730126699634776 0.0003064986885806955 -0.00021730126699634776 -0.001635921529547495" pbc="T T T"
Si       6.46980517       9.94753017      13.57349931
Si       9.21558086       9.62560887      14.87996567
Si       6.46919115       9.15549874      14.01087736
Si       9.21619489      10.41764031      14.44258762
Si      18.23054535      19.04433663      26.98347671
Si      -2.54515931       0.52880242       1.46998827
Si       7.06886903      13.71777334      24.69719780
Si       8.61651700       5.85536570       3.75626718
Si       2.99990499       7.56562260       5.74669130
Si      12.68548104      12.00751645      22.70677368
Si       9.24267937       9.19394416      14.08586921
Si       6.44270667      10.37919489      14.36759577
Si       7.99365050      11.65737410      22.98402103
Si       7.69173554       7.91576495       5.46944395
Si      12.66195806      11.50027235      23.44968529
Si       3.02342798       8.07286669       5.00377969
Si       3.12951651       3.20789339       2.56352858
Si      12.55586952      16.36524566      25.88993640
Si       2.20299160       7.30936479       6.10015500
Si      13.48239443      12.26377425      22.35330998
Si       6.44168293       9.58719801      14.80473713
Si       9.24370311       9.98594104      13.64872785
Si       2.61100692       5.28072461       4.32089415
Si      13.07437911      14.29241443      24.13257083
24
Lattice="5.547357588623272 0.07794835869541283 0.1491649630126702 5.298989382014426 8.967079830620001 6.161229684692351 4.837535229095954 10.524667532878063 22.153783737910512" Properties=species:S:1:pos:R:3 unique_starting_index=5 config_type=initial n_minim_iter=6 stress="0.00039339336885790106 6.236682143726412e-06 -0.00016895736722204803 6.236682143726412e-06 1.8796716044056616e-05 2.7138830404860634e-06 -0.00016895736722204803 2.7138830404860634e-06 0.0017718620523183245" pbc="T T T"
Si       6.46913461       9.94558906      13.57885067
Si       9.21474759       9.62410666      14.88532771
Si       6.46850923       9.15380574      14.01626526
Si       9.21537297      10.41588998      14.44791313
Si      18.22908450      19.04108328      26.99341895
Si      -2.54520230       0.52861245       1.47075944
Si       7.06760346      13.71534478      24.70680448
Si       8.61627874       5.85435095       3.75737391
Si       2.99950995       7.56423914       5.74887026
Si      12.68437225      12.00545658      22.71530813
Si       9.24195249       9.19232637      14.09107299
Si       6.44192971      10.37736935      14.37310539
Si       7.99244264      11.65532963      22.99297046
Si       7.69143956       7.91436609       5.47120793
Si      12.66062404      11.49835218      23.45845648
Si       3.02325816       8.07134354       5.00572191
Si       3.12942306       3.20737944       2.56438288
Si      12.55445913      16.36231628      25.89979550
Si       2.20276925       7.30793509       6.10257009
Si      13.48111295      12.26176064      22.36160830
Si       6.44087321       9.58560983      14.81028316
Si       9.24300899       9.98408589      13.65389522
Si       2.61070642       5.27967979       4.32265650
Si      13.07317578      14.29001593      24.14152188
24
Lattice="5.547330760633434 0.07856135240016424 0.14889738107406628 5.299650675362748 8.967806740068376 6.1611117922496685 4.837618819242318 10.526503120760166 22.152377040246073" Properties=species:S:1:pos:R:3 unique_starting_index=5 config_type=initial n_minim_iter=7 stress="0.0002864841313183195 0.0012833222675539648 -0.00042839570273056057 0.0012833222675539648 0.0008418211149651071 -2.4311681855583282e-05 -0.00042839570273056057 -2.4311681855583282e-05 -7.574158122355386e-05" pbc="T T T"
Si       6.46962120       9.94592824      13.57918330
Si       9.21497906       9.62694297      14.88320291
Si       6.46917771       9.15417427      14.01566993
Si       9.21542254      10.41869694      14.44671628
Si      18.22974851      19.04486680      26.99174504
Si      -2.54514826       0.52800442       1.47064117
Si       7.06819888      13.71758312      24.70421747
Si       8.61640137       5.85528809       3.75816874
Si       2.99869379       7.56510723       5.74869212
Si      12.68590647      12.00776399      22.71369409
Si       9.24255696       9.19318627      14.09008823
Si       6.44204329      10.37968495      14.37229799
Si       7.99343018      11.65752560      22.99104962
Si       7.69117007       7.91534562       5.47133659
Si      12.66077261      11.50062372      23.45632761
Si       3.02382764       8.07224749       5.00605860
Si       3.13010060       3.20769605       2.56386564
Si      12.55449966      16.36517517      25.89852058
Si       2.20326068       7.30826572       6.10232238
Si      13.48133958      12.26460549      22.36006383
Si       6.44115649       9.58798029      14.80864636
Si       9.24344376       9.98489092      13.65373985
Si       2.61010896       5.27917589       4.32313758
Si      13.07449129      14.29369532      24.13924864
24
Lattice="5.547374658990675 0.0759800279666064 0.14978688760964237 5.296506180822961 8.964494926927141 6.162860058692355 4.836270092732055 10.524165575699792 22.155097081367106" Properties=species:S:1:pos:R:3 unique_starting_index=5 config_type=initial n_minim_iter=8 stress="0.00032997986359525444 -0.002806956417691878 -0.00039380814328650836 -0.002806956417691878 0.0006553765125262201 -0.00022325855112490444 -0.00039380814328650836 -0.00022325855112490444 0.00017552180465296447" pbc="T T T"
Si       6.46715868       9.94191705      13.58213640
Si       9.21299226       9.62272348      14.88560762
Si       6.46731253       9.14991883      14.01830636
Si       9.21283840      10.41472170      14.44943767
Si      18.22527493      19.03553554      26.99749053
Si      -2.54512400       0.52910499       1.47025349
Si       7.06605046      13.71416777      24.70704716
Si       8.61410047       5.85047276       3.76069687
Si       2.99567186       7.56303949       5.74978048
Si      12.68447907      12.00160104      22.71796354
Si       9.24075021       9.18773426      14.09305537
Si       6.43940072      10.37690627      14.37468866
Si       7.99223417      11.65362535      22.99446204
Si       7.68791676       7.91101518       5.47328199
Si      12.65935448      11.49456422      23.46045340
Si       3.02079645       8.07007631       5.00729063
Si       3.12923446       3.20591018       2.56453601
Si      12.55091647      16.35873035      25.90320801
Si       2.20064751       7.30639179       6.10351853
Si      13.47950342      12.25824874      22.36422550
Si       6.43913940       9.58498718      14.81077132
Si       9.24101153       9.97965335      13.65697271
Si       2.60786170       5.27707304       4.32434355
Si      13.07228923      14.28756749      24.14340048
24
Lattice="5.547372852604583 0.07685986519907535 0.1523024707945497 5.300599119852702 8.963683109343895 6.167764721863089 4.847773884279396 10.526170062448632 22.161745616472526" Properties=species:S:1:pos:R:3 unique_starting_index=5 config_type=initial n_minim_iter=9 stress="-3.026756529523828e-05 0.00031142729727749664 0.002941986135238094 0.00031142729727749664 5.693319528910314e-05 9.340428811375172e-05 0.002941986135238094 9.340428811375172e-05 0.0007217936682620748" pbc="T T T"
Si       6.47466097       9.94168760      13.58951833
Si       9.22108489       9.62502543      14.89229448
Si       6.47492636       9.14904250      14.02509540
Si       9.22081950      10.41767053      14.45671741
Si      18.24002525      19.03795467      27.01265734
Si      -2.54427939       0.52875836       1.46915546
Si       7.07969591      13.71654512      24.71450834
Si       8.61604994       5.85016791       3.76730447
Si       2.99877448       7.56218452       5.75286072
Si      12.69697137      12.00452852      22.72895209
Si       9.24846130       9.18746042      14.10091133
Si       6.44728455      10.37925262      14.38090148
Si       8.00524903      11.65607607      23.00313292
Si       7.69049683       7.91063696       5.47867988
Si      12.67176847      11.49775438      23.47116932
Si       3.02397739       8.06895866       5.01064349
Si       3.13113253       3.20594253       2.56666278
Si      12.56461333      16.36077051      25.91515003
Si       2.20386924       7.30502067       6.10683263
Si      13.49187662      12.26169237      22.37498017
Si       6.44720802       9.58672363      14.81649961
Si       9.24853783       9.97998941      13.66531320
Si       2.60955281       5.27590899       4.32740804
Si      13.08619305      14.29080405      24.15440477
24
Lattice="5.547485555525333 0.07703010596146671 0.15010691679235336 5.298590207329827 8.96317473379191 6.166320920134192 4.839475789776362 10.527475610826729 22.159345362208196" Properties=species:S:1:pos:R:3 unique_starting_index=5 config_type=initial n_minim_iter=10 stress="9.053452301293518e-05 0.00020360217058982248 -0.0008040706211217439 0.00020360217058982248 0.00022309307008359575 1.3169493171506883e-05 -0.0008040706211217439 1.3169493171506883e-05 -2.3751315655061697e-05" pbc="T T T"
Si       6.46987973       9.94146531      13.58780576
Si       9.21567182       9.62621514      14.88796744
Si       6.46978713       9.14828071      14.02296624
Si       9.21576443      10.41939974      14.45280695
Si      18.23046679      19.03900045      27.00582352
Si      -2.54491524       0.52868000       1.46994968
Si       7.07083573      13.71815400      24.71083537
Si       8.61471583       5.84952645       3.76493783
Si       2.99649584       7.56166816       5.75186459
Si      12.68905571      12.00601229      22.72390861
Si       9.24341506       9.18686247      14.09758812
Si       6.44213649      10.38081798      14.37818508
Si       7.99732798      11.65746693      22.99957302
Si       7.68822358       7.91021352       5.47620018
Si      12.66345166      11.49928535      23.46590179
Si       3.02209989       8.06839510       5.00987141
Si       3.13045625       3.20586968       2.56555623
Si      12.55509530      16.36181077      25.91021697
Si       2.20122259       7.30427408       6.10654412
Si      13.48432896      12.26340637      22.36922908
Si       6.44174163       9.58774583      14.81343305
Si       9.24380992       9.97993462      13.66234015
Si       2.60733832       5.27526311       4.32689044
Si      13.07821323      14.29241734      24.14888276
24
Lattice="5.547361531257491 0.07552085353512927 0.15250615267273168 5.298595600023862 8.95957002288179 6.1718992339604455 4.845918183869346 10.529882006069862 22.164201228816268" Properties=species:S:1:pos:R:3 unique_starting_index=5 config_type=initial n_minim_iter=11 stress="-0.00021992648321304058 -1.810129204385993e-05 9.566340249648931e-05 -1.810129204385993e-05 -0.00028957346213293413 0.0001998773770170574 9.566340249648931e-05 0.0001998773770170574 5.6847561569405946e-05" pbc="T T T"
Si       6.47318076       9.93852932      13.59572073
Si       9.21869456       9.62644357      14.89288588
Si       6.47246410       9.14433133      14.02985293
Si       9.21941121      10.42064155      14.45875368
Si      18.23569409      19.03614555      27.01979778
Si      -2.54381878       0.52882733       1.46880883
Si       7.07755474      13.72033430      24.71720947
Si       8.61432058       5.84463858       3.77139715
Si       2.99601559       7.55855213       5.75598037
Si      12.69585972      12.00642075      22.73262625
Si       9.24581185       9.18211582      14.10566735
Si       6.44606346      10.38285706      14.38293927
Si       8.00410287      11.65855220      23.00496859
Si       7.68777245       7.90642069       5.48363803
Si      12.67059928      11.49923649      23.47453860
Si       3.02127604       8.06573639       5.01406801
Si       3.13093780       3.20423474       2.56899580
Si      12.56093751      16.36073815      25.91961082
Si       2.20063043       7.30153082       6.11053922
Si      13.49124489      12.26344206      22.37806740
Si       6.44499556       9.58864472      14.81709775
Si       9.24687975       9.97632817      13.67150886
Si       2.60585866       5.27326331       4.33040372
Si      13.08601665      14.29170957      24.15820289
24
Lattice="5.547088450412644 0.07371120249869288 0.15454174171738225 5.297579538638461 8.955609704983308 6.177276813065031 4.850236689117468 10.533070822066174 22.167613125852434" Properties=species:S:1:pos:R:3 unique_starting_index=5 config_type=initial n_minim_iter=12 stress="-0.0006502411383054928 -3.946957182335073e-05 -8.882815491058157e-05 -3.946957182335073e-05 -0.0006700686705315169 0.00043038175232096857 -8.882815491058157e-05 0.00043038175232096857 4.450771455651483e-05" pbc="T T T"
Si       6.47507894       9.93442651      13.60338905
Si       9.21982573       9.62796522      14.89604263
Si       6.47327779       9.13979117      14.03577904
Si       9.22162688      10.42260056      14.46365264
Si      18.23743554      19.03322657      27.03166547
Si      -2.54253086       0.52916516       1.46776621
Si       7.08151378      13.72179645      24.72159699
Si       8.61339090       5.84059528       3.77783469
Si       2.99486633       7.55472858       5.76032479
Si      12.70003835      12.00766315      22.73910689
Si       9.24665862       9.17654544      14.11281969
Si       6.44824606      10.38584629      14.38661199
Si       8.00803269      11.66097474      23.00931720
Si       7.68687199       7.90141699       5.49011448
Si      12.67542303      11.49980102      23.48144344
Si       3.01948164       8.06259071       5.01798824
Si       3.13068327       3.20084320       2.57228709
Si      12.56422140      16.36154853      25.92714459
Si       2.19889367       7.29818204       6.11489654
Si      13.49601100      12.26420969      22.38453514
Si       6.44595010       9.59109663      14.81894932
Si       9.24895458       9.97129510      13.68048236
Si       2.60314317       5.27132317       4.33358346
Si      13.09176151      14.29106856      24.16584822
24
Lattice="5.546921074138292 0.07237013093130658 0.15597125542133347 5.2967836644410955 8.952597305616482 6.180881147469827 4.85316676563717 10.534621135638265 22.17002204929359" Properties=species:S:1:pos:R:3 unique_starting_index=5 config_type=initial n_minim_iter=13 stress="-0.0009743324185535146 -8.776361644114462e-05 -0.00010902809827701786 -8.776361644114462e-05 -0.00080434413814731 0.0005722866429982089 -0.00010902809827701786 0.0005722866429982089 0.00015056965625976748" pbc="T T T"
Si       6.47655905       9.93062846      13.60866040
Si       9.22031246       9.62896011      14.89821406
Si       6.47428999       9.13586930      14.03983812
Si       9.22258152      10.42371927      14.46703633
Si      18.23858546      19.03018844      27.03997694
Si      -2.54171396       0.52940013       1.46689751
Si       7.08399177      13.72228607      24.72506710
Si       8.61287974       5.83730250       3.78180735
Si       2.99434270       7.55237681       5.76361194
Si      12.70252881      12.00721176      22.74326252
Si       9.24749941       9.17188646      14.11782815
Si       6.44937209      10.38770211      14.38904631
Si       8.01063982      11.66186428      23.01271700
Si       7.68623168       7.89772430       5.49415745
Si      12.67838154      11.49898654      23.48595604
Si       3.01848996       8.06060204       5.02091841
Si       3.12996253       3.19880631       2.57519882
Si      12.56690897      16.36078226      25.93167564
Si       2.19761486       7.29563668       6.11818510
Si      13.49925664      12.26395189      22.38868935
Si       6.44657081       9.59286773      14.82019637
Si       9.25030069       9.96672085      13.68667809
Si       2.60117305       5.26892473       4.33456439
Si      13.09569846      14.29066384      24.17231006
24
Lattice="5.547009454760898 0.071460568541103 0.15697927076119042 5.296453251223963 8.949683453657276 6.184748198503431 4.8554175118505905 10.536858723611827 22.17349353607573" Properties=species:S:1:pos:R:3 unique_starting_index=5 config_type=initial n_minim_iter=14 stress="-0.0011339559610608397 -0.0001659671497954754 -0.0001746338293341725 -0.0001659671497954754 -0.0009127928125194931 0.0007919037141881404 -0.0001746338293341725 0.0007919037141881404 0.00032470284861034867" pbc="T T T"
Si       6.47793952       9.92743960      13.61426743
Si       9.22094070       9.63056314      14.90095358
Si       6.47619196       9.13193134      14.04533601
Si       9.22268826      10.42607141      14.46988500
Si      18.24085619      19.02809674      27.04883643
Si      -2.54197597       0.52990600       1.46638458
Si       7.08489024      13.72333665      24.72953631
Si       8.61398998       5.83466610       3.78568470
Si       2.99393483       7.55021509       5.76673259
Si      12.70494539      12.00778766      22.74848842
Si       9.24928107       9.16751191      14.12399684
Si       6.44959914      10.39049084      14.39122416
Si       8.01271171      11.66440007      23.01702371
Si       7.68616851       7.89360268       5.49819730
Si      12.68007479      11.49931907      23.49075364
Si       3.01880543       8.05868368       5.02446737
Si       3.12913581       3.19696596       2.57846446
Si      12.56974440      16.36103679      25.93675654
Si       2.19736877       7.29303671       6.12105107
Si      13.50151144      12.26496603      22.39416994
Si       6.44750610       9.59499512      14.82236646
Si       9.25137412       9.96300763      13.69285454
Si       2.59982784       5.26800113       4.33607391
Si      13.09905237      14.29000162      24.17914710
24
Lattice="5.547104475620479 0.07150078194727183 0.15789704422522788 5.2975572421205515 8.948323509534331 6.188078261696001 4.859098735937621 10.539083158793982 22.177605005454268" Properties=species:S:1:pos:R:3 unique_starting_index=5 config_type=initial n_minim_iter=15 stress="-0.0011793732458242711 -0.00012319093677289937 -0.00016971821277175246 -0.00012319093677289937 -0.0008154427810920263 0.0009354811271586188 -0.00016971821277175246 0.0009354811271586188 0.0005009694667882432" pbc="T T T"
Si       6.47990615       9.92537942      13.61952741
Si       9.22385430       9.63352803      14.90405290
Si       6.47852673       9.12993995      14.05097435
Si       9.22523373      10.42896750      14.47260597
Si      18.24673179      19.02879189      27.05797059
Si      -2.54297133       0.53011556       1.46560972
Si       7.08800815      13.72533139      24.73446333
Si       8.61575230       5.83357606       3.78911698
Si       2.99499911       7.54925587       5.76919137
Si      12.70876135      12.00965158      22.75438894
Si       9.25232354       9.16556768      14.13003571
Si       6.45143692      10.39333977      14.39354461
Si       8.01634614      11.66580913      23.02187738
Si       7.68741431       7.89309832       5.50170293
Si      12.68353892      11.50091697      23.49650536
Si       3.02022153       8.05799048       5.02707495
Si       3.12853055       3.19547318       2.58093577
Si      12.57522990      16.36343427      25.94264454
Si       2.19875888       7.29141927       6.12358382
Si      13.50500157      12.26748818      22.39999649
Si       6.44969710       9.59781568      14.82498864
Si       9.25406336       9.96109177      13.69859168
Si       2.60011025       5.26758341       4.33756269
Si      13.10365020      14.29132404      24.18601762
24
Lattice="5.54708355572627 0.07190525169544862 0.15906852848772124 5.299405513352651 8.946845547789005 6.192046641687383 4.864327465453751 10.540555507086774 22.184158451588676" Properties=species:S:1:pos:R:3 unique_starting_index=5 config_type=initial n_minim_iter=16 stress="-0.001186132873558259 -6.5502036848694994e-06 -0.000153044869261621 -6.5502036848694994e-06 -0.0004588615579032423 0.0009585862035359396 -0.000153044869261621 0.0009585862035359396 0.0008344495107519775" pbc="T T T"
Si       6.48364888       9.92213927      13.62642804
Si       9.22716765       9.63716704      14.90884558
Si       6.48222750       9.12744972      14.05873926
Si       9.22858903      10.43185658      14.47653436
Si      18.25490671      19.02969162      27.06999433
Si      -2.54409017       0.52961469       1.46527929
Si       7.09289446      13.72695401      24.74198386
Si       8.61792207       5.83235229       3.79328976
Si       2.99697953       7.54777753       5.77151535
Si      12.71383700      12.01152878      22.76375827
Si       9.25516897       9.16335284      14.13818149
Si       6.45564757      10.39595347      14.39709213
Si       8.02150832      11.66680935      23.02926905
Si       7.68930822       7.89249696       5.50600457
Si      12.68775171      11.50281038      23.50539654
Si       3.02306482       8.05649592       5.02987708
Si       3.12780327       3.19350140       2.58358159
Si      12.58301327      16.36580490      25.95169203
Si       2.20123387       7.28950658       6.12635293
Si      13.50958267      12.26979973      22.40892069
Si       6.45380015       9.60111848      14.82931899
Si       9.25701638       9.95818783      13.70595463
Si       2.60112716       5.26653181       4.33942516
Si      13.10968938      14.29277450      24.19584846
24
Lattice="5.547056410634188 0.07190383740718741 0.15984749070247156 5.300187696179765 8.945310258622023 6.1948629920221014 4.86727891489655 10.541284779329043 22.18867512753171" Properties=species:S:1:pos:R:3 unique_starting_index=5 config_type=initial n_minim_iter=17 stress="-0.0010967143419765091 2.3454139031338782e-05 -0.00014963769234839201 2.3454139031338782e-05 -0.0001517478323074636 0.0009432107621587262 -0.00014963769234839201 0.0009432107621587262 0.0010088829977676417" pbc="T T T"
Si       6.48529240       9.91952242      13.63081200
Si       9.22923063       9.63897646      14.91257361
Si       6.48350743       9.12545917      14.06424356
Si       9.23101559      10.43303970      14.47914205
Si      18.25913458      19.02981937      27.07805566
Si      -2.54461156       0.52867951       1.46532995
Si       7.09533364      13.72778176      24.74718303
Si       8.61918938       5.83071712       3.79620258
Si       2.99804217       7.54636019       5.77316125
Si      12.71648085      12.01213869      22.77022436
Si       9.25700473       9.16147699      14.14405861
Si       6.45751829      10.39702188      14.39932700
Si       8.02415807      11.66757361      23.03454439
Si       7.69036495       7.89092526       5.50884122
Si      12.68978444      11.50354855      23.51146518
Si       3.02473858       8.05495033       5.03192043
Si       3.12744414       3.19239549       2.58528513
Si      12.58707888      16.36610338      25.95810048