12
Lattice="5.896229798685206 1.6057179058561442 -1.703041821215661 0.5065238259609341 8.014714074236313 0.42764963470263195 -2.939685307187304 -2.3036351011064164 11.28108470394805" Properties=species:S:1:pos:R:3 unique_starting_index=44 config_type=initial n_minim_iter=1 energy=-2129.6091020995177 free_energy=-2129.6091020995177 pbc="T T T"
Si      -1.43833083       1.66079959       9.22876237
Si      -0.06742299       5.34213003       3.80307557
Si      -1.60855014       4.29367887       9.96919867
Si       3.22886955       3.35429812       7.36439566
Si       4.00943172       5.96507954       7.36474280
Si       4.02874339       3.32334538       6.60052747
Si       6.47543980       5.58549045      -2.92250235
Si       1.66780073       3.88066575      -1.04799941
Si      -2.21701650      -0.99892447       9.83672008
Si       5.46517546       4.87766608       2.06143262
Si      -2.53192320      -0.92458809       8.81654607
Si      -1.49430348      -1.01131881       9.05133241
12
Lattice="5.896152974541837 1.6056141102835784 -1.703025670391855 0.5064785780261373 8.014327120707856 0.42763540590969795 -2.93977129563371 -2.3034928722525874 11.280541104282799" Properties=species:S:1:pos:R:3 unique_starting_index=44 config_type=initial n_minim_iter=2 stress="6.644529512904516e-05 -0.00010085692328584219 0.00017991975847233668 -0.00010085692328584219 -0.0018265550084477296 -0.0001510099860789784 0.00017991975847233668 -0.0001510099860789784 0.0006065816973204013" pbc="T T T"
Si      -1.43843964       1.66072221       9.22831322
Si      -0.06749159       5.34189083       3.80289247
Si      -1.60867082       4.29349172       9.96871449
Si       3.22871640       3.35415214       7.36396416
Si       4.00925143       5.96478453       7.36433055
Si       4.02858802       3.32317924       6.60014648
Si       6.47536762       5.58520343      -2.92240653
Si       1.66777438       3.88046916      -1.04796245
Si      -2.21710214      -0.99886136       9.83623806
Si       5.46504637       4.87740439       2.06126655
Si      -2.53198867      -0.92452975       8.81612938
Si      -1.49439627      -1.01122508       9.05089078
12
Lattice="5.895888620071756 1.6056332129630817 -1.7029426776708416 0.5064004157870681 8.014702819692927 0.42768690880285887 -2.940322798419461 -2.303319384964529 11.277815054504803" Properties=species:S:1:pos:R:3 unique_starting_index=44 config_type=initial n_minim_iter=3 stress="-0.0005038051577042174 1.6902479335324144e-05 -6.719736772797281e-05 1.6902479335324144e-05 0.00023647229744829806 6.487712085187177e-05 -6.719736772797281e-05 6.487712085187177e-05 -0.0007000184047922134" pbc="T T T"
Si      -1.43901013       1.66091470       9.22611258
Si      -0.06775497       5.34229127       3.80206665
Si      -1.60925542       4.29390823       9.96638496
Si       3.22803050       3.35456451       7.36184202
Si       4.00848638       5.96520034       7.36235581
Si       4.02790707       3.32347330       6.59828092
Si       6.47521816       5.58544587      -2.92185142
Si       1.66774461       3.88060950      -1.04771844
Si      -2.21761491      -0.99872782       9.83383700
Si       5.46456040       4.87761394       2.06049553
Si      -2.53240143      -0.92441982       8.81405234
Si      -1.49493175      -1.01091858       9.04868764
12
Lattice="5.89693101317787 1.6055530924781733 -1.7032702810339067 0.506379316448555 8.014622673181238 0.42768758174872934 -2.9415067406736757 -2.303205850612615 11.277684094225604" Properties=species:S:1:pos:R:3 unique_starting_index=44 config_type=initial n_minim_iter=4 stress="0.00044947868983011714 -2.765070441846313e-05 -0.00015138431022903345 -2.765070441846313e-05 6.357586988644001e-05 1.5675793690810166e-05 -0.00015138431022903345 1.5675793690810166e-05 1.3451622256824342e-05" pbc="T T T"
Si      -1.43998554       1.66068308       9.22598200
Si      -0.06809758       5.34245900       3.80202218
Si      -1.61021138       4.29388263       9.96632247
Si       3.22803893       3.35477098       7.36107918
Si       4.00853966       5.96510244       7.36185835
Si       4.02810109       3.32343222       6.59767076
Si       6.47661274       5.58549107      -2.92182822
Si       1.66815449       3.88051747      -1.04762928
Si      -2.21861786      -0.99881138       9.83372493
Si       5.46527367       4.87737309       2.06009537
Si      -2.53340393      -0.92450348       8.81394169
Si      -1.49582273      -1.01053298       9.04857598
12
Lattice="5.896040089730727 1.6056209478005798 -1.702990326951521 0.5064090622615545 8.014637024988135 0.42767944559317994 -2.940641565923211 -2.303267627738595 11.277320724479548" Properties=species:S:1:pos:R:3 unique_starting_index=44 config_type=initial n_minim_iter=5 stress="-0.00041583179347133353 -3.8354189505696535e-05 0.0002159608970259109 -3.8354189505696535e-05 7.82449433475656e-05 -3.7983806005825586e-06 0.0002159608970259109 -3.7983806005825586e-06 0.0002259110634970005" pbc="T T T"
Si      -1.43945515       1.66058648       9.22573579
Si      -0.06790550       5.34258366       3.80194243
Si      -1.60948398       4.29384881       9.96607701
Si       3.22793832       3.35483432       7.36093222
Si       4.00834417       5.96514403       7.36178929
Si       4.02784893       3.32345851       6.59754332
Si       6.47570707       5.58560199      -2.92141704
Si       1.66800198       3.88052024      -1.04743391
Si      -2.21792378      -0.99888090       9.83348006
Si       5.46464548       4.87733369       2.06025685
Si      -2.53273785      -0.92456639       8.81360615
Si      -1.49529479      -1.01056864       9.04833496
12
Lattice="5.896885137236671 1.6062344231940928 -1.703206473981567 0.5072469965512371 8.014550148175008 0.42741446214497203 -2.9430697791284963 -2.3035073835524846 11.272408036478572" Properties=species:S:1:pos:R:3 unique_starting_index=44 config_type=initial n_minim_iter=6 stress="9.801529115741733e-06 -2.036284959918788e-05 -2.2682156640349645e-05 -2.036284959918788e-05 1.303440121374553e-05 1.1525217967067305e-05 -2.2682156640349645e-05 1.1525217967067305e-05 -5.103161220668653e-05" pbc="T T T"
Si      -1.44149379       1.66032406       9.22170669
Si      -0.06823361       5.34330171       3.80027915
Si      -1.61063558       4.29368632       9.96175678
Si       3.22728654       3.35521663       7.35651621
Si       4.00805142       5.96559176       7.35729763
Si       4.02748954       3.32383830       6.59285098
Si       6.47748676       5.58622329      -2.92090982
Si       1.66933328       3.88050092      -1.04664907
Si      -2.22007047      -0.99901706       9.82960100
Si       5.46522012       4.87724990       2.05825649
Si      -2.53494482      -0.92468832       8.80953178
Si      -1.49732651      -1.01099780       9.04429158
12
Lattice="5.8969356797973465 1.6063965231786101 -1.7032102637915778 0.5074552846389296 8.014540398813068 0.42734945750328535 -2.943218071871348 -2.3036464087843047 11.27209515409258" Properties=species:S:1:pos:R:3 unique_starting_index=44 config_type=initial n_minim_iter=7 stress="-2.0407900598985495e-06 2.862987061235766e-05 -1.4161583360040533e-05 2.862987061235766e-05 1.8516562298162178e-06 -4.718407515586696e-06 -1.4161583360040533e-05 -4.718407515586696e-06 -5.064950375729086e-05" pbc="T T T"
Si      -1.44159396       1.66024730       9.22144557
Si      -0.06823370       5.34342707       3.80017613
Si      -1.61057687       4.29345443       9.96148057
Si       3.22734111       3.35526612       7.35622381
Si       4.00813529       5.96552796       7.35693540
Si       4.02759700       3.32387832       6.59254012
Si       6.47768554       5.58641277      -2.92090257
Si       1.66953522       3.88051864      -1.04665387
Si      -2.22017301      -0.99906536       9.82937718
Si       5.46534202       4.87726443       2.05810774
Si      -2.53506671      -0.92473205       8.80924528
Si      -1.49746785      -1.01106727       9.04404370
12
Lattice="5.896816856279027 1.6062530422519592 -1.7031840403536873 0.5072663139068945 8.014550269421429 0.42740850811008285 -2.942886588043272 -2.3035531281124957 11.272757866529714" Properties=species:S:1:pos:R:3 unique_starting_index=44 config_type=initial n_minim_iter=8 stress="1.0615663936991678e-05 -0.00018410015955752773 -2.0539775742303647e-05 -0.00018410015955752773 -4.637620509557939e-06 5.739840632778991e-05 -2.0539775742303647e-05 5.739840632778991e-05 -1.944131747865295e-06" pbc="T T T"
Si      -1.44157173       1.66029012       9.22206501
Si      -0.06902317       5.34419135       3.80071957
Si      -1.61045637       4.29355816       9.96214914
Si       3.22750949       3.35526810       7.35677372
Si       4.00809488       5.96549814       7.35749383
Si       4.02806306       3.32359660       6.59310475
Si       6.47753446       5.58631863      -2.92097643
Si       1.66972923       3.88030114      -1.04697052
Si      -2.21983078      -0.99900462       9.83000243
Si       5.46531235       4.87674161       2.05832286
Si      -2.53478242      -0.92465763       8.80968283
Si      -1.49743980      -1.01108087       9.04465723
12
Lattice="5.896885520748385 1.6068945998573492 -1.7031584876881896 0.5080834645757426 8.014509725573337 0.42715331625227076 -2.9428340741175805 -2.30422329089729 11.273124884267801" Properties=species:S:1:pos:R:3 unique_starting_index=44 config_type=initial n_minim_iter=9 stress="9.715870291937413e-06 0.0001831551386177804 1.5133522943104708e-05 0.0001831551386177804 -4.987508464301665e-05 -6.130038929848895e-05 1.5133522943104708e-05 -6.130038929848895e-05 6.3690860343290576e-06" pbc="T T T"
Si      -1.44121990       1.65983202       9.22227812
Si      -0.06880203       5.34435444       3.80080226
Si      -1.60980321       4.29300701       9.96220311
Si       3.22803891       3.35529570       7.35693440
Si       4.00884999       5.96558069       7.35768120
Si       4.02868171       3.32368670       6.59327407
Si       6.47802988       5.58701202      -2.92112279
Si       1.67022748       3.88041966      -1.04719127
Si      -2.21969730      -0.99959861       9.83028061
Si       5.46585429       4.87699918       2.05831341
Si      -2.53465319      -0.92525062       8.80994726
Si      -1.49732368      -1.01153613       9.04494331
12
Lattice="5.896651235275335 1.6065628643149534 -1.703110340953923 0.5076513986092264 8.014521771763228 0.4272875638759316 -2.9424662419231513 -2.303923080181763 11.273509376456406" Properties=species:S:1:pos:R:3 unique_starting_index=44 config_type=initial n_minim_iter=10 stress="-1.0184710408101846e-05 -4.817038495174754e-05 2.3419728582499403e-05 -4.817038495174754e-05 -4.1337988326925116e-05 6.242189951426097e-06 2.3419728582499403e-05 6.242189951426097e-06 7.028269398090051e-05" pbc="T T T"
Si      -1.44114358       1.66001779       9.22265944
Si      -0.06967433       5.34491571       3.80126568
Si      -1.60987392       4.29319427       9.96250944
Si       3.22799753       3.35523891       7.35728409
Si       4.00861258       5.96542025       7.35825463
Si       4.02868912       3.32354389       6.59359074
Si       6.47764887       5.58664836      -2.92106621
Si       1.67013612       3.88030017      -1.04719461
Si      -2.21950948      -0.99934528       9.83057067
Si       5.46561291       4.87655019       2.05850846
Si      -2.53443071      -0.92500547       8.81034956
Si      -1.49694321      -1.01141133       9.04522630
12
Lattice="5.896655859540264 1.6065814390059223 -1.703110414898965 0.5076787541760742 8.014505239999362 0.42727791516649455 -2.9426098997775147 -2.3039088348245094 11.273059036181207" Properties=species:S:1:pos:R:3 unique_starting_index=44 config_type=initial n_minim_iter=11 stress="5.094511239677715e-06 8.25781328772683e-06 1.3487477463299688e-05 8.25781328772683e-06 -5.111959928121026e-05 -9.686927040629022e-06 1.3487477463299688e-05 -9.686927040629022e-06 4.197015673808511e-05" pbc="T T T"
Si      -1.44121562       1.65989774       9.22226551
Si      -0.07080556       5.34558815       3.80150431
Si      -1.60988953       4.29316508       9.96223593
Si       3.22803965       3.35514885       7.35687719
Si       4.00852799       5.96542702       7.35774259
Si       4.02873020       3.32360745       6.59320508
Si       6.47782339       5.58654671      -2.92105926
Si       1.67029950       3.88033485      -1.04718402
Si      -2.21971065      -0.99936636       9.82999443
Si       5.46578535       4.87636193       2.05828196
Si      -2.53450322      -0.92505693       8.81019015
Si      -1.49677564      -1.01147220       9.04476272
12
Lattice="5.896672959088462 1.606124372963983 -1.7031489979194825 0.5071008562664643 8.014532321082614 0.42745827364432987 -2.943728065414841 -2.303191852870964 11.269530597549004" Properties=species:S:1:pos:R:3 unique_starting_index=44 config_type=initial n_minim_iter=12 stress="2.2931222480497557e-05 1.4956759591645837e-06 4.009818006364948e-06 1.4956759591645837e-06 -2.0398766931826675e-06 -3.202062210307291e-06 4.009818006364948e-06 -3.202062210307291e-06 3.409732010393244e-05" pbc="T T T"
Si      -1.44190759       1.66019619       9.21927432
Si      -0.07598752       5.34782293       3.80200310
Si      -1.61091606       4.29350325       9.95930928
Si       3.22717142       3.35494152       7.35399102
Si       4.00754192       5.96530261       7.35485301
Si       4.02763211       3.32391372       6.59029839
Si       6.47802426       5.58563399      -2.92057592
Si       1.67032572       3.88037572      -1.04644840
Si      -2.22002422      -0.99907690       9.82692284
Si       5.46609419       4.87597750       2.05689500
Si      -2.53483757      -0.92476256       8.80705122
Si      -1.49742850      -1.01114315       9.04176169
12
Lattice="5.896436526316378 1.6056725862465846 -1.7031089360513163 0.506523487994333 8.014521688994993 0.4276357206122096 -2.944794062717489 -2.302432616579449 11.265271173806381" Properties=species:S:1:pos:R:3 unique_starting_index=44 config_type=initial n_minim_iter=13 stress="-2.016639505009037e-05 -1.8701923420679168e-05 9.401797492297931e-06 -1.8701923420679168e-05 5.376671419851159e-05 8.619075648798481e-06 9.401797492297931e-06 8.619075648798481e-06 1.2432381880121525e-05" pbc="T T T"
Si      -1.44244582       1.66048604       9.21564499
Si      -0.08153152       5.34993989       3.80237397
Si      -1.61181707       4.29395871       9.95578788
Si       3.22605582       3.35474105       7.35051536
Si       4.00641351       5.96530415       7.35140095
Si       4.02638404       3.32382261       6.58698990
Si       6.47796839       5.58467576      -2.91981249
Si       1.67030745       3.87999430      -1.04577284
Si      -2.22044130      -0.99865606       9.82358173
Si       5.46623498       4.87584265       2.05534702
Si      -2.53543195      -0.92429986       8.80313573
Si      -1.49768538      -1.01050072       9.03807120
12
Lattice="5.896514222524381 1.6054267463627385 -1.7031508327292613 0.506227815026065 8.014487868493271 0.4277245243883386 -2.947106086526703 -2.3016593448720037 11.258074726654224" Properties=species:S:1:pos:R:3 unique_starting_index=44 config_type=initial n_minim_iter=14 stress="-3.8703253976974114e-05 -5.7535415565386834e-05 -1.3164385453658972e-05 -5.7535415565386834e-05 0.00013511652636286772 3.2543526764276e-05 -1.3164385453658972e-05 3.2543526764276e-05 -6.133407023253176e-05" pbc="T T T"
Si      -1.44337946       1.66134693       9.20944851
Si      -0.09010034       5.35272316       3.80265763
Si      -1.61314520       4.29417722       9.94976692
Si       3.22445564       3.35499067       7.34450448
Si       4.00510667       5.96529013       7.34515537
Si       4.02481864       3.32357440       6.58091320
Si       6.47866655       5.58415534      -2.91867125
Si       1.67097324       3.87921940      -1.04462134
Si      -2.22176169      -0.99850615       9.81732477
Si       5.46701090       4.87645319       2.05258782
Si      -2.53668051      -0.92416691       8.79711148
Si      -1.49893964      -1.01019730       9.03193307
12
Lattice="5.897109568335629 1.606135126058626 -1.7032829866592196 0.5071503711382862 8.014486462600926 0.42743964788261213 -2.948950933521011 -2.3020727693038476 11.254158987529376" Properties=species:S:1:pos:R:3 unique_starting_index=44 config_type=initial n_minim_iter=15 stress="2.9840292158967965e-06 -3.3356644663973676e-05 -2.0603035099131354e-05 -3.3356644663973676e-05 0.00016902482441039286 2.668506003554368e-05 -2.0603035099131354e-05 2.668506003554368e-05 -4.758341969463639e-05" pbc="T T T"
Si      -1.44397169       1.66068830       9.20592183
Si      -0.09507868       5.35403075       3.80285566
Si      -1.61347048       4.29370370       9.94611199
Si       3.22446119       3.35514469       7.34087973
Si       4.00541002       5.96551714       7.34147611
Si       4.02459188       3.32357587       6.57718763
Si       6.48050167       5.58472639      -2.91842975
Si       1.67207125       3.87890815      -1.04405520
Si      -2.22272845      -0.99879447       9.81373922
Si       5.46846502       4.87783333       2.05080558
Si      -2.53753426      -0.92448190       8.79389203
Si      -1.50016485      -1.01066850       9.02861543
12
Lattice="5.897970827003065 1.6079597948232482 -1.703415882479179 0.5095023707133551 8.01441846405149 0.42670867926717615 -2.9515436808591033 -2.3034887056038946 11.248682540149463" Properties=species:S:1:pos:R:3 unique_starting_index=44 config_type=initial n_minim_iter=16 stress="-3.82751920898092e-05 -3.1757081804864154e-06 5.576876229538424e-06 -3.1757081804864154e-06 0.00017697469918787805 1.5293660419196415e-05 5.576876229538424e-06 1.5293660419196415e-05 -2.006572426156086e-05" pbc="T T T"
Si      -1.44455655       1.65897681       9.20090375
Si      -0.10189125       5.35537863       3.80306968
Si      -1.61317958       4.29219485       9.94084321
Si       3.22539824       3.35580361       7.33570371
Si       4.00655946       5.96583360       7.33606561
Si       4.02496407       3.32408312       6.57208997
Si       6.48395343       5.58681967      -2.91838212
Si       1.67414455       3.87901384      -1.04364194
Si      -2.22401646      -1.00024315       9.80912414
Si       5.47100221       4.88085041       2.04825514
Si      -2.53891584      -0.92590851       8.78897384
Si      -1.50150498      -1.01247337       9.02382369
12
Lattice="5.897940806804062 1.6089031351771392 -1.7033378780771216 0.5107040112761555 8.01432526343772 0.4263309663938934 -2.9523083304623694 -2.3042444574668473 11.246030117717964" Properties=species:S:1:pos:R:3 unique_starting_index=44 config_type=initial n_minim_iter=17 stress="-0.00010008898904342806 2.6519901282449056e-06 2.648666076873705e-05 2.6519901282449056e-06 0.00011926185375563059 8.957901552518638e-06 2.648666076873705e-05 8.957901552518638e-06 -2.2431792834176494e-05" pbc="T T T"
Si      -1.44426602       1.65784559       9.19840297
Si      -0.10426792       5.35546472       3.80289760
Si      -1.61279124       4.29138220       9.93833967
Si       3.22537289       3.35608617       7.33343000
Si       4.00691541       5.96596485       7.33363240
Si       4.02545940       3.32441960       6.56962367
Si       6.48467784       5.58786149      -2.91805166
Si       1.67543973       3.87916151      -1.04351702
Si      -2.22427157      -1.00092674       9.80685675
Si       5.47155522       4.88258451       2.04729881
Si      -2.53918909      -0.92658781       8.78664768
Si      -1.50177142      -1.01331922       9.02151563
12
Lattice="5.898058360691502 1.609207928016076 -1.7033519553929921 0.5110982167172691 8.014301501576211 0.42620755185590814 -2.9527505096226463 -2.3044726197796495 11.244992536655955" Properties=species:S:1:pos:R:3 unique_starting_index=44 config_type=initial n_minim_iter=18 stress="-7.526614652270161e-05 5.865343411200908e-06 2.2007558360908224e-05 5.865343411200908e-06 5.175994626039801e-05 2.351238197240805e-06 2.2007558360908224e-05 2.351238197240805e-06 -1.1976818831587575e-05" pbc="T T T"
Si      -1.44443521       1.65772997       9.19749550
Si      -0.10509924       5.35527948       3.80276817
Si      -1.61283223       4.29115528       9.93740307
Si       3.22533634       3.35611156       7.33223409
Si       4.00698156       5.96604518       7.33264800
Si       4.02567472       3.32443736       6.56870382
Si       6.48522806       5.58808092      -2.91774157
Si       1.67592549       3.87911543      -1.04356074
Si      -2.22444828      -1.00105915       9.80593238
Si       5.47147937       4.88349432       2.04701598
Si      -2.53935571      -0.92672260       8.78575601
Si      -1.50189384      -1.01371439       9.02057335
12
Lattice="5.897958950641916 1.6092551697739823 -1.7033178272236278 0.5111468830907901 8.014321978293347 0.42619402161312764 -2.9530747461719913 -2.3044198561945115 11.243585959905705" Properties=species:S:1:pos:R:3 unique_starting_index=44 config_type=initial n_minim_iter=19 stress="7.312639408897724e-05 1.4316172684308552e-05 -1.4968498812120442e-05 1.4316172684308552e-05 -7.334484391062825e-05 -1.1312246121740646e-05 -1.4968498812120442e-05 -1.1312246121740646e-05 2.5051069157545977e-05" pbc="T T T"
Si      -1.44492255       1.65789153       9.19641626
Si      -0.10634171       5.35502659       3.80264707
Si      -1.61299762       4.29118773       9.93624359
Si       3.22526900       3.35617645       7.33110062
Si       4.00670075       5.96612865       7.33147078
Si       4.02564099       3.32417750       6.56735163
Si       6.48543870       5.58810396      -2.91761830
Si       1.67637275       3.87874203      -1.04335472
Si      -2.22447883      -1.00110008       9.80466106
Si       5.47046036       4.88471581       2.04693334
Si      -2.53936587      -0.92676834       8.78455070
Si      -1.50174081      -1.01359406       9.01929344
12
Lattice="5.897990036284477 1.6091798268785686 -1.7033329126841228 0.5110546181331123 8.01432060215605 0.426222401630405 -2.9535431615728607 -2.30424127793119 11.242184268723395" Properties=species:S:1:pos:R:3 unique_starting_index=44 config_type=initial n_minim_iter=20 stress="0.00011962405492257437 1.115776253870166e-05 -2.2797165533847553e-05 1.115776253870166e-05 -0.00012633442175832239 -1.5792888006573104e-05 -2.2797165533847553e-05 -1.5792888006573104e-05 4.902255405158681e-05" pbc="T T T"
Si      -1.44521096       1.65784054       9.19522004
Si      -0.10831603       5.35556952       3.80279418
Si      -1.61271312       4.29117549       9.93488102
Si       3.22508739       3.35616145       7.32983227
Si       4.00701203       5.96604208       7.33007917
Si       4.02558914       3.32403656       6.56612733
Si       6.48574894       5.58790485      -2.91740904
Si       1.67672934       3.87850468      -1.04325583
Si      -2.22473210      -1.00111793       9.80343939
Si       5.46881787       4.88566651       2.04700773
Si      -2.53960961      -0.92678845       8.78335995
Si      -1.50189346      -1.01351130       9.01806505
12
Lattice="5.898129822806537 1.6094700272363192 -1.7033549160573196 0.5114387205393316 8.014267006895825 0.4260999318397251 -2.961387374168654 -2.30271278371091 11.217246957757418" Properties=species:S:1:pos:R:3 unique_starting_index=44 config_type=initial n_minim_iter=21 stress="-0.00019215660159481747 -0.00011356088294237842 3.942603592199585e-05 -0.00011356088294237842 -9.854965740619699e-05 3.0614526538199647e-05 3.942603592199585e-05 3.0614526538199647e-05 -4.756396494440318e-05" pbc="T T T"
Si      -1.44681558       1.65723654       9.17309454
Si      -0.13315442       5.36608961       3.80238605
Si      -1.61457842       4.29051672       9.91286436
Si       3.22300843       3.35588416       7.30793280
Si       4.00526837       5.96567780       7.30798170
Si       4.02311029       3.32348188       6.54439389
Si       6.49148290       5.58610645      -2.91447260
Si       1.68188838       3.87614700      -1.04024549
Si      -2.22766177      -1.00174817       9.78172769
Si       5.45003448       4.89533738       2.04466867
Si      -2.54254303      -0.92741779       8.76163607
Si      -1.50455702      -1.01399482       8.99627520
