22
Lattice="9.29619391575349 -3.1276056611059797 -1.1357768122538263 -8.692281912194009 9.405984416135801 -1.795217717241234 -4.9634313217470005 -1.2339639239208815 11.716877387602871" Properties=species:S:1:pos:R:3 unique_starting_index=18 config_type=initial n_minim_iter=1 energy=-4253.7375661513815 free_energy=-4253.7375661513815 pbc="T T T"
Si      -1.09706889       6.16577380      -0.07392052
Si       1.15193409       0.14591774       9.49414445
Si      -4.18703323      -1.16231026       9.43563817
Si       0.81071882       0.39241129      10.53012308
Si      -8.45146869       4.11821507      10.72329470
Si       6.12229028       0.83268622      -1.43804144
Si       3.46793179       0.38972888      -1.79470145
Si      -1.60805461       0.12995300       9.02233085
Si      -1.79987714       0.04128409       9.92983707
Si      -8.32918731       2.81747140       5.21957248
Si       1.15880595      -0.17148076       3.12438903
Si      -6.14685171       4.70937464       5.57120335
Si      -4.10563844      -0.75862681       8.51967064
Si      -3.78029965       5.61671538      -0.11745162
Si       0.64169264       0.62908861       4.11267406
Si      -0.76021984       5.31078673      -0.26859992
Si      -1.65159877      -0.75907910       3.53178087
Si       5.47887136      -4.83686487       7.54270938
Si       0.83178205       0.76502742       3.14608344
Si      -5.84560890       3.74070109       5.70696512
Si      -5.77461089       4.17796840       4.78674047
Si      -1.30576349      -0.75573195       9.01200893
22
Lattice="9.295868939404961 -3.127545205007535 -1.1357302313141986 -8.692005268480786 9.405617063315086 -1.7948559770357577 -4.96307249635662 -1.2333774329616183 11.71636427417419" Properties=species:S:1:pos:R:3 unique_starting_index=18 config_type=initial n_minim_iter=2 stress="-0.0029574593883008025 -0.0006593284285205352 -0.0005154696612190522 -0.0006593284285205352 -0.0005941582332300369 -0.00012584719790389098 -0.0005154696612190522 -0.00012584719790389098 -0.0007168655574191385" pbc="T T T"
Si      -1.09691730       6.16570063      -0.07368432
Si       1.15211165       0.14644298       9.49385947
Si      -4.18674639      -1.16185667       9.43519532
Si       0.81087242       0.39284348      10.52980198
Si      -8.45096075       4.11856010      10.72302122
Si       6.12204879       0.83269895      -1.43778202
Si       3.46781127       0.38969092      -1.79455497
Si      -1.60785196       0.13041358       9.02203040
Si      -1.79957102       0.04169218       9.92956593
Si      -8.32875348       2.81769093       5.21939804
Si       1.15881703      -0.17127334       3.12433275
Si      -6.14653674       4.70944095       5.57111576
Si      -4.10526556      -0.75828786       8.51934186
Si      -3.78025417       5.61656301      -0.11726947
Si       0.64168816       0.62926740       4.11258397
Si      -0.76019616       5.31061391      -0.26842305
Si      -1.65158476      -0.75889065       3.53160312
Si       5.47880680      -4.83634881       7.54222249
Si       0.83180031       0.76514534       3.14605689
Si      -5.84541387       3.74079030       5.70690354
Si      -5.77429048       4.17815681       4.78671584
Si      -1.30560622      -0.75535928       9.01172548
22
Lattice="9.295968214098712 -3.1275053124682066 -1.1356968019525906 -8.692084978651547 9.405539509171724 -1.7948126009281975 -4.963062186450709 -1.233274418239412 11.716297302217011" Properties=species:S:1:pos:R:3 unique_starting_index=18 config_type=initial n_minim_iter=3 stress="-5.652447981072579e-05 0.0003544348129604663 0.0001952045746120192 0.0003544348129604663 -0.0002268451461991136 0.00014068240623541317 0.0001952045746120192 0.00014068240623541317 -0.0005279660303081552" pbc="T T T"
Si      -1.09688133       6.16570549      -0.07363579
Si       1.15220447       0.14656402       9.49385014
Si      -4.18674327      -1.16177973       9.43513455
Si       0.81095744       0.39294635      10.52979000
Si      -8.45096838       4.11861895      10.72299115
Si       6.12211888       0.83273058      -1.43771361
Si       3.46785028       0.38969808      -1.79452099
Si      -1.60781057       0.13050890       9.02200669
Si      -1.79950997       0.04177570       9.92955228
Si      -8.32879885       2.81771499       5.21936113
Si       1.15885235      -0.17122358       3.12434005
Si      -6.14655376       4.70945048       5.57110710
Si      -4.10524396      -0.75823290       8.51930066
Si      -3.78029571       5.61653740      -0.11724137
Si       0.64171607       0.62931290       4.11258817
Si      -0.76018322       5.31059647      -0.26838644
Si      -1.65160575      -0.75885912       3.53157714
Si       5.47890656      -4.83623246       7.54217290
Si       0.83183489       0.76517911       3.14607005
Si      -5.84545343       3.74080180       5.70690188
Si      -5.77430376       4.17819131       4.78671742
Si      -1.30557188      -0.75528472       9.01170586
22
Lattice="9.296257160921892 -3.1278717035030663 -1.135870204391221 -8.692529119418449 9.406023282613807 -1.7948084546667822 -4.963260806617255 -1.2331507352988278 11.71698453799099" Properties=species:S:1:pos:R:3 unique_starting_index=18 config_type=initial n_minim_iter=4 stress="-2.6474432175185922e-05 -1.5495552203773647e-05 -0.00011640226338431684 -1.5495552203773647e-05 1.041474420060061e-06 -2.90482027938967e-07 -0.00011640226338431684 -2.90482027938967e-07 0.00027166137652899003" pbc="T T T"
Si      -1.09708464       6.16589902      -0.07365905
Si       1.15212376       0.14653739       9.49432792
Si      -4.18690603      -1.16169638       9.43568597
Si       0.81082150       0.39291382      10.53033706
Si      -8.45137847       4.11896390      10.72367072
Si       6.12221777       0.83257253      -1.43784196
Si       3.46792492       0.38960093      -1.79465087
Si      -1.60795478       0.13056513       9.02250964
Si      -1.79965576       0.04179998       9.93012839
Si      -8.32909909       2.81806159       5.21973972
Si       1.15884070      -0.17125023       3.12449985
Si      -6.14688894       4.70972366       5.57146349
Si      -4.10536959      -0.75815167       8.51981896
Si      -3.78057834       5.61678275      -0.11721864
Si       0.64162636       0.62930251       4.11280095
Si      -0.76035858       5.31073966      -0.26841562
Si      -1.65168184      -0.75881853       3.53177984
Si       5.47907569      -4.83652630       7.54246756
Si       0.83178696       0.76516673       3.14623256
Si      -5.84578282       3.74103753       5.70729549
Si      -5.77459215       4.17849905       4.78704820
Si      -1.30568588      -0.75529349       9.01222519
22
Lattice="9.296574315562426 -3.128439670848665 -1.135520430152891 -8.693245859320825 9.406759445786655 -1.7950183293248205 -4.962937796042382 -1.2329663001935234 11.716281046660983" Properties=species:S:1:pos:R:3 unique_starting_index=18 config_type=initial n_minim_iter=5 stress="0.00026694462894962277 -0.0004135656747886718 -1.7720824347524744e-05 -0.0004135656747886718 9.869348219621975e-05 -6.478946163708651e-05 -1.7720824347524744e-05 -6.478946163708651e-05 -0.0005166309784951419" pbc="T T T"
Si      -1.09744622       6.16615126      -0.07379878
Si       1.15247497       0.14646495       9.49386709
Si      -4.18664633      -1.16163380       9.43509747
Si       0.81111549       0.39292917      10.52985991
Si      -8.45139141       4.11949565      10.72293908
Si       6.12223299       0.83231384      -1.43753695
Si       3.46788617       0.38940941      -1.79443240
Si      -1.60767840       0.13062422       9.02206637
Si      -1.79939528       0.04179604       9.92964652
Si      -8.32929648       2.81860760       5.21921238
Si       1.15896406      -0.17127740       3.12440011
Si      -6.14706482       4.71011047       5.57096730
Si      -4.10507792      -0.75805613       8.51932076
Si      -3.78098996       5.61713870      -0.11739164
Si       0.64164956       0.62929160       4.11264102
Si      -0.76061718       5.31100712      -0.26843933
Si      -1.65158139      -0.75871555       3.53149680
Si       5.47968521      -4.83700793       7.54218937
Si       0.83189474       0.76516343       3.14613056
Si      -5.84595399       3.74136990       5.70689164
Si      -5.77475640       4.17900451       4.78665346
Si      -1.30536885      -0.75531367       9.01182525
22
Lattice="9.296030195992367 -3.1282326855108367 -1.1352492141616204 -8.692669063501777 9.406620375789473 -1.795364073231365 -4.962288525295929 -1.2329974112811999 11.716730041374392" Properties=species:S:1:pos:R:3 unique_starting_index=18 config_type=initial n_minim_iter=6 stress="-0.00012419661601873909 7.448237076713697e-05 7.4078479456325365e-06 7.448237076713697e-05 0.0001673045059839149 -1.2863027019075593e-05 7.4078479456325365e-06 -1.2863027019075593e-05 1.941246252306487e-05" pbc="T T T"
Si      -1.09724680       6.16620930      -0.07390695
Si       1.15284525       0.14660406       9.49438547
Si      -4.18611821      -1.16180639       9.43542943
Si       0.81147045       0.39317237      10.53048088
Si      -8.45041405       4.11942105      10.72330380
Si       6.12187719       0.83252007      -1.43730426
Si       3.46761127       0.38943739      -1.79434374
Si      -1.60717693       0.13065062       9.02255746
Si      -1.79893518       0.04175425       9.93019033
Si      -8.32872967       2.81853407       5.21918643
Si       1.15901991      -0.17114645       3.12462485
Si      -6.14640364       4.70998585       5.57106107
Si      -4.10448027      -0.75817836       8.51966370
Si      -3.78070715       5.61710169      -0.11753764
Si       0.64170315       0.62938730       4.11293419
Si      -0.76041247       5.31114592      -0.26842841
Si      -1.65140664      -0.75865213       3.53153062
Si       5.47962532      -4.83688919       7.54264187
Si       0.83206205       0.76526852       3.14637816
Si      -5.84540604       3.74123637       5.70708926
Si      -5.77417810       4.17906440       4.78676452
Si      -1.30493955      -0.75529675       9.01234896
22
Lattice="9.296219513089618 -3.1282160151045346 -1.135078481559412 -8.693105901613972 9.405949479717075 -1.7955114043392801 -4.962002228812955 -1.2325569121312925 11.716944467403888" Properties=species:S:1:pos:R:3 unique_starting_index=18 config_type=initial n_minim_iter=7 stress="0.0001526113930571947 -2.6873287100938392e-05 -7.915282212183799e-05 -2.6873287100938392e-05 -0.0008127736686809866 -0.00016202394007715015 -7.915282212183799e-05 -0.00016202394007715015 8.516129774867716e-05" pbc="T T T"
Si      -1.09740322       6.16572483      -0.07396008
Si       1.15317960       0.14667415       9.49470879
Si      -4.18587431      -1.16164633       9.43556814
Si       0.81171910       0.39331663      10.53080933
Si      -8.45030886       4.11940035      10.72348005
Si       6.12183054       0.83236209      -1.43713168
Si       3.46755330       0.38916539      -1.79422635
Si      -1.60686830       0.13073544       9.02288099
Si      -1.79875274       0.04186342       9.93047644
Si      -8.32891292       2.81866793       5.21914377
Si       1.15916952      -0.17101933       3.12474993
Si      -6.14645946       4.70973181       5.57116818
Si      -4.10421627      -0.75792896       8.51984184
Si      -3.78097546       5.61674223      -0.11758320
Si       0.64172614       0.62944286       4.11311830
Si      -0.76057801       5.31072565      -0.26840197
Si      -1.65138365      -0.75836124       3.53150298
Si       5.48012938      -4.83653517       7.54284675
Si       0.83219903       0.76528760       3.14655793
Si      -5.84545059       3.74108436       5.70718434
Si      -5.77424558       4.17896568       4.78684514
Si      -1.30461297      -0.75502700       9.01266257
22
Lattice="9.296025882639281 -3.128876756228543 -1.1347395211865234 -8.693346563690783 9.406857939526025 -1.7954569988036493 -4.961103402947496 -1.2316756575100796 11.716813705198403" Properties=species:S:1:pos:R:3 unique_starting_index=18 config_type=initial n_minim_iter=8 stress="-9.239826322371175e-06 -3.9291535607788414e-05 -3.151172762451558e-05 -3.9291535607788414e-05 7.025650263538594e-05 0.00017769351053874418 -3.151172762451558e-05 0.00017769351053874418 -4.767746776724182e-06" pbc="T T T"
Si      -1.09753719       6.16636714      -0.07379072
Si       1.15383100       0.14720174       9.49498879
Si      -4.18510978      -1.16130305       9.43540001
Si       0.81225365       0.39406869      10.53106603
Si      -8.44951349       4.12069260      10.72347105
Si       6.12142836       0.83226725      -1.43668808
Si       3.46727543       0.38874014      -1.79391824
Si      -1.60614492       0.13127336       9.02312439
Si      -1.79818840       0.04247379       9.93060983
Si      -8.32869022       2.81966582       5.21889056
Si       1.15940460      -0.17073151       3.12487141
Si      -6.14611823       4.71059784       5.57129387
Si      -4.10346188      -0.75734803       8.51978244
Si      -3.78117045       5.61743156      -0.11748420
Si       0.64182958       0.62988036       4.11332727
Si      -0.76078591       5.31119933      -0.26815135
Si      -1.65122997      -0.75792946       3.53131624
Si       5.48076935      -4.83672562       7.54287220
Si       0.83243054       0.76564945       3.14680791
Si      -5.84511108       3.74187694       5.70719445
Si      -5.77395226       4.17987803       4.78690441
Si      -1.30388358      -0.75442245       9.01284623
22
Lattice="9.295669536674598 -3.128862317347314 -1.1334816642176828 -8.693365391881548 9.407187670251279 -1.7973776600907836 -4.959746900226167 -1.232871323745883 11.716691187548022" Properties=species:S:1:pos:R:3 unique_starting_index=18 config_type=initial n_minim_iter=9 stress="1.2448618232418272e-05 0.0001274307228110613 -9.083612391564417e-05 0.0001274307228110613 0.00012889840740280128 -0.0002872418045794119 -9.083612391564417e-05 -0.0002872418045794119 -0.00012675708904251858" pbc="T T T"
Si      -1.09747770       6.16665832      -0.07476825
Si       1.15495348       0.14619354       9.49526002
Si      -4.18392688      -1.16282022       9.43523600
Si       0.81308739       0.39313637      10.53127772
Si      -8.44807709       4.11957381      10.72240380
Si       6.12096550       0.83247137      -1.43610119
Si       3.46697428       0.38865153      -1.79353911
Si      -1.60509810       0.13019148       9.02326237
Si      -1.79713987       0.04128713       9.93069345
Si      -8.32816374       2.81939982       5.21779060
Si       1.15972098      -0.17093490       3.12504870
Si      -6.14540990       4.71004651       5.57047873
Si      -4.10240063      -0.75827879       8.51973146
Si      -3.78118102       5.61767796      -0.11855979
Si       0.64212667       0.62968782       4.11343195
Si      -0.76079479       5.31135674      -0.26879601
Si      -1.65106199      -0.75803696       3.53123702
Si       5.48157384      -4.83777895       7.54399217
Si       0.83277417       0.76550203       3.14696794
Si      -5.84445914       3.74122099       5.70617615
Si      -5.77319694       4.17945480       4.78602258
Si      -1.30286316      -0.75550302       9.01309804
22
Lattice="9.29559895791269 -3.1291579969576806 -1.1329829965375375 -8.693755306469438 9.407140437449623 -1.7977422666500322 -4.958808989400052 -1.2322239264154353 11.716811104139808" Properties=species:S:1:pos:R:3 unique_starting_index=18 config_type=initial n_minim_iter=10 stress="-8.006984451610879e-05 -0.00013208989735504712 0.00041569014668572924 -0.00013208989735504712 -4.0129926135759095e-05 -6.093484859854803e-06 0.00041569014668572924 -6.093484859854803e-06 0.00017881867001867321" pbc="T T T"
Si      -1.09770697       6.16656166      -0.07470221
Si       1.15567722       0.14645238       9.49575211
Si      -4.18311464      -1.16252141       9.43530167
Si       0.81372544       0.39357276      10.53179016
Si      -8.44732418       4.12010790      10.72240774
Si       6.12071403       0.83218365      -1.43567411
Si       3.46679966       0.38834422      -1.79332724
Si      -1.60442219       0.13050707       9.02358040
Si      -1.79640627       0.04161488       9.93103663
Si      -8.32788413       2.81990911       5.21749697
Si       1.15992848      -0.17080603       3.12524539
Si      -6.14512513       4.71029961       5.57056351
Si      -4.10169690      -0.75783136       8.51987051
Si      -3.78138371       5.61770543      -0.11868676
Si       0.64233967       0.62989743       4.11367990
Si      -0.76099661       5.31123160      -0.26865537
Si      -1.65086021      -0.75765712       3.53122582
Si       5.48227405      -4.83765572       7.54447325
Si       0.83297426       0.76563748       3.14722103
Si      -5.84416427       3.74146459       5.70604164
Si      -5.77287795       4.17968038       4.78598708
Si      -1.30215999      -0.75519721       9.01341269
22
Lattice="9.295789423366193 -3.12919074450566 -1.1333523538260508 -8.69391393281483 9.406864902492392 -1.7971368052497523 -4.959170158792071 -1.2316632125852005 11.716918056941518" Properties=species:S:1:pos:R:3 unique_starting_index=18 config_type=initial n_minim_iter=11 stress="6.75927136993049e-05 2.4994790286098584e-05 -0.00012138293179416826 2.4994790286098584e-05 -3.26015578622944e-05 0.00016212290193586926 -0.00012138293179416826 0.00016212290193586926 -3.467687231144441e-05" pbc="T T T"
Si      -1.09778041       6.16646155      -0.07448154
Si       1.15552776       0.14678592       9.49574783
Si      -4.18335783      -1.16233433       9.43538984
Si       0.81338666       0.39410865      10.53178662
Si      -8.44768589       4.12048384      10.72280185
Si       6.12077976       0.83208507      -1.43576740
Si       3.46689366       0.38812339      -1.79338821
Si      -1.60463147       0.13083244       9.02367697
Si      -1.79667089       0.04191525       9.93114950
Si      -8.32825806       2.82023088       5.21779527
Si       1.15985274      -0.17061074       3.12519672
Si      -6.14539449       4.71041668       5.57106921
Si      -4.10192956      -0.75747009       8.52010104
Si      -3.78151058       5.61767602      -0.11843525
Si       0.64217242       0.63017387       4.11369121
Si      -0.76103278       5.31112027      -0.26836539
Si      -1.65108610      -0.75725151       3.53122408
Si       5.48223507      -4.83736997       7.54405961
Si       0.83293785       0.76584524       3.14726802
Si      -5.84447658       3.74156776       5.70621711
Si      -5.77302365       4.17977031       4.78633618
Si      -1.30236317      -0.75490477       9.01347697
22
Lattice="9.295780401390388 -3.129285693289184 -1.1325840887464107 -8.694247980888106 9.407029900355482 -1.798393703258322 -4.9583902167057765 -1.2323264348649077 11.717059968241253" Properties=species:S:1:pos:R:3 unique_starting_index=18 config_type=initial n_minim_iter=12 stress="2.812888001000857e-05 2.815179441841941e-05 4.5391454019988976e-05 2.815179441841941e-05 1.0329354631597765e-05 -2.6669921916848548e-05 4.5391454019988976e-05 -2.6669921916848548e-05 2.4146829909492123e-05" pbc="T T T"
Si      -1.09796767       6.16650629      -0.07508739
Si       1.15616535       0.14598199       9.49609671
Si      -4.18261223      -1.16332454       9.43559585
Si       0.81405988       0.39341416      10.53209105
Si      -8.44703205       4.11987554      10.72226511
Si       6.12055824       0.83213979      -1.43537046
Si       3.46677279       0.38797855      -1.79328640
Si      -1.60394244       0.13015761       9.02386664
Si      -1.79599045       0.04103491       9.93139301
Si      -8.32812638       2.82024965       5.21716444
Si       1.15998475      -0.17072849       3.12533245
Si      -6.14512179       4.71002277       5.57074841
Si      -4.10129915      -0.75803274       8.52049247
Si      -3.78172480       5.61794954      -0.11928315
Si       0.64228985       0.63009706       4.11379112
Si      -0.76125056       5.31113633      -0.26859541
Si      -1.65098237      -0.75700596       3.53131060
Si       5.48284668      -4.83817478       7.54479184
Si       0.83320187       0.76578960       3.14738047
Si      -5.84425262       3.74108940       5.70551824
Si      -5.77273714       4.17947124       4.78582757
Si      -1.30166677      -0.75568641       9.01376023
22
Lattice="9.296256283945608 -3.129633367749593 -1.132095608475425 -8.695153979215963 9.407308789941641 -1.799283788757702 -4.958106937023011 -1.2327196745661548 11.717124110047521" Properties=species:S:1:pos:R:3 unique_starting_index=18 config_type=initial n_minim_iter=13 stress="4.9848191966880456e-05 3.114180707207068e-05 3.3701210405666056e-05 3.114180707207068e-05 -1.8368160521585862e-05 -1.579893431180926e-05 3.3701210405666056e-05 -1.579893431180926e-05 2.8221999127556866e-05" pbc="T T T"
Si      -1.09826094       6.16675035      -0.07572916
Si       1.15647338       0.14518655       9.49627809
Si      -4.18222344      -1.16435441       9.43595277
Si       0.81436501       0.39311644      10.53217606
Si      -8.44712244       4.11946430      10.72171028
Si       6.12060354       0.83195147      -1.43502593
Si       3.46686398       0.38753778      -1.79335901
Si      -1.60349243       0.12943132       9.02396635
Si      -1.79556558       0.04021830       9.93142273
Si      -8.32862732       2.82067442       5.21667420
Si       1.15996859      -0.17076072       3.12532930
Si      -6.14528297       4.70963719       5.57057113
Si      -4.10105391      -0.75853103       8.52119268
Si      -3.78223598       5.61819925      -0.12013563
Si       0.64230493       0.63019541       4.11377572
Si      -0.76178352       5.31103130      -0.26861214
Si      -1.65119743      -0.75643780       3.53160179
Si       5.48370381      -4.83908646       7.54503403
Si       0.83337873       0.76579978       3.14737576
Si      -5.84442168       3.74067543       5.70488590
Si      -5.77312622       4.17946042       4.78535043
Si      -1.30125570      -0.75636783       9.01380036
22
Lattice="9.296870070493346 -3.1301918297073743 -1.132002448307448 -8.696116660045357 9.407979133051994 -1.799539564020876 -4.958264382673558 -1.23277034628067 11.71708946859713" Properties=species:S:1:pos:R:3 unique_starting_index=18 config_type=initial n_minim_iter=14 stress="5.2465701474630945e-05 2.5932090692705104e-05 2.8285085833171497e-05 2.5932090692705104e-05 3.3935705929744183e-06 1.1753073490754576e-06 2.8285085833171497e-05 1.1753073490754576e-06 3.803580842356528e-05" pbc="T T T"
Si      -1.09869769       6.16703367      -0.07618104
Si       1.15654769       0.14474464       9.49635054
Si      -4.18215619      -1.16507698       9.43622194
Si       0.81426157       0.39293562      10.53204554
Si      -8.44752814       4.11963442      10.72129441
Si       6.12064883       0.83179318      -1.43481433
Si       3.46716586       0.38710392      -1.79345626
Si      -1.60355560       0.12898663       9.02388337
Si      -1.79550021       0.03982040       9.93133175
Si      -8.32937876       2.82136794       5.21650812
Si       1.15984607      -0.17076332       3.12522646
Si      -6.14566155       4.70964674       5.57059039
Si      -4.10125274      -0.75878926       8.52171388
Si      -3.78267188       5.61871822      -0.12054836
Si       0.64237087       0.63042082       4.11372425
Si      -0.76229509       5.31124220      -0.26839247
Si      -1.65155862      -0.75582011       3.53171856
Si       5.48431793      -4.83984884       7.54482301
Si       0.83334829       0.76587436       3.14728590
Si      -5.84481153       3.74065011       5.70459515
Si      -5.77370976       4.17996298       4.78510892
Si      -1.30126923      -0.75673319       9.01360195
22
Lattice="9.297273707672073 -3.1305463640768707 -1.13210465879933 -8.696662120629723 9.4084602040727 -1.799465187610027 -4.958567175818931 -1.232751380233755 11.716992080170613" Properties=species:S:1:pos:R:3 unique_starting_index=18 config_type=initial n_minim_iter=15 stress="4.6607965573013394e-05 1.9157450900117675e-05 1.936461316091776e-05 1.9157450900117675e-05 1.4656518290124375e-05 1.018742261142606e-05 1.936461316091776e-05 1.018742261142606e-05 3.959636744899974e-05" pbc="T T T"
Si      -1.09883154       6.16724921      -0.07639170
Si       1.15638359       0.14452247       9.49624988
Si      -4.18220026      -1.16544429       9.43627173
Si       0.81400007       0.39288400      10.53184749
Si      -8.44812466       4.11982415      10.72104639
Si       6.12069465       0.83168796      -1.43474894
Si       3.46733414       0.38693682      -1.79353953
Si      -1.60373166       0.12886386       9.02373396
Si      -1.79563896       0.03963832       9.93122095
Si      -8.32990641       2.82180972       5.21654269
Si       1.15978368      -0.17075007       3.12514917
Si      -6.14603896       4.70974763       5.57068341
Si      -4.10153004      -0.75880318       8.52182651
Si      -3.78288510       5.61900400      -0.12067145
Si       0.64235104       0.63048368       4.11362570
Si      -0.76250347       5.31139141      -0.26827217
Si      -1.65167025      -0.75545141       3.53175326
Si       5.48450192      -4.84022125       7.54452149
Si       0.83323915       0.76588718       3.14719673
Si      -5.84521637       3.74071412       5.70448238
Si      -5.77415907       4.18032650       4.78504448
Si      -1.30141592      -0.75686265       9.01340901
22
Lattice="9.297854175604716 -3.131005100371372 -1.1322807401329646 -8.697396593463118 9.40911880553511 -1.7993272155455726 -4.959077783306831 -1.2327912028970613 11.716777262826287" Properties=species:S:1:pos:R:3 unique_starting_index=18 config_type=initial n_minim_iter=16 stress="3.47279980152547e-05 1.2940203544172021e-05 1.6312570284291703e-05 1.2940203544172021e-05 3.4414013932147665e-05 -7.282978767594752e-06 1.6312570284291703e-05 -7.282978767594752e-06 2.818906068522542e-05" pbc="T T T"
Si      -1.09911481       6.16750150      -0.07678103
Si       1.15612262       0.14421976       9.49602470
Si      -4.18236968      -1.16600343       9.43620400
Si       0.81376175       0.39283458      10.53151514
Si      -8.44901099       4.12002491      10.72066319
Si       6.12086490       0.83157451      -1.43463752
Si       3.46753273       0.38675591      -1.79366835
Si      -1.60405655       0.12869382       9.02346233
Si      -1.79592019       0.03935429       9.93098741
Si      -8.33061718       2.82235257       5.21662629
Si       1.15973345      -0.17074397       3.12503787
Si      -6.14659885       4.70988193       5.57083929
Si      -4.10197292      -0.75878055       8.52184897
Si      -3.78310454       5.61937005      -0.12084169
Si       0.64231118       0.63051871       4.11345604
Si      -0.76289448       5.31147866      -0.26821089
Si      -1.65195963      -0.75505905       3.53173359
Si       5.48467310      -4.84071977       7.54400294
Si       0.83313478       0.76588681       3.14704677
Si      -5.84579709       3.74080590       5.70428743
Si      -5.77483653       4.18076895       4.78496016
Si      -1.30172619      -0.75706564       9.01309086
22
Lattice="9.298674902287933 -3.131548547257862 -1.1326802275799608 -8.698376957466852 9.409725427600717 -1.7988715404453823 -4.959911838019873 -1.232601046712529 11.716544386263521" Properties=species:S:1:pos:R:3 unique_starting_index=18 config_type=initial n_minim_iter=17 stress="2.1593097059093904e-05 -4.156370216743571e-06 -7.993250244805793e-06 -4.156370216743571e-06 3.7810160615609604e-05 2.7538880114043818e-05 -7.993250244805793e-06 2.7538880114043818e-05 2.0569378592741866e-05" pbc="T T T"
Si      -1.09937274       6.16766642      -0.07725585
Si       1.15555099       0.14399190       9.49572555
Si      -4.18288259      -1.16649053       9.43603150
Si       0.81332699       0.39288388      10.53109600
Si      -8.45026078       4.12036383      10.72036227
Si       6.12114816       0.83135258      -1.43450349
Si       3.46793142       0.38648571      -1.79382810
Si      -1.60463215       0.12864172       9.02320789
Si      -1.79635045       0.03928019       9.93071565
Si      -8.33168837       2.82297925       5.21689717
Si       1.15944745      -0.17076668       3.12487549
Si      -6.14739009       4.71010686       5.57135378
Si      -4.10268466      -0.75848877       8.52193535
Si      -3.78350630       5.61976383      -0.12096798
Si       0.64210369       0.63060885       4.11324361
Si      -0.76324127       5.31142086      -0.26800226
Si      -1.65230122      -0.75449446       3.53168711
Si       5.48486990      -4.84109579       7.54303668
Si       0.83300176       0.76589807       3.14684129
Si      -5.84651482       3.74101622       5.70416090
Si      -5.77584053       4.18129861       4.78506476
Si      -1.30231474      -0.75709890       9.01273009
22
Lattice="9.299630599915917 -3.132036636533096 -1.1329544427498421 -8.699522602265809 9.410244628848957 -1.7987554221938955 -4.960792358053357 -1.232779552283343 11.716304031438224" Properties=species:S:1:pos:R:3 unique_starting_index=18 config_type=initial n_minim_iter=18 stress="5.507705877722516e-06 -1.778494486042317e-05 -2.8225454922339747e-05 -1.778494486042317e-05 3.908529396283319e-05 3.126605444260728e-05 -2.8225454922339747e-05 3.126605444260728e-05 1.8126928279191825e-05" pbc="T T T"
Si      -1.09958017       6.16762393      -0.07816364
Si       1.15498854       0.14328057       9.49546534
Si      -4.18314763      -1.16724856       9.43587783
Si       0.81279291       0.39261690      10.53062330
Si      -8.45150447       4.12029351      10.71983049
Si       6.12147601       0.83108476      -1.43433265
Si       3.46834973       0.38618720      -1.79393623
Si      -1.60524516       0.12827081       9.02293156
Si      -1.79682803       0.03884985       9.93044008
Si      -8.33282515       2.82339217       5.21708877
Si       1.15913062      -0.17095099       3.12473637
Si      -6.14843122       4.71001258       5.57183133
Si      -4.10347554      -0.75838597       8.52217942
Si      -3.78399885       5.62016207      -0.12144565
Si       0.64197874       0.63063746       4.11301582
Si      -0.76371513       5.31112324      -0.26789845